  56  56   0   0
  0.1062148E+02  0.8409903E-09  0.8409903E-09  0.8409903E-09  0.5000000E-15
  1.000000000000000E-004
  CAR 
 unknown system                          
     15.78682753    -10.41477580  301     10.55744345      1.00000000
    -10.415  0.0000E+00  0.0000E+00
    -10.327  0.0000E+00  0.0000E+00
    -10.240  0.0000E+00  0.0000E+00
    -10.153  0.0000E+00  0.0000E+00
    -10.065  0.2529E-31  0.2209E-32
     -9.978  0.2036E-25  0.1779E-26
     -9.891  0.3409E-20  0.2977E-21
     -9.803  0.1175E-15  0.1026E-16
     -9.716  0.8181E-12  0.7146E-13
     -9.629  0.1126E-08  0.9846E-10
     -9.541  0.2972E-06  0.2605E-07
     -9.454  0.1392E-04  0.1242E-05
     -9.367  0.6063E-04  0.6538E-05
     -9.279 -0.5274E-03 -0.3953E-04
     -9.192  0.4102E-02  0.3187E-03
     -9.105  0.2422E-01  0.2434E-02
     -9.017  0.2709E-01  0.4800E-02
     -8.930  0.5697E-01  0.9776E-02
     -8.843  0.4155E-01  0.1340E-01
     -8.755  0.5987E-01  0.1863E-01
     -8.668  0.8278E-01  0.2586E-01
     -8.581  0.7828E-01  0.3270E-01
     -8.493  0.8653E-01  0.4026E-01
     -8.406  0.1137E+00  0.5019E-01
     -8.319  0.1631E+00  0.6443E-01
     -8.231  0.8650E-01  0.7198E-01
     -8.144  0.1543E+00  0.8546E-01
     -8.057  0.2477E+00  0.1071E+00
     -7.969  0.2527E+00  0.1292E+00
     -7.882  0.1884E+00  0.1456E+00
     -7.795  0.1214E+00  0.1562E+00
     -7.707  0.8568E-01  0.1637E+00
     -7.620  0.3040E+00  0.1903E+00
     -7.533  0.2849E+00  0.2151E+00
     -7.445  0.2108E+00  0.2335E+00
     -7.358  0.1098E+00  0.2431E+00
     -7.271  0.4803E-01  0.2473E+00
     -7.183  0.8539E-01  0.2548E+00
     -7.096  0.1393E+00  0.2669E+00
     -7.009  0.6119E-01  0.2723E+00
     -6.921  0.4154E-01  0.2759E+00
     -6.834  0.1261E+00  0.2869E+00
     -6.747  0.1263E+00  0.2980E+00
     -6.659  0.5212E-01  0.3025E+00
     -6.572  0.5392E-01  0.3072E+00
     -6.485  0.6425E-01  0.3128E+00
     -6.397  0.3695E-01  0.3161E+00
     -6.310 -0.9722E-02  0.3152E+00
     -6.223  0.1149E+00  0.3252E+00
     -6.135  0.1083E+01  0.4198E+00
     -6.048  0.7391E+00  0.4843E+00
     -5.961 -0.4952E-01  0.4800E+00
     -5.873 -0.2429E-02  0.4798E+00
     -5.786  0.2193E-02  0.4800E+00
     -5.698  0.5057E-04  0.4800E+00
     -5.611  0.1757E-06  0.4800E+00
     -5.524  0.1145E-09  0.4800E+00
     -5.436  0.1501E-13  0.4800E+00
     -5.349  0.0000E+00  0.4800E+00
     -5.262  0.0000E+00  0.4800E+00
     -5.174  0.0000E+00  0.4800E+00
     -5.087  0.0000E+00  0.4800E+00
     -5.000  0.0000E+00  0.4800E+00
     -4.912  0.0000E+00  0.4800E+00
     -4.825  0.0000E+00  0.4800E+00
     -4.738  0.0000E+00  0.4800E+00
     -4.650  0.0000E+00  0.4800E+00
     -4.563  0.0000E+00  0.4800E+00
     -4.476  0.0000E+00  0.4800E+00
     -4.388  0.0000E+00  0.4800E+00
     -4.301  0.0000E+00  0.4800E+00
     -4.214  0.0000E+00  0.4800E+00
     -4.126  0.0000E+00  0.4800E+00
     -4.039  0.0000E+00  0.4800E+00
     -3.952  0.0000E+00  0.4800E+00
     -3.864  0.0000E+00  0.4800E+00
     -3.777  0.0000E+00  0.4800E+00
     -3.690  0.0000E+00  0.4800E+00
     -3.602  0.0000E+00  0.4800E+00
     -3.515  0.0000E+00  0.4800E+00
     -3.428  0.0000E+00  0.4800E+00
     -3.340  0.0000E+00  0.4800E+00
     -3.253  0.0000E+00  0.4800E+00
     -3.166  0.0000E+00  0.4800E+00
     -3.078  0.0000E+00  0.4800E+00
     -2.991  0.0000E+00  0.4800E+00
     -2.904  0.0000E+00  0.4800E+00
     -2.816  0.0000E+00  0.4800E+00
     -2.729  0.0000E+00  0.4800E+00
     -2.642  0.0000E+00  0.4800E+00
     -2.554  0.0000E+00  0.4800E+00
     -2.467  0.0000E+00  0.4800E+00
     -2.380  0.0000E+00  0.4800E+00
     -2.292  0.0000E+00  0.4800E+00
     -2.205  0.0000E+00  0.4800E+00
     -2.118  0.0000E+00  0.4800E+00
     -2.030  0.0000E+00  0.4800E+00
     -1.943  0.0000E+00  0.4800E+00
     -1.856  0.0000E+00  0.4800E+00
     -1.768  0.0000E+00  0.4800E+00
     -1.681  0.0000E+00  0.4800E+00
     -1.594  0.0000E+00  0.4800E+00
     -1.506  0.4537E-30  0.4800E+00
     -1.419  0.3668E-24  0.4800E+00
     -1.332  0.6207E-19  0.4800E+00
     -1.244  0.2176E-14  0.4800E+00
     -1.157  0.1547E-10  0.4800E+00
     -1.070  0.2165E-07  0.4800E+00
     -0.982  0.5582E-05  0.4800E+00
     -0.895  0.2164E-03  0.4800E+00
     -0.808 -0.1428E-03  0.4800E+00
     -0.720 -0.3263E-02  0.4797E+00
     -0.633  0.6259E-01  0.4852E+00
     -0.546  0.1557E+00  0.4988E+00
     -0.458  0.3186E+00  0.5266E+00
     -0.371  0.3053E+00  0.5533E+00
     -0.283  0.3872E+00  0.5871E+00
     -0.196  0.3633E+00  0.6188E+00
     -0.109  0.3221E+00  0.6470E+00
     -0.021  0.3038E+00  0.6735E+00
      0.066  0.2370E+00  0.6942E+00
      0.153  0.2335E+00  0.7146E+00
      0.241  0.9956E-01  0.7233E+00
      0.328  0.2178E+00  0.7423E+00
      0.415  0.1924E+00  0.7591E+00
      0.503  0.2537E+00  0.7813E+00
      0.590  0.2106E+00  0.7997E+00
      0.677  0.1193E+00  0.8101E+00
      0.765  0.1614E+00  0.8242E+00
      0.852  0.1442E+00  0.8368E+00
      0.939  0.4062E-01  0.8403E+00
      1.027  0.1459E+00  0.8531E+00
      1.114  0.1855E+00  0.8693E+00
      1.201  0.2386E+00  0.8901E+00
      1.289  0.2466E+00  0.9116E+00
      1.376  0.2816E+00  0.9362E+00
      1.463  0.2470E+00  0.9578E+00
      1.551  0.2293E+00  0.9778E+00
      1.638  0.1201E+00  0.9883E+00
      1.725  0.2100E+00  0.1007E+01
      1.813  0.1562E+00  0.1020E+01
      1.900  0.1807E+00  0.1036E+01
      1.987  0.1559E+00  0.1050E+01
      2.075  0.1154E+00  0.1060E+01
      2.162  0.7707E-01  0.1067E+01
      2.249  0.2097E-01  0.1068E+01
      2.337  0.1743E+00  0.1084E+01
      2.424  0.2574E+00  0.1106E+01
      2.511  0.1077E+00  0.1115E+01
      2.599  0.8023E-02  0.1116E+01
      2.686  0.2557E+00  0.1138E+01
      2.773  0.3559E+00  0.1170E+01
      2.861  0.2048E+00  0.1187E+01
      2.948  0.2887E+00  0.1213E+01
      3.035  0.2856E+00  0.1238E+01
      3.123  0.3390E+00  0.1267E+01
      3.210  0.4021E+00  0.1302E+01
      3.297  0.2726E+00  0.1326E+01
      3.385  0.2313E+00  0.1346E+01
      3.472  0.3790E+00  0.1379E+01
      3.559  0.3381E+00  0.1409E+01
      3.647  0.3001E+00  0.1435E+01
      3.734  0.2241E+00  0.1455E+01
      3.821  0.2453E+00  0.1476E+01
      3.909  0.2134E+00  0.1495E+01
      3.996  0.3375E+00  0.1524E+01
      4.083  0.4777E+00  0.1566E+01
      4.171  0.3392E+00  0.1596E+01
      4.258  0.2083E+00  0.1614E+01
      4.345  0.2851E+00  0.1639E+01
      4.433  0.2387E+00  0.1660E+01
      4.520  0.7093E-01  0.1666E+01
      4.607  0.1227E+00  0.1676E+01
      4.695  0.1436E+00  0.1689E+01
      4.782  0.9369E-01  0.1697E+01
      4.869  0.1702E+00  0.1712E+01
      4.957  0.1357E+00  0.1724E+01
      5.044  0.8181E-01  0.1731E+01
      5.132  0.7757E-01  0.1738E+01
      5.219  0.1929E+00  0.1755E+01
      5.306  0.7295E-01  0.1761E+01
      5.394  0.7511E-01  0.1768E+01
      5.481  0.1688E+00  0.1782E+01
      5.568  0.1059E+00  0.1792E+01
      5.656  0.4986E-01  0.1796E+01
      5.743  0.9989E-01  0.1805E+01
      5.830  0.2660E+00  0.1828E+01
      5.918  0.1763E+00  0.1843E+01
      6.005  0.3347E+00  0.1873E+01
      6.092  0.2191E+00  0.1892E+01
      6.180  0.1742E+00  0.1907E+01
      6.267  0.8613E-01  0.1914E+01
      6.354  0.4784E-01  0.1919E+01
      6.442  0.1832E-01  0.1920E+01
      6.529 -0.7880E-03  0.1920E+01
      6.616 -0.5726E-03  0.1920E+01
      6.704  0.3835E-02  0.1920E+01
      6.791  0.7978E-02  0.1921E+01
      6.878 -0.1207E-02  0.1921E+01
      6.966  0.8910E-02  0.1922E+01
      7.053  0.1248E-01  0.1923E+01
      7.140  0.2317E-01  0.1925E+01
      7.228  0.4251E-01  0.1929E+01
      7.315  0.9551E-02  0.1929E+01
      7.402  0.4382E-02  0.1930E+01
      7.490  0.6509E-01  0.1936E+01
      7.577  0.9083E-01  0.1943E+01
      7.664  0.6304E-01  0.1949E+01
      7.752  0.8934E-01  0.1957E+01
      7.839  0.9502E-01  0.1965E+01
      7.926  0.1028E+00  0.1974E+01
      8.014  0.4515E-01  0.1978E+01
      8.101  0.8150E-01  0.1985E+01
      8.188  0.1371E+00  0.1997E+01
      8.276  0.1253E+00  0.2008E+01
      8.363  0.8061E-01  0.2015E+01
      8.450  0.3770E-01  0.2018E+01
      8.538  0.1564E+00  0.2032E+01
      8.625  0.2026E+00  0.2050E+01
      8.712  0.9062E-01  0.2058E+01
      8.800  0.2038E+00  0.2075E+01
      8.887  0.1325E+00  0.2087E+01
      8.974  0.1014E+00  0.2096E+01
      9.062  0.3343E+00  0.2125E+01
      9.149  0.3485E+00  0.2156E+01
      9.236  0.2525E+00  0.2178E+01
      9.324  0.2086E+00  0.2196E+01
      9.411  0.2455E+00  0.2217E+01
      9.498  0.2447E+00  0.2239E+01
      9.586  0.1494E+00  0.2252E+01
      9.673  0.1997E+00  0.2269E+01
      9.760  0.1644E+00  0.2283E+01
      9.848  0.1072E+00  0.2293E+01
      9.935  0.1653E+00  0.2307E+01
     10.022  0.3439E+00  0.2337E+01
     10.110  0.2265E+00  0.2357E+01
     10.197  0.2550E+00  0.2379E+01
     10.284  0.2045E+00  0.2397E+01
     10.372  0.2124E+00  0.2416E+01
     10.459  0.4344E+00  0.2454E+01
     10.547  0.2894E+00  0.2479E+01
     10.634  0.4195E-01  0.2483E+01
     10.721  0.6507E-01  0.2488E+01
     10.809  0.6456E-01  0.2494E+01
     10.896  0.9291E-01  0.2502E+01
     10.983  0.1465E+00  0.2515E+01
     11.071  0.3884E-01  0.2518E+01
     11.158  0.6085E-01  0.2524E+01
     11.245  0.2666E+00  0.2547E+01
     11.333  0.2740E+00  0.2571E+01
     11.420  0.2763E+00  0.2595E+01
     11.507  0.2489E+00  0.2617E+01
     11.595  0.1186E+00  0.2627E+01
     11.682  0.2072E+00  0.2645E+01
     11.769  0.2964E+00  0.2671E+01
     11.857  0.2838E+00  0.2696E+01
     11.944  0.2188E+00  0.2715E+01
     12.031  0.2383E+00  0.2736E+01
     12.119  0.2776E+00  0.2760E+01
     12.206  0.3602E+00  0.2791E+01
     12.293  0.2881E+00  0.2817E+01
     12.381  0.1918E+00  0.2833E+01
     12.468  0.2286E+00  0.2853E+01
     12.555  0.3029E+00  0.2880E+01
     12.643  0.2871E+00  0.2905E+01
     12.730  0.2797E+00  0.2929E+01
     12.817  0.2650E+00  0.2952E+01
     12.905  0.1779E+00  0.2968E+01
     12.992  0.2191E+00  0.2987E+01
     13.079  0.1660E+00  0.3002E+01
     13.167  0.1883E+00  0.3018E+01
     13.254  0.2996E+00  0.3044E+01
     13.341  0.1226E+00  0.3055E+01
     13.429  0.1170E+00  0.3065E+01
     13.516  0.1140E+00  0.3075E+01
     13.603  0.9925E-01  0.3084E+01
     13.691  0.1356E+00  0.3096E+01
     13.778  0.1122E+00  0.3105E+01
     13.865  0.2416E-01  0.3107E+01
     13.953  0.3117E-01  0.3110E+01
     14.040  0.6293E-01  0.3116E+01
     14.127  0.2371E-01  0.3118E+01
     14.215  0.2354E-02  0.3118E+01
     14.302  0.1308E-01  0.3119E+01
     14.389  0.7106E-02  0.3120E+01
     14.477 -0.7344E-03  0.3120E+01
     14.564  0.9224E-03  0.3120E+01
     14.651  0.2832E-02  0.3120E+01
     14.739  0.1282E-03  0.3120E+01
     14.826 -0.6453E-04  0.3120E+01
     14.913  0.1161E-04  0.3120E+01
     15.001  0.4050E-06  0.3120E+01
     15.088  0.1725E-08  0.3120E+01
     15.175  0.1274E-11  0.3120E+01
     15.263  0.1800E-15  0.3120E+01
     15.350  0.0000E+00  0.3120E+01
     15.437  0.0000E+00  0.3120E+01
     15.525  0.0000E+00  0.3120E+01
     15.612  0.0000E+00  0.3120E+01
     15.699  0.0000E+00  0.3120E+01
     15.787  0.0000E+00  0.3120E+01
