   56   56  100    1
  0.1062148E+02  0.8409903E-09  0.8409903E-09  0.8409903E-09  0.5000000E-15
  1.000000000000000E-004
  CAR 
 unknown system                          
    248     10    156
 
  0.3742002E-15  0.3742002E-15  0.3742002E-15  0.8000000E-02
    1       -9.223794   1.000000
    2       -8.177983   1.000000
    3       -8.177983   1.000000
    4       -8.177983   1.000000
    5       -8.177983   1.000000
    6       -8.177983   1.000000
    7       -8.177983   1.000000
    8       -7.748390   1.000000
    9       -7.392396   1.000000
   10       -7.392396   1.000000
   11       -7.392396   1.000000
   12       -7.392396   1.000000
   13       -7.392396   1.000000
   14       -7.392396   1.000000
   15       -7.326598   1.000000
   16       -6.239847   1.000000
   17       -6.239847   1.000000
   18       -6.239847   1.000000
   19       -6.239847   1.000000
   20       -6.239847   1.000000
   21       -6.239847   1.000000
   22       -6.096704   1.000000
   23       -6.096704   1.000000
   24       -6.096704   1.000000
   25       -0.624772   1.000000
   26       -0.624772   1.000000
   27       -0.624772   1.000000
   28       -0.592873   1.000000
   29       -0.161659   1.000000
   30       -0.161659   1.000000
   31       -0.161659   1.000000
   32       -0.161659   1.000000
   33       -0.161659   1.000000
   34       -0.161659   1.000000
   35        0.535597   1.000000
   36        0.535597   1.000000
   37        0.535597   1.000000
   38        0.535597   1.000000
   39        0.535597   1.000000
   40        0.535597   1.000000
   41        1.051441   1.000000
   42        1.051441   1.000000
   43        1.051441   1.000000
   44        1.418093   1.000000
   45        1.418093   1.000000
   46        1.418093   1.000000
   47        1.418093   1.000000
   48        1.418093   1.000000
   49        1.418093   1.000000
   50        1.740731   1.000000
   51        1.740731   1.000000
   52        1.877725   1.000000
   53        1.877725   1.000000
   54        1.877725   1.000000
   55        1.877725   1.000000
   56        1.877725   1.000000
   57        1.877725   1.000000
   58        3.163984   1.000000
   59        3.163984   1.000000
   60        3.163984   1.000000
   61        3.163984   1.000000
   62        3.163984   1.000000
   63        3.163984   1.000000
   64        3.327512   1.000000
   65        3.327512   1.000000
   66        3.327512   1.000000
   67        3.327512   1.000000
   68        3.327512   1.000000
   69        3.327512   1.000000
   70        3.340505   1.000000
   71        3.340505   1.000000
   72        3.340505   1.000000
   73        3.340505   1.000000
   74        3.340505   1.000000
   75        3.340505   1.000000
   76        3.587525   1.000000
   77        3.587525   1.000000
   78        3.587525   1.000000
   79        3.997750   1.000000
   80        3.997750   1.000000
   81        3.997750   1.000000
   82        3.997750   1.000000
   83        3.997750   1.000000
   84        3.997750   1.000000
   85        5.254582   1.000000
   86        5.254582   1.000000
   87        5.254582   1.000000
   88        5.934589   1.000000
   89        5.935346   1.000000
   90        5.935346   1.000000
   91        5.935346   1.000000
   92        5.935346   1.000000
   93        5.935346   1.000000
   94        5.935346   1.000000
   95        6.414768   1.000000
   96        6.414768   1.000000
   97        6.414768   1.000000
   98        8.775474   1.000000
   99        8.775474   1.000000
  100        8.775474   1.000000
  101        8.812052   1.000000
  102        8.812052   1.000000
  103        8.812052   1.000000
  104        8.812052   1.000000
  105        8.812052   1.000000
  106        8.812052   1.000000
  107        9.487030   1.000000
  108        9.487030   1.000000
  109        9.487030   1.000000
  110        9.487030   1.000000
  111        9.487030   1.000000
  112        9.487030   1.000000
  113        9.680583   1.000000
  114        9.680583   1.000000
  115        9.680583   1.000000
  116        9.680583   1.000000
  117        9.680583   1.000000
  118        9.680583   1.000000
  119        9.766975   1.000000
  120        9.766975   1.000000
  121        9.766975   1.000000
  122       10.054107   1.000000
  123       10.054107   1.000000
  124       10.054107   1.000000
  125       10.054107   1.000000
  126       10.054107   1.000000
  127       10.054107   1.000000
  128       11.574677   0.000000
  129       11.704450   0.000000
  130       11.704450   0.000000
  131       11.704450   0.000000
  132       11.704450   0.000000
  133       11.704450   0.000000
  134       11.704450   0.000000
  135       11.884167   0.000000
  136       11.884167   0.000000
  137       12.145623   0.000000
  138       12.145623   0.000000
  139       12.145623   0.000000
  140       12.145623   0.000000
  141       12.145623   0.000000
  142       12.145623   0.000000
  143       12.164518   0.000000
  144       12.164518   0.000000
  145       12.164518   0.000000
  146       12.164518   0.000000
  147       12.164518   0.000000
  148       12.164518   0.000000
  149       13.176994   0.000000
  150       13.176995   0.000000
  151       13.176995   0.000000
  152       13.328323   0.000000
  153       13.535745   0.000000
  154       13.535745   0.000000
  155       14.590479   0.000000
  156       14.595846   0.000000
 
  0.2000000E+00  0.3742002E-15  0.3742002E-15  0.4800000E-01
    1       -9.170543   1.000000
    2       -8.468191   1.000000
    3       -8.160563   1.000000
    4       -8.160563   1.000000
    5       -8.160563   1.000000
    6       -8.160563   1.000000
    7       -7.987572   1.000000
    8       -7.765515   1.000000
    9       -7.482705   1.000000
   10       -7.435388   1.000000
   11       -7.435388   1.000000
   12       -7.435388   1.000000
   13       -7.435388   1.000000
   14       -7.349453   1.000000
   15       -7.132534   1.000000
   16       -6.226820   1.000000
   17       -6.226820   1.000000
   18       -6.206549   1.000000
   19       -6.206549   1.000000
   20       -6.206549   1.000000
   21       -6.206549   1.000000
   22       -6.181914   1.000000
   23       -6.110776   1.000000
   24       -6.110776   1.000000
   25       -0.601455   1.000000
   26       -0.601455   1.000000
   27       -0.502784   1.000000
   28       -0.478444   1.000000
   29       -0.234303   1.000000
   30       -0.234303   1.000000
   31       -0.133909   1.000000
   32       -0.133909   1.000000
   33       -0.133909   1.000000
   34       -0.133909   1.000000
   35        0.293283   1.000000
   36        0.453374   1.000000
   37        0.453374   1.000000
   38        0.453374   1.000000
   39        0.453374   1.000000
   40        0.652184   1.000000
   41        0.679831   1.000000
   42        0.937649   1.000000
   43        1.167937   1.000000
   44        1.167937   1.000000
   45        1.399821   1.000000
   46        1.399821   1.000000
   47        1.399821   1.000000
   48        1.399821   1.000000
   49        1.626286   1.000000
   50        1.801808   1.000000
   51        1.881521   1.000000
   52        1.881521   1.000000
   53        1.881521   1.000000
   54        1.881521   1.000000
   55        1.914946   1.000000
   56        1.914946   1.000000
   57        2.285752   1.000000
   58        2.677332   1.000000
   59        2.923547   1.000000
   60        2.923547   1.000000
   61        2.923547   1.000000
   62        2.923547   1.000000
   63        3.154394   1.000000
   64        3.154394   1.000000
   65        3.299782   1.000000
   66        3.342429   1.000000
   67        3.342429   1.000000
   68        3.342429   1.000000
   69        3.342429   1.000000
   70        3.529580   1.000000
   71        3.529580   1.000000
   72        3.579432   1.000000
   73        3.605039   1.000000
   74        3.706330   1.000000
   75        3.767373   1.000000
   76        3.767373   1.000000
   77        3.767373   1.000000
   78        3.767373   1.000000
   79        4.026497   1.000000
   80        4.026497   1.000000
   81        4.026497   1.000000
   82        4.026497   1.000000
   83        4.186228   1.000000
   84        4.186228   1.000000
   85        5.092866   1.000000
   86        5.092866   1.000000
   87        5.122954   1.000000
   88        5.694273   1.000000
   89        5.766336   1.000000
   90        5.766336   1.000000
   91        5.766336   1.000000
   92        5.766336   1.000000
   93        5.963268   1.000000
   94        5.963268   1.000000
   95        6.328610   1.000000
   96        6.328610   1.000000
   97        6.723633   1.000000
   98        8.169993   1.000000
   99        8.739021   1.000000
  100        8.811705   1.000000
  101        8.859515   1.000000
  102        8.859515   1.000000
  103        8.859515   1.000000
  104        8.859515   1.000000
  105        9.112509   1.000000
  106        9.112509   1.000000
  107        9.133434   1.000000
  108        9.133434   1.000000
  109        9.133434   1.000000
  110        9.133434   1.000000
  111        9.322027   1.000000
  112        9.456143   1.000000
  113        9.456143   1.000000
  114        9.569233   1.000000
  115        9.636841   1.000000
  116        9.636841   1.000000
  117        9.636841   1.000000
  118        9.636841   1.000000
  119        9.738017   1.000000
  120        9.738017   1.000000
  121       10.303104   0.998187
  122       10.303104   0.998187
  123       10.340069   0.995613
  124       10.536030   0.718643
  125       10.536030   0.718643
  126       10.536030   0.718643
  127       10.536030   0.718643
  128       11.370399   0.000000
  129       11.370399   0.000000
  130       11.370399   0.000000
  131       11.370399   0.000000
  132       11.641977   0.000000
  133       11.767257   0.000000
  134       11.843919   0.000000
  135       11.845143   0.000000
  136       11.877064   0.000000
  137       11.967772   0.000000
  138       11.984370   0.000000
  139       11.984370   0.000000
  140       12.157988   0.000000
  141       12.157988   0.000000
  142       12.157988   0.000000
  143       12.157988   0.000000
  144       12.512200   0.000000
  145       12.512200   0.000000
  146       12.512200   0.000000
  147       12.512200   0.000000
  148       12.751276   0.000000
  149       13.019262   0.000000
  150       13.131994   0.000000
  151       13.131994   0.000000
  152       13.163454   0.000000
  153       13.682583   0.000000
  154       13.684205   0.000000
  155       14.238835   0.000000
  156       14.310284   0.000000
 
  0.4000000E+00  0.3742002E-15  0.3742002E-15  0.4800000E-01
    1       -9.014995   1.000000
    2       -8.770455   1.000000
    3       -8.128772   1.000000
    4       -8.128772   1.000000
    5       -8.128772   1.000000
    6       -8.128772   1.000000
    7       -7.883072   1.000000
    8       -7.812789   1.000000
    9       -7.505449   1.000000
   10       -7.505449   1.000000
   11       -7.505449   1.000000
   12       -7.505449   1.000000
   13       -7.465163   1.000000
   14       -7.406047   1.000000
   15       -6.767971   1.000000
   16       -6.422168   1.000000
   17       -6.191625   1.000000
   18       -6.191625   1.000000
   19       -6.155666   1.000000
   20       -6.155666   1.000000
   21       -6.155666   1.000000
   22       -6.155666   1.000000
   23       -6.147382   1.000000
   24       -6.147382   1.000000
   25       -0.522937   1.000000
   26       -0.522937   1.000000
   27       -0.386221   1.000000
   28       -0.386221   1.000000
   29       -0.163082   1.000000
   30       -0.150863   1.000000
   31       -0.071434   1.000000
   32       -0.071434   1.000000
   33       -0.071434   1.000000
   34       -0.071434   1.000000
   35        0.193041   1.000000
   36        0.305838   1.000000
   37        0.305838   1.000000
   38        0.305838   1.000000
   39        0.305838   1.000000
   40        0.306380   1.000000
   41        0.320583   1.000000
   42        0.351523   1.000000
   43        1.371127   1.000000
   44        1.371127   1.000000
   45        1.371127   1.000000
   46        1.371127   1.000000
   47        1.469413   1.000000
   48        1.469413   1.000000
   49        1.805157   1.000000
   50        1.805157   1.000000
   51        1.910668   1.000000
   52        1.910668   1.000000
   53        1.910668   1.000000
   54        1.910668   1.000000
   55        1.982940   1.000000
   56        2.056780   1.000000
   57        2.278333   1.000000
   58        2.670162   1.000000
   59        2.670162   1.000000
   60        2.670162   1.000000
   61        2.670162   1.000000
   62        2.687882   1.000000
   63        3.079751   1.000000
   64        3.114872   1.000000
   65        3.114872   1.000000
   66        3.341169   1.000000
   67        3.341169   1.000000
   68        3.613968   1.000000
   69        3.631443   1.000000
   70        3.631443   1.000000
   71        3.631443   1.000000
   72        3.631443   1.000000
   73        3.914024   1.000000
   74        3.914024   1.000000
   75        3.914024   1.000000
   76        3.914024   1.000000
   77        4.262389   1.000000
   78        4.263257   1.000000
   79        4.263257   1.000000
   80        4.263257   1.000000
   81        4.263257   1.000000
   82        4.306456   1.000000
   83        4.468439   1.000000
   84        4.468439   1.000000
   85        4.763702   1.000000
   86        4.765995   1.000000
   87        4.765995   1.000000
   88        5.078706   1.000000
   89        5.425745   1.000000
   90        5.425745   1.000000
   91        5.425745   1.000000
   92        5.425745   1.000000
   93        6.047615   1.000000
   94        6.047615   1.000000
   95        6.178806   1.000000
   96        6.178806   1.000000
   97        7.398369   1.000000
   98        7.921338   1.000000
   99        8.132317   1.000000
  100        8.391819   1.000000
  101        8.672534   1.000000
  102        8.672534   1.000000
  103        8.672534   1.000000
  104        8.672534   1.000000
  105        9.099977   1.000000
  106        9.148508   1.000000
  107        9.148508   1.000000
  108        9.148508   1.000000
  109        9.148508   1.000000
  110        9.346599   1.000000
  111        9.483727   1.000000
  112        9.483727   1.000000
  113        9.549442   1.000000
  114        9.549442   1.000000
  115        9.595282   1.000000
  116        9.595282   1.000000
  117        9.595282   1.000000
  118        9.595282   1.000000
  119        9.951698   1.000000
  120        9.951698   1.000000
  121       10.510471   0.920999
  122       10.510471   0.920999
  123       10.658313  -0.050825
  124       10.658313  -0.050825
  125       10.658313  -0.050825
  126       10.658313  -0.050825
  127       11.266811   0.000000
  128       11.382211   0.000000
  129       11.382211   0.000000
  130       11.382211   0.000000
  131       11.382211   0.000000
  132       11.671045   0.000000
  133       11.755666   0.000000
  134       11.845259   0.000000
  135       11.898180   0.000000
  136       11.898180   0.000000
  137       11.918610   0.000000
  138       11.949871   0.000000
  139       12.177842   0.000000
  140       12.224151   0.000000
  141       12.224152   0.000000
  142       12.224152   0.000000
  143       12.224152   0.000000
  144       12.593106   0.000000
  145       12.593106   0.000000
  146       12.615547   0.000000
  147       12.845634   0.000000
  148       12.845634   0.000000
  149       12.845634   0.000000
  150       12.845634   0.000000
  151       12.853157   0.000000
  152       13.099718   0.000000
  153       13.785338   0.000000
  154       13.793516   0.000000
  155       13.988599   0.000000
  156       14.018633   0.000000
 
  0.2000000E+00  0.2000000E+00  0.3742002E-15  0.9600000E-01
    1       -9.118079   1.000000
    2       -8.431073   1.000000
    3       -8.431073   1.000000
    4       -8.170768   1.000000
    5       -8.130765   1.000000
    6       -7.993976   1.000000
    7       -7.993976   1.000000
    8       -7.783191   1.000000
    9       -7.604886   1.000000
   10       -7.533317   1.000000
   11       -7.533317   1.000000
   12       -7.376857   1.000000
   13       -7.305445   1.000000
   14       -7.166797   1.000000
   15       -7.166797   1.000000
   16       -6.274987   1.000000
   17       -6.220971   1.000000
   18       -6.199603   1.000000
   19       -6.199603   1.000000
   20       -6.192686   1.000000
   21       -6.192686   1.000000
   22       -6.150081   1.000000
   23       -6.117497   1.000000
   24       -6.104650   1.000000
   25       -0.666081   1.000000
   26       -0.488474   1.000000
   27       -0.478304   1.000000
   28       -0.281847   1.000000
   29       -0.271543   1.000000
   30       -0.271543   1.000000
   31       -0.191166   1.000000
   32       -0.154089   1.000000
   33       -0.154089   1.000000
   34        0.017353   1.000000
   35        0.123097   1.000000
   36        0.227569   1.000000
   37        0.227569   1.000000
   38        0.520471   1.000000
   39        0.594931   1.000000
   40        0.594931   1.000000
   41        0.656669   1.000000
   42        0.996233   1.000000
   43        0.996233   1.000000
   44        1.103871   1.000000
   45        1.284692   1.000000
   46        1.342311   1.000000
   47        1.379968   1.000000
   48        1.494377   1.000000
   49        1.502168   1.000000
   50        1.502168   1.000000
   51        1.847912   1.000000
   52        1.847912   1.000000
   53        1.999488   1.000000
   54        1.999488   1.000000
   55        2.176523   1.000000
   56        2.306867   1.000000
   57        2.462627   1.000000
   58        2.647351   1.000000
   59        2.893264   1.000000
   60        2.893264   1.000000
   61        2.958651   1.000000
   62        2.958651   1.000000
   63        2.983062   1.000000
   64        3.126889   1.000000
   65        3.126889   1.000000
   66        3.202196   1.000000
   67        3.252956   1.000000
   68        3.321004   1.000000
   69        3.491004   1.000000
   70        3.548096   1.000000
   71        3.548096   1.000000
   72        3.561023   1.000000
   73        3.682927   1.000000
   74        3.682927   1.000000
   75        3.883463   1.000000
   76        3.933467   1.000000
   77        3.933467   1.000000
   78        4.039160   1.000000
   79        4.047330   1.000000
   80        4.060371   1.000000
   81        4.143656   1.000000
   82        4.143656   1.000000
   83        4.376680   1.000000
   84        4.376680   1.000000
   85        4.728521   1.000000
   86        4.943012   1.000000
   87        5.201324   1.000000
   88        5.394915   1.000000
   89        5.468295   1.000000
   90        5.783148   1.000000
   91        5.783148   1.000000
   92        5.827571   1.000000
   93        5.827571   1.000000
   94        5.935166   1.000000
   95        6.222277   1.000000
   96        6.335619   1.000000
   97        6.979296   1.000000
   98        8.259671   1.000000
   99        8.259671   1.000000
  100        8.521974   1.000000
  101        8.718514   1.000000
  102        8.727656   1.000000
  103        8.727656   1.000000
  104        8.896702   1.000000
  105        8.896702   1.000000
  106        9.003911   1.000000
  107        9.101811   1.000000
  108        9.150067   1.000000
  109        9.155470   1.000000
  110        9.201200   1.000000
  111        9.294710   1.000000
  112        9.362995   1.000000
  113        9.362995   1.000000
  114        9.572211   1.000000
  115        9.605632   1.000000
  116        9.732051   1.000000
  117       10.042555   1.000000
  118       10.042555   1.000000
  119       10.146053   1.000000
  120       10.146053   1.000000
  121       10.168771   0.999998
  122       10.302289   0.998234
  123       10.302289   0.998234
  124       10.419536   1.020840
  125       10.777310   0.004228
  126       10.835049   0.000784
  127       10.835049   0.000784
  128       10.891326   0.000053
  129       11.256879   0.000000
  130       11.256879   0.000000
  131       11.504090   0.000000
  132       11.504090   0.000000
  133       11.659574   0.000000
  134       11.852367   0.000000
  135       11.878016   0.000000
  136       11.878016   0.000000
  137       11.970206   0.000000
  138       11.981463   0.000000
  139       12.018016   0.000000
  140       12.147679   0.000000
  141       12.147679   0.000000
  142       12.434154   0.000000
  143       12.434154   0.000000
  144       12.446755   0.000000
  145       12.595510   0.000000
  146       12.600545   0.000000
  147       12.895645   0.000000
  148       12.940490   0.000000
  149       12.940490   0.000000
  150       12.959908   0.000000
  151       13.042088   0.000000
  152       13.070162   0.000000
  153       13.414023   0.000000
  154       13.855775   0.000000
  155       13.973346   0.000000
  156       14.002339   0.000000
 
  0.4000000E+00  0.2000000E+00  0.3742002E-15  0.1920000E+00
    1       -8.964540   1.000000
    2       -8.724280   1.000000
    3       -8.331897   1.000000
    4       -8.220045   1.000000
    5       -8.075724   1.000000
    6       -8.022000   1.000000
    7       -7.899797   1.000000
    8       -7.831063   1.000000
    9       -7.690533   1.000000
   10       -7.636667   1.000000
   11       -7.512116   1.000000
   12       -7.443461   1.000000
   13       -7.254309   1.000000
   14       -7.222400   1.000000
   15       -6.814178   1.000000
   16       -6.495558   1.000000
   17       -6.185501   1.000000
   18       -6.171010   1.000000
   19       -6.167672   1.000000
   20       -6.165617   1.000000
   21       -6.137109   1.000000
   22       -6.133184   1.000000
   23       -6.130941   1.000000
   24       -6.113162   1.000000
   25       -0.625605   1.000000
   26       -0.466381   1.000000
   27       -0.412631   1.000000
   28       -0.304985   1.000000
   29       -0.286359   1.000000
   30       -0.237695   1.000000
   31       -0.151853   1.000000
   32       -0.030236   1.000000
   33        0.064839   1.000000
   34        0.078377   1.000000
   35        0.080248   1.000000
   36        0.113823   1.000000
   37        0.228703   1.000000
   38        0.230025   1.000000
   39        0.303946   1.000000
   40        0.445790   1.000000
   41        0.451911   1.000000
   42        0.509778   1.000000
   43        1.135511   1.000000
   44        1.153519   1.000000
   45        1.274628   1.000000
   46        1.287132   1.000000
   47        1.339560   1.000000
   48        1.578811   1.000000
   49        1.670338   1.000000
   50        1.713154   1.000000
   51        1.765887   1.000000
   52        1.890580   1.000000
   53        2.018800   1.000000
   54        2.060302   1.000000
   55        2.104090   1.000000
   56        2.419237   1.000000
   57        2.423091   1.000000
   58        2.675382   1.000000
   59        2.728829   1.000000
   60        2.790472   1.000000
   61        2.917230   1.000000
   62        2.944919   1.000000
   63        3.044061   1.000000
   64        3.137858   1.000000
   65        3.171872   1.000000
   66        3.357904   1.000000
   67        3.400125   1.000000
   68        3.408161   1.000000
   69        3.474078   1.000000
   70        3.563346   1.000000
   71        3.624877   1.000000
   72        3.642434   1.000000
   73        3.871511   1.000000
   74        3.914978   1.000000
   75        3.967353   1.000000
   76        3.985180   1.000000
   77        4.062295   1.000000
   78        4.074314   1.000000
   79        4.142757   1.000000
   80        4.235524   1.000000
   81        4.355343   1.000000
   82        4.359482   1.000000
   83        4.388360   1.000000
   84        4.631496   1.000000
   85        4.646835   1.000000
   86        4.814623   1.000000
   87        4.898796   1.000000
   88        5.160650   1.000000
   89        5.188426   1.000000
   90        5.417840   1.000000
   91        5.627328   1.000000
   92        5.787998   1.000000
   93        5.883350   1.000000
   94        5.969474   1.000000
   95        6.040305   1.000000
   96        6.175112   1.000000
   97        7.582227   1.000000
   98        7.936543   1.000000
   99        8.074966   1.000000
  100        8.088438   1.000000
  101        8.236422   1.000000
  102        8.339187   1.000000
  103        8.771104   1.000000
  104        8.805539   1.000000
  105        8.956403   1.000000
  106        9.021823   1.000000
  107        9.042054   1.000000
  108        9.059775   1.000000
  109        9.096340   1.000000
  110        9.355367   1.000000
  111        9.368528   1.000000
  112        9.441595   1.000000
  113        9.665057   1.000000
  114        9.685065   1.000000
  115        9.885325   1.000000
  116        9.945308   1.000000
  117        9.971889   1.000000
  118        9.997915   1.000000
  119       10.009483   1.000000
  120       10.049173   1.000000
  121       10.306589   0.997978
  122       10.354385   0.995068
  123       10.465787   1.050989
  124       10.473783   1.045716
  125       10.960069   0.000001
  126       11.197225   0.000000
  127       11.224237   0.000000
  128       11.300388   0.000000
  129       11.358722   0.000000
  130       11.418320   0.000000
  131       11.419751   0.000000
  132       11.474506   0.000000
  133       11.714869   0.000000
  134       11.745811   0.000000
  135       11.770205   0.000000
  136       11.863345   0.000000
  137       11.994721   0.000000
  138       12.103967   0.000000
  139       12.106822   0.000000
  140       12.169590   0.000000
  141       12.211967   0.000000
  142       12.237094   0.000000
  143       12.337679   0.000000
  144       12.482263   0.000000
  145       12.522622   0.000000
  146       12.739807   0.000000
  147       12.785747   0.000000
  148       12.817562   0.000000
  149       12.930146   0.000000
  150       12.988473   0.000000
  151       13.242016   0.000000
  152       13.299625   0.000000
  153       13.421794   0.000000
  154       13.554665   0.000000
  155       13.650717   0.000000
  156       13.709750   0.000000
 
  0.4000000E+00  0.4000000E+00  0.3742002E-15  0.9600000E-01
    1       -8.817949   1.000000
    2       -8.592307   1.000000
    3       -8.592307   1.000000
    4       -8.400754   1.000000
    5       -8.013353   1.000000
    6       -7.947562   1.000000
    7       -7.947562   1.000000
    8       -7.880617   1.000000
    9       -7.707016   1.000000
   10       -7.617277   1.000000
   11       -7.617277   1.000000
   12       -7.531467   1.000000
   13       -7.050843   1.000000
   14       -6.914575   1.000000
   15       -6.914575   1.000000
   16       -6.666928   1.000000
   17       -6.176377   1.000000
   18       -6.156241   1.000000
   19       -6.156241   1.000000
   20       -6.131613   1.000000
   21       -6.120422   1.000000
   22       -6.117739   1.000000
   23       -6.117739   1.000000
   24       -6.094861   1.000000
   25       -0.655367   1.000000
   26       -0.517836   1.000000
   27       -0.517836   1.000000
   28       -0.394464   1.000000
   29       -0.182545   1.000000
   30       -0.110892   1.000000
   31       -0.087622   1.000000
   32       -0.060684   1.000000
   33       -0.060684   1.000000
   34        0.002278   1.000000
   35        0.002278   1.000000
   36        0.028949   1.000000
   37        0.313457   1.000000
   38        0.333134   1.000000
   39        0.333134   1.000000
   40        0.430222   1.000000
   41        0.549793   1.000000
   42        0.750581   1.000000
   43        0.805457   1.000000
   44        0.805457   1.000000
   45        1.093112   1.000000
   46        1.257853   1.000000
   47        1.257853   1.000000
   48        1.452707   1.000000
   49        1.669605   1.000000
   50        1.712413   1.000000
   51        1.712413   1.000000
   52        1.906564   1.000000
   53        2.091558   1.000000
   54        2.246060   1.000000
   55        2.326157   1.000000
   56        2.326157   1.000000
   57        2.798209   1.000000
   58        2.827333   1.000000
   59        2.827333   1.000000
   60        2.949588   1.000000
   61        3.116096   1.000000
   62        3.116096   1.000000
   63        3.125926   1.000000
   64        3.328008   1.000000
   65        3.387026   1.000000
   66        3.396802   1.000000
   67        3.416271   1.000000
   68        3.416271   1.000000
   69        3.470447   1.000000
   70        3.475893   1.000000
   71        3.475893   1.000000
   72        3.511454   1.000000
   73        3.734819   1.000000
   74        3.763366   1.000000
   75        3.763366   1.000000
   76        3.821662   1.000000
   77        3.960960   1.000000
   78        4.073855   1.000000
   79        4.073855   1.000000
   80        4.299152   1.000000
   81        4.325314   1.000000
   82        4.411330   1.000000
   83        4.411330   1.000000
   84        4.619713   1.000000
   85        4.809674   1.000000
   86        4.895917   1.000000
   87        4.895917   1.000000
   88        5.033924   1.000000
   89        5.283604   1.000000
   90        5.560244   1.000000
   91        5.560244   1.000000
   92        5.782827   1.000000
   93        5.932754   1.000000
   94        5.932754   1.000000
   95        5.973103   1.000000
   96        6.138104   1.000000
   97        7.642225   1.000000
   98        7.713586   1.000000
   99        7.713586   1.000000
  100        7.929912   1.000000
  101        8.033534   1.000000
  102        8.525835   1.000000
  103        8.525835   1.000000
  104        8.761458   1.000000
  105        8.939088   1.000000
  106        9.064148   1.000000
  107        9.064148   1.000000
  108        9.097205   1.000000
  109        9.097205   1.000000
  110        9.177184   1.000000
  111        9.237445   1.000000