       N       E                     dE             d eps       ncg     rms          rms(c)
DAV:   1     0.874850745711E+03    0.87485E+03   -0.99697E+04  3120   0.118E+03
DAV:   2    -0.251286574290E+03   -0.11261E+04   -0.10807E+04  3896   0.242E+02
DAV:   3    -0.352511704476E+03   -0.10123E+03   -0.97059E+02  3888   0.687E+01
DAV:   4    -0.355985474497E+03   -0.34738E+01   -0.33569E+01  3968   0.116E+01
DAV:   5    -0.356082741227E+03   -0.97267E-01   -0.96350E-01  3824   0.172E+00    0.386E+01
RMM:   6    -0.328829033923E+03    0.27254E+02   -0.14741E+02  3121   0.208E+01    0.175E+01
RMM:   7    -0.328364073299E+03    0.46496E+00   -0.42503E+00  3307   0.300E+00    0.994E+00
RMM:   8    -0.328263444852E+03    0.10063E+00   -0.22156E+00  3121   0.305E+00    0.209E+00
RMM:   9    -0.328128132020E+03    0.13531E+00   -0.20482E-01  3167   0.782E-01    0.828E-01
RMM:  10    -0.328118810371E+03    0.93216E-02   -0.12441E-01  3299   0.539E-01    0.252E-01
RMM:  11    -0.328119750347E+03   -0.93998E-03   -0.57211E-03  3271   0.136E-01    0.105E-01
RMM:  12    -0.328119604330E+03    0.14602E-03   -0.35378E-03  3292   0.849E-02    0.476E-02
RMM:  13    -0.328119542392E+03    0.61937E-04   -0.19723E-04  2013   0.206E-02
   1 F= -.32811954E+03 E0= -.32812329E+03  d E =-.328120E+03
       N       E                     dE             d eps       ncg     rms          rms(c)
DAV:   1    -0.328119512293E+03    0.92036E-04   -0.10931E-02  3464   0.286E-01    0.501E-02
RMM:   2    -0.328119626113E+03   -0.11382E-03   -0.15263E-03  2978   0.933E-02    0.518E-02
RMM:   3    -0.328119604852E+03    0.21261E-04   -0.51239E-05  1816   0.152E-02
   2 F= -.32811960E+03 E0= -.32812334E+03  d E =-.624594E-04
       N       E                     dE             d eps       ncg     rms          rms(c)
DAV:   1    -0.328119767178E+03   -0.14107E-03   -0.21701E-03  3492   0.138E-01    0.175E-02
RMM:   2    -0.328119795386E+03   -0.28208E-04   -0.35413E-04  2212   0.486E-02
   3 F= -.32811980E+03 E0= -.32812354E+03  d E =-.252993E-03
