 vasp.5.4.4.18Apr17-6-g9f103f2a35 (build Nov 01 2019 12:17:22) complex          
  
 executed on             LinuxIFC date 2023.05.19  18:21:56
 running on   16 total cores
 distrk:  each k-point on   16 cores,    1 groups
 distr:  one band on NCORES_PER_BAND=   4 cores,    4 groups


--------------------------------------------------------------------------------------------------------


 INCAR:
 POTCAR:    PAW_PBE N 08Apr2002                   
 POTCAR:    PAW_PBE Si 05Jan2001                  
 POTCAR:    PAW_PBE N 08Apr2002                   
   VRHFIN =N: s2p3                                                              
   LEXCH  = PE                                                                  
   EATOM  =   264.5486 eV,   19.4438 Ry                                         
                                                                                
   TITEL  = PAW_PBE N 08Apr2002                                                 
   LULTRA =        F    use ultrasoft PP ?                                      
   IUNSCR =        1    unscreen: 0-lin 1-nonlin 2-no                           
   RPACOR =    1.200    partial core radius                                     
   POMASS =   14.001; ZVAL   =    5.000    mass and valenz                      
   RCORE  =    1.500    outmost cutoff radius                                   
   RWIGS  =    1.400; RWIGS  =    0.741    wigner-seitz radius (au A)           
   ENMAX  =  400.000; ENMIN  =  300.000 eV                                      
   ICORE  =        2    local potential                                         
   LCOR   =        T    correct aug charges                                     
   LPAW   =        T    paw PP                                                  
   EAUG   =  627.112                                                            
   DEXC   =    0.000                                                            
   RMAX   =    1.529    core radius for proj-oper                               
   RAUG   =    1.300    factor for augmentation sphere                          
   RDEP   =    1.514    radius for radial grids                                 
   RDEPT  =    1.338    core radius for aug-charge                              
                                                                                
   Atomic configuration                                                         
    4 entries                                                                   
     n  l   j            E        occ.                                          
     1  0  0.50      -384.7179   2.0000                                         
     2  0  0.50       -18.5828   2.0000                                         
     2  1  0.50        -7.0898   3.0000                                         
     3  2  1.50        -6.8029   0.0000                                         
   Description                                                                  
     l       E           TYP  RCUT    TYP  RCUT                                 
     0    -18.5828119     23  1.200                                             
     0    -13.5018863     23  1.200                                             
     1     -7.0897853     23  1.500                                             
     1      9.5240782     23  1.500                                             
     2     -6.8029130      7  1.500                                             
  local pseudopotential read in
  partial core-charges read in
  partial kinetic energy density read in
  atomic valenz-charges read in
  non local Contribution for L=           0  read in
    real space projection operators read in
  non local Contribution for L=           0  read in
    real space projection operators read in
  non local Contribution for L=           1  read in
    real space projection operators read in
  non local Contribution for L=           1  read in
    real space projection operators read in
    PAW grid and wavefunctions read in
 
   number of l-projection  operators is LMAX  =           4
   number of lm-projection operators is LMMAX =           8
 
 POTCAR:    PAW_PBE Si 05Jan2001                  
   VRHFIN =Si: s2p2                                                             
   LEXCH  = PE                                                                  
   EATOM  =   103.0669 eV,    7.5752 Ry                                         
                                                                                
   TITEL  = PAW_PBE Si 05Jan2001                                                
   LULTRA =        F    use ultrasoft PP ?                                      
   IUNSCR =        1    unscreen: 0-lin 1-nonlin 2-no                           
   RPACOR =    1.500    partial core radius                                     
   POMASS =   28.085; ZVAL   =    4.000    mass and valenz                      
   RCORE  =    1.900    outmost cutoff radius                                   
   RWIGS  =    2.480; RWIGS  =    1.312    wigner-seitz radius (au A)           
   ENMAX  =  245.345; ENMIN  =  184.009 eV                                      
   ICORE  =        2    local potential                                         
   LCOR   =        T    correct aug charges                                     
   LPAW   =        T    paw PP                                                  
   EAUG   =  322.069                                                            
   DEXC   =    0.000                                                            
   RMAX   =    1.950    core radius for proj-oper                               
   RAUG   =    1.300    factor for augmentation sphere                          
   RDEP   =    1.993    radius for radial grids                                 
   RDEPT  =    1.837    core radius for aug-charge                              
                                                                                
   Atomic configuration                                                         
    6 entries                                                                   
     n  l   j            E        occ.                                          
     1  0  0.50     -1785.8828   2.0000                                         
     2  0  0.50      -139.4969   2.0000                                         
     2  1  1.50       -95.5546   6.0000                                         
     3  0  0.50       -10.8127   2.0000                                         
     3  1  0.50        -4.0811   2.0000                                         
     3  2  1.50        -4.0817   0.0000                                         
   Description                                                                  
     l       E           TYP  RCUT    TYP  RCUT                                 
     0    -10.8127223     23  1.900                                             
     0     -7.6451159     23  1.900                                             
     1     -4.0811372     23  1.900                                             
     1      2.4879257     23  1.900                                             
     2     -4.0817478      7  1.900                                             
  local pseudopotential read in
  partial core-charges read in
  partial kinetic energy density read in
  atomic valenz-charges read in
  non local Contribution for L=           0  read in
    real space projection operators read in
  non local Contribution for L=           0  read in
    real space projection operators read in
  non local Contribution for L=           1  read in
    real space projection operators read in
  non local Contribution for L=           1  read in
    real space projection operators read in
    PAW grid and wavefunctions read in
 
   number of l-projection  operators is LMAX  =           4
   number of lm-projection operators is LMMAX =           8
 
 Optimization of the real space projectors (new method)

 maximal supplied QI-value         = 25.13
 optimisation between [QCUT,QGAM] = [ 10.05, 20.36] = [ 28.30,116.06] Ry 
 Optimized for a Real-space Cutoff    1.70 Angstroem

   l    n(q)    QCUT    max X(q) W(low)/X(q) W(high)/X(q)  e(spline) 
   0     10    10.053    79.467    0.61E-04    0.98E-04    0.61E-06
   0     10    10.053    66.151    0.60E-04    0.98E-04    0.61E-06
   1     10    10.053     8.350    0.17E-03    0.71E-03    0.45E-05
   1     10    10.053     5.531    0.18E-03    0.77E-03    0.49E-05
 Optimization of the real space projectors (new method)

 maximal supplied QI-value         = 19.84
 optimisation between [QCUT,QGAM] = [ 10.12, 20.44] = [ 28.68,116.96] Ry 
 Optimized for a Real-space Cutoff    1.38 Angstroem

   l    n(q)    QCUT    max X(q) W(low)/X(q) W(high)/X(q)  e(spline) 
   0      8    10.119   159.560    0.58E-04    0.11E-03    0.54E-07
   0      8    10.119   115.863    0.56E-04    0.11E-03    0.54E-07
   1      8    10.119    88.339    0.22E-03    0.17E-03    0.19E-06
   1      8    10.119    48.592    0.22E-03    0.17E-03    0.18E-06
  PAW_PBE N 08Apr2002                   :
 energy of atom  1       EATOM= -264.5486
 kinetic energy error for atom=    0.0736 (will be added to EATOM!!)
  PAW_PBE Si 05Jan2001                  :
 energy of atom  2       EATOM= -103.0669
 kinetic energy error for atom=    0.0012 (will be added to EATOM!!)
 
 
 POSCAR: Si24 N32                                
  positions in direct lattice
  No initial velocities read in
 exchange correlation table for  LEXCH =        8
   RHO(1)=    0.500       N(1)  =     2000
   RHO(2)=  100.500       N(2)  =     4000
 


--------------------------------------------------------------------------------------------------------


 ion  position               nearest neighbor table
   1  0.875  0.875  0.125-  26 2.11  28 2.11  47 2.11  49 2.11  54 2.11  56 2.11
   2  0.375  0.125  0.375-  25 2.11  27 2.11  29 2.11  31 2.11  32 2.11  42 2.11
   3  0.625  0.875  0.375-  27 2.11  31 2.11  44 2.11  49 2.11  53 2.11  54 2.11
   4  0.125  0.125  0.125-  26 2.11  28 2.11  29 2.11  30 2.11  32 2.11  43 2.11
   5  0.250  0.750  0.250-  28 1.80  50 1.80  31 1.80  51 1.80
   6  0.000  0.000  0.500-  38 1.80  48 1.80  29 1.80  49 1.80
   7  0.875  0.375  0.625-  34 2.11  36 2.11  41 2.11  46 2.11  48 2.11  55 2.11
   8  0.375  0.625  0.875-  33 2.11  35 2.11  37 2.11  39 2.11  40 2.11  50 2.11
   9  0.625  0.375  0.875-  35 2.11  39 2.11  41 2.11  45 2.11  46 2.11  52 2.11
  10  0.125  0.625  0.625-  34 2.11  36 2.11  37 2.11  38 2.11  40 2.11  51 2.11
  11  0.250  0.250  0.750-  36 1.80  42 1.80  39 1.80  43 1.80
  12  0.000  0.500  0.000-  30 1.80  56 1.80  41 1.80  37 1.80
  13  0.375  0.875  0.625-  31 2.11  33 2.11  38 2.11  40 2.11  42 2.11  44 2.11
  14  0.875  0.125  0.875-  26 2.11  41 2.11  43 2.11  45 2.11  47 2.11  48 2.11
  15  0.125  0.875  0.875-  28 2.11  33 2.11  37 2.11  38 2.11  43 2.11  47 2.11
  16  0.625  0.125  0.625-  27 2.11  42 2.11  44 2.11  45 2.11  46 2.11  48 2.11
  17  0.750  0.750  0.750-  34 1.80  44 1.80  35 1.80  47 1.80
  18  0.500  0.000  0.000-  32 1.80  54 1.80  45 1.80  33 1.80
  19  0.375  0.375  0.125-  25 2.11  30 2.11  32 2.11  39 2.11  50 2.11  52 2.11
  20  0.875  0.625  0.375-  34 2.11  49 2.11  51 2.11  53 2.11  55 2.11  56 2.11
  21  0.125  0.375  0.375-  25 2.11  29 2.11  30 2.11  36 2.11  51 2.11  55 2.11
  22  0.625  0.625  0.125-  35 2.11  50 2.11  52 2.11  53 2.11  54 2.11  56 2.11
  23  0.750  0.250  0.250-  26 1.80  52 1.80  27 1.80  55 1.80
  24  0.500  0.500  0.500-  40 1.80  46 1.80  25 1.80  53 1.80
  25  0.376  0.376  0.376-  24 1.80  19 2.11  21 2.11   2 2.11  40 2.94  46 2.94  53 2.94  51 2.97
                            27 2.97  50 2.97  42 2.97  52 2.97  36 2.97  32 3.00  29 3.00  30 3.00
  26  0.874  0.126  0.126-  23 1.80   4 2.11  14 2.11   1 2.11  27 2.94  52 2.94  55 2.94  41 2.97
                            45 2.97  49 2.97  29 2.97  54 2.97  30 2.97  28 3.00  43 3.00  47 3.00
  27  0.626  0.126  0.374-  23 1.80   3 2.11  16 2.11   2 2.11  26 2.94  52 2.94  55 2.94  25 2.97
                            49 2.97  32 2.97  46 2.97  54 2.97  48 2.97  31 3.00  42 3.00  44 3.00
  28  0.126  0.874  0.126-   5 1.80   4 2.11   1 2.11  15 2.11  50 2.94  51 2.94  31 2.94  33 2.97
                            37 2.97  49 2.97  29 2.97  32 2.97  56 2.97  26 3.00  43 3.00  47 3.00
  29  0.124  0.124  0.376-   6 1.80   4 2.11   2 2.11  21 2.11  38 2.94  48 2.94  49 2.94  31 2.97
                            55 2.97  42 2.97  26 2.97  36 2.97  28 2.97  30 3.00  25 3.00  32 3.00
  30  0.124  0.376  0.124-  12 1.80   4 2.11  19 2.11  21 2.11  37 2.94  56 2.94  41 2.94  26 2.97
                            43 2.97  50 2.97  51 2.97  55 2.97  39 2.97  32 3.00  29 3.00  25 3.00
  31  0.374  0.874  0.374-   5 1.80   3 2.11   2 2.11  13 2.11  28 2.94  50 2.94  51 2.94  29 2.97
                            53 2.97  32 2.97  38 2.97  40 2.97  54 2.97  42 3.00  44 3.00  27 3.00
  32  0.376  0.124  0.124-  18 1.80   4 2.11   2 2.11  19 2.11  45 2.94  54 2.94  33 2.94  27 2.97
                            39 2.97  43 2.97  28 2.97  52 2.97  31 2.97  30 3.00  25 3.00  29 3.00
  33  0.376  0.876  0.876-  18 1.80  13 2.11  15 2.11   8 2.11  32 2.94  54 2.94  45 2.94  35 2.97
                            43 2.97  44 2.97  42 2.97  50 2.97  28 2.97  37 3.00  38 3.00  40 3.00
  34  0.874  0.626  0.626-  17 1.80  10 2.11   7 2.11  20 2.11  35 2.94  44 2.94  47 2.94  41 2.97
                            37 2.97  46 2.97  38 2.97  49 2.97  53 2.97  36 3.00  51 3.00  55 3.00
  35  0.626  0.626  0.874-  17 1.80   9 2.11   8 2.11  22 2.11  34 2.94  44 2.94  47 2.94  33 2.97
                            41 2.97  46 2.97  40 2.97  54 2.97  56 2.97  52 3.00  39 3.00  50 3.00
  36  0.126  0.374  0.626-  11 1.80  10 2.11   7 2.11  21 2.11  42 2.94  43 2.94  39 2.94  25 2.97
                            40 2.97  41 2.97  29 2.97  37 2.97  48 2.97  34 3.00  51 3.00  55 3.00
  37  0.124  0.624  0.876-  12 1.80  10 2.11   8 2.11  15 2.11  30 2.94  56 2.94  41 2.94  47 2.97
                            39 2.97  34 2.97  36 2.97  50 2.97  28 2.97  33 3.00  40 3.00  38 3.00
  38  0.124  0.876  0.624-   6 1.80  10 2.11  13 2.11  15 2.11  29 2.94  48 2.94  49 2.94  42 2.97
                            43 2.97  47 2.97  31 2.97  34 2.97  51 2.97  40 3.00  37 3.00  33 3.00
  39  0.374  0.374  0.874-  11 1.80   9 2.11   8 2.11  19 2.11  36 2.94  42 2.94  43 2.94  37 2.97
                            45 2.97  30 2.97  32 2.97  40 2.97  46 2.97  35 3.00  50 3.00  52 3.00
  40  0.376  0.624  0.624-  24 1.80  10 2.11  13 2.11   8 2.11  46 2.94  53 2.94  25 2.94  36 2.97
                            39 2.97  44 2.97  31 2.97  51 2.97  35 2.97  38 3.00  33 3.00  37 3.00
  41  0.876  0.376  0.876-  12 1.80   9 2.11   7 2.11  14 2.11  30 2.94  56 2.94  37 2.94  43 2.97
                            35 2.97  34 2.97  26 2.97  52 2.97  36 2.97  48 3.00  45 3.00  46 3.00
  42  0.374  0.126  0.626-  11 1.80   2 2.11  13 2.11  16 2.11  36 2.94  43 2.94  39 2.94  25 2.97
                            38 2.97  29 2.97  33 2.97  45 2.97  46 2.97  44 3.00  27 3.00  31 3.00
  43  0.126  0.126  0.874-  11 1.80   4 2.11  14 2.11  15 2.11  36 2.94  42 2.94  39 2.94  41 2.97
                            33 2.97  30 2.97  32 2.97  38 2.97  48 2.97  28 3.00  47 3.00  26 3.00
  44  0.626  0.874  0.626-  17 1.80  13 2.11  16 2.11   3 2.11  34 2.94  35 2.94  47 2.94  40 2.97
                            45 2.97  33 2.97  48 2.97  49 2.97  53 2.97  42 3.00  27 3.00  31 3.00
  45  0.624  0.124  0.876-  18 1.80  14 2.11  16 2.11   9 2.11  32 2.94  54 2.94  33 2.94  47 2.97
                            39 2.97  44 2.97  26 2.97  52 2.97  42 2.97  48 3.00  46 3.00  41 3.00
  46  0.624  0.376  0.624-  24 1.80   9 2.11  16 2.11   7 2.11  40 2.94  53 2.94  25 2.94  35 2.97
                            39 2.97  27 2.97  42 2.97  34 2.97  55 2.97  48 3.00  45 3.00  41 3.00
  47  0.874  0.874  0.874-  17 1.80  14 2.11  15 2.11   1 2.11  34 2.94  44 2.94  35 2.94  37 2.97
                            45 2.97  38 2.97  48 2.97  54 2.97  56 2.97  43 3.00  26 3.00  28 3.00
  48  0.876  0.124  0.624-   6 1.80   7 2.11  14 2.11  16 2.11  29 2.94  38 2.94  49 2.94  27 2.97
                            43 2.97  44 2.97  47 2.97  36 2.97  55 2.97  46 3.00  41 3.00  45 3.00
  49  0.876  0.876  0.376-   6 1.80   3 2.11   1 2.11  20 2.11  38 2.94  48 2.94  29 2.94  27 2.97
                            51 2.97  28 2.97  44 2.97  26 2.97  34 2.97  53 3.00  54 3.00  56 3.00
  50  0.374  0.626  0.126-   5 1.80   8 2.11  19 2.11  22 2.11  28 2.94  51 2.94  31 2.94  25 2.97
                            33 2.97  37 2.97  30 2.97  53 2.97  54 2.97  52 3.00  35 3.00  39 3.00
  51  0.126  0.626  0.374-   5 1.80  10 2.11  20 2.11  21 2.11  28 2.94  50 2.94  31 2.94  49 2.97
                            25 2.97  40 2.97  30 2.97  38 2.97  56 2.97  36 3.00  55 3.00  34 3.00
  52  0.626  0.374  0.126-  23 1.80  19 2.11  22 2.11   9 2.11  26 2.94  27 2.94  55 2.94  32 2.97
                            41 2.97  45 2.97  53 2.97  25 2.97  56 2.97  50 3.00  35 3.00  39 3.00
  53  0.624  0.624  0.376-  24 1.80  20 2.11  22 2.11   3 2.11  40 2.94  46 2.94  25 2.94  31 2.97
                            55 2.97  34 2.97  50 2.97  52 2.97  44 2.97  54 3.00  49 3.00  56 3.00
  54  0.624  0.876  0.124-  18 1.80   3 2.11   1 2.11  22 2.11  32 2.94  45 2.94  33 2.94  26 2.97
                            27 2.97  35 2.97  31 2.97  47 2.97  50 2.97  56 3.00  53 3.00  49 3.00
  55  0.874  0.374  0.374-  23 1.80  20 2.11  21 2.11   7 2.11  26 2.94  52 2.94  27 2.94  29 2.97
                            53 2.97  48 2.97  30 2.97  46 2.97  56 2.97  34 3.00  36 3.00  51 3.00
  56  0.876  0.624  0.124-  12 1.80   1 2.11  20 2.11  22 2.11  30 2.94  37 2.94  41 2.94  28 2.97
                            35 2.97  47 2.97  51 2.97  52 2.97  55 2.97  54 3.00  49 3.00  53 3.00
 
  LATTYP: Found a simple cubic cell.
 ALAT       =     8.4099032843
  
  Lattice vectors:
  
 A1 = (   8.4099032843,   0.0000000000,   0.0000000000)
 A2 = (   0.0000000000,   8.4099032843,   0.0000000000)
 A3 = (   0.0000000000,   0.0000000000,   8.4099032843)


Analysis of symmetry for initial positions (statically):
=====================================================================
 Subroutine PRICEL returns following result:
 
  LATTYP: Found a face centered cubic cell.
 ALAT       =     8.4099032843
  
  Lattice vectors:
  
 A1 = (   4.2049516422,   4.2049516422,   0.0000000000)
 A2 = (   4.2049516422,   0.0000000000,  -4.2049516422)
 A3 = (   0.0000000000,   4.2049516422,  -4.2049516422)
 
   4 primitive cells build up your supercell.
 

 Routine SETGRP: Setting up the symmetry group for a 
 simple cubic supercell.


 Subroutine GETGRP returns: Found 48 space group operations
 (whereof 24 operations were pure point group operations)
 out of a pool of 48 trial point group operations.


The static configuration has the point symmetry T_d .
 The point group associated with its full space group is O_h .


Analysis of symmetry for dynamics (positions and initial velocities):
=====================================================================
 Subroutine PRICEL returns following result:
 
  LATTYP: Found a face centered cubic cell.
 ALAT       =     8.4099032843
  
  Lattice vectors:
  
 A1 = (   4.2049516422,   4.2049516422,   0.0000000000)
 A2 = (   4.2049516422,   0.0000000000,  -4.2049516422)
 A3 = (   0.0000000000,   4.2049516422,  -4.2049516422)
 
   4 primitive cells build up your supercell.
 

 Routine SETGRP: Setting up the symmetry group for a 
 simple cubic supercell.


 Subroutine GETGRP returns: Found 48 space group operations
 (whereof 24 operations were pure point group operations)
 out of a pool of 48 trial point group operations.


The dynamic configuration has the point symmetry T_d .
 The point group associated with its full space group is O_h .


 Subroutine INISYM returns: Found 48 space group operations
 (whereof 24 operations are pure point group operations),
 and found     4 'primitive' translations

 
 
 KPOINTS: Automatic mesh                          

Automatic generation of k-mesh.
 generate k-points for:    5    5    5
Space group operators:
 irot       det(A)        alpha          n_x          n_y          n_z        tau_x        tau_y        tau_z
    1     1.000000     0.000001     1.000000     0.000000     0.000000     0.000000     0.000000    -0.000000
    2     1.000000   120.000000    -0.577350    -0.577350    -0.577350     0.000000     0.000000    -0.000000
    3     1.000000   120.000000     0.577350     0.577350     0.577350     0.000000     0.000000    -0.000000
    4    -1.000000    90.000000     0.000000     0.000000    -1.000000     0.000000     0.000000    -0.000000
    5    -1.000000   180.000000     0.000000    -0.707107    -0.707107     0.000000     0.000000    -0.000000
    6    -1.000000    90.000000     0.000000     1.000000     0.000000     0.000000     0.000000    -0.000000
    7     1.000000   180.000000    -0.000000    -0.000000     1.000000     0.000000     0.000000    -0.000000
    8     1.000000   120.000000    -0.577350     0.577350     0.577350     0.000000     0.000000    -0.000000
    9     1.000000   120.000000    -0.577350     0.577350    -0.577350     0.000000     0.000000    -0.000000
   10    -1.000000    90.000000    -0.000000    -0.000000     1.000000     0.000000     0.000000    -0.000000
   11    -1.000000    90.000000    -1.000000     0.000000    -0.000000     0.000000     0.000000    -0.000000
   12    -1.000000   180.000000    -0.707107     0.000000    -0.707107     0.000000     0.000000    -0.000000
   13     1.000000   120.000000     0.577350    -0.577350     0.577350     0.000000     0.000000    -0.000000
   14     1.000000   120.000000    -0.577350    -0.577350     0.577350     0.000000     0.000000    -0.000000
   15     1.000000   180.000000     1.000000     0.000000     0.000000     0.000000     0.000000    -0.000000
   16    -1.000000    90.000000    -0.000000    -1.000000     0.000000     0.000000     0.000000    -0.000000
   17    -1.000000   180.000000     0.707107     0.707107     0.000000     0.000000     0.000000    -0.000000
   18    -1.000000    90.000000     1.000000    -0.000000    -0.000000     0.000000     0.000000    -0.000000
   19     1.000000   120.000000     0.577350    -0.577350    -0.577350     0.000000     0.000000    -0.000000
   20     1.000000   180.000000    -0.000000     1.000000     0.000000     0.000000     0.000000    -0.000000
   21     1.000000   120.000000     0.577350     0.577350    -0.577350     0.000000     0.000000    -0.000000
   22    -1.000000   179.999999    -0.000000    -0.707107     0.707107     0.000000     0.000000    -0.000000
   23    -1.000000   180.000000     0.707107    -0.707107     0.000000     0.000000     0.000000    -0.000000
   24    -1.000000   179.999999     0.707107    -0.000000    -0.707107     0.000000     0.000000    -0.000000
   25    -1.000000     0.000001     1.000000     0.000000     0.000000     0.750000     0.750000    -0.750000
   26    -1.000000   120.000000    -0.577350    -0.577350    -0.577350     0.750000     0.750000    -0.750000
   27    -1.000000   120.000000     0.577350     0.577350     0.577350     0.750000     0.750000    -0.750000
   28     1.000000    90.000000     0.000000     0.000000    -1.000000     0.750000     0.750000    -0.750000
   29     1.000000   180.000000     0.000000    -0.707107    -0.707107     0.750000     0.750000    -0.750000
   30     1.000000    90.000000     0.000000     1.000000     0.000000     0.750000     0.750000    -0.750000
   31    -1.000000   180.000000    -0.000000    -0.000000     1.000000     0.750000     0.750000    -0.750000
   32    -1.000000   120.000000    -0.577350     0.577350     0.577350     0.750000     0.750000    -0.750000
   33    -1.000000   120.000000    -0.577350     0.577350    -0.577350     0.750000     0.750000    -0.750000
   34     1.000000    90.000000    -0.000000    -0.000000     1.000000     0.750000     0.750000    -0.750000
   35     1.000000    90.000000    -1.000000     0.000000    -0.000000     0.750000     0.750000    -0.750000
   36     1.000000   180.000000    -0.707107     0.000000    -0.707107     0.750000     0.750000    -0.750000
   37    -1.000000   120.000000     0.577350    -0.577350     0.577350     0.750000     0.750000    -0.750000
   38    -1.000000   120.000000    -0.577350    -0.577350     0.577350     0.750000     0.750000    -0.750000
   39    -1.000000   180.000000     1.000000     0.000000     0.000000     0.750000     0.750000    -0.750000
   40     1.000000    90.000000    -0.000000    -1.000000     0.000000     0.750000     0.750000    -0.750000
   41     1.000000   180.000000     0.707107     0.707107     0.000000     0.750000     0.750000    -0.750000
   42     1.000000    90.000000     1.000000    -0.000000    -0.000000     0.750000     0.750000    -0.750000
   43    -1.000000   120.000000     0.577350    -0.577350    -0.577350     0.750000     0.750000    -0.750000
   44    -1.000000   180.000000    -0.000000     1.000000     0.000000     0.750000     0.750000    -0.750000
   45    -1.000000   120.000000     0.577350     0.577350    -0.577350     0.750000     0.750000    -0.750000
   46     1.000000   179.999999    -0.000000    -0.707107     0.707107     0.750000     0.750000    -0.750000
   47     1.000000   180.000000     0.707107    -0.707107     0.000000     0.750000     0.750000    -0.750000
   48     1.000000   179.999999     0.707107    -0.000000    -0.707107     0.750000     0.750000    -0.750000
 
 Subroutine IBZKPT returns following result:
 ===========================================
 
 Found     10 irreducible k-points:
 
 Following reciprocal coordinates:
            Coordinates               Weight
  0.000000  0.000000  0.000000      1.000000
  0.200000  0.000000  0.000000      6.000000
  0.400000  0.000000  0.000000      6.000000
  0.200000  0.200000  0.000000     12.000000
  0.400000  0.200000  0.000000     24.000000
  0.400000  0.400000  0.000000     12.000000
  0.200000  0.200000  0.200000      8.000000
  0.400000  0.200000  0.200000     24.000000
  0.400000  0.400000  0.200000     24.000000
  0.400000  0.400000  0.400000      8.000000
 
 Following cartesian coordinates:
            Coordinates               Weight
  0.000000  0.000000  0.000000      1.000000
  0.023781  0.000000  0.000000      6.000000
  0.047563  0.000000  0.000000      6.000000
  0.023781  0.023781  0.000000     12.000000
  0.047563  0.023781  0.000000     24.000000
  0.047563  0.047563  0.000000     12.000000
  0.023781  0.023781  0.023781      8.000000
  0.047563  0.023781  0.023781     24.000000
  0.047563  0.047563  0.023781     24.000000
  0.047563  0.047563  0.047563      8.000000
 


--------------------------------------------------------------------------------------------------------




 Dimension of arrays:
   k-points           NKPTS =     10   k-points in BZ     NKDIM =     10   number of bands    NBANDS=    156
   number of dos      NEDOS =    301   number of ions     NIONS =     56
   non local maximal  LDIM  =      4   non local SUM 2l+1 LMDIM =      8
   total plane-waves  NPLWV = 175616
   max r-space proj   IRMAX =   6103   max aug-charges    IRDMAX=  10070
   dimension x,y,z NGX =    56 NGY =   56 NGZ =   56
   dimension x,y,z NGXF=   112 NGYF=  112 NGZF=  112
   support grid    NGXF=   112 NGYF=  112 NGZF=  112
   ions per type =              24  32
   NGX,Y,Z   is equivalent  to a cutoff of  11.07, 11.07, 11.07 a.u.
   NGXF,Y,Z  is equivalent  to a cutoff of  22.14, 22.14, 22.14 a.u.

 SYSTEM =  unknown system                          
 POSCAR =  Si24 N32                                

 Startparameter for this run:
   NWRITE =      2    write-flag & timer
   PREC   = accura    normal or accurate (medium, high low for compatibility)
   ISTART =      0    job   : 0-new  1-cont  2-samecut
   ICHARG =      2    charge: 1-file 2-atom 10-const
   ISPIN  =      1    spin polarized calculation?
   LNONCOLLINEAR =      F non collinear calculations
   LSORBIT =      F    spin-orbit coupling
   INIWAV =      1    electr: 0-lowe 1-rand  2-diag
   LASPH  =      F    aspherical Exc in radial PAW
   METAGGA=      F    non-selfconsistent MetaGGA calc.

 Electronic Relaxation 1
   ENCUT  =  400.0 eV  29.40 Ry    5.42 a.u.  13.71 13.71 13.71*2*pi/ulx,y,z
   ENINI  =  400.0     initial cutoff
   ENAUG  =  627.1 eV  augmentation charge cutoff
   NELM   =     60;   NELMIN=  2; NELMDL= -5     # of ELM steps 
   EDIFF  = 0.1E-03   stopping-criterion for ELM
   LREAL  =      T    real-space projection
   NLSPLINE    = F    spline interpolate recip. space projectors
   LCOMPAT=      F    compatible to vasp.4.4
   GGA_COMPAT  = T    GGA compatible to vasp.4.4-vasp.4.6
   LMAXPAW     = -100 max onsite density
   LMAXMIX     =    2 max onsite mixed and CHGCAR
   VOSKOWN=      0    Vosko Wilk Nusair interpolation
   ROPT   =   -0.00025  -0.00025
 Ionic relaxation
   EDIFFG = 0.1E-02   stopping-criterion for IOM
   NSW    =    100    number of steps for IOM
   NBLOCK =      1;   KBLOCK =    100    inner block; outer block 
   IBRION =      2    ionic relax: 0-MD 1-quasi-New 2-CG
   NFREE  =      1    steps in history (QN), initial steepest desc. (CG)
   ISIF   =      2    stress and relaxation
   IWAVPR =     11    prediction:  0-non 1-charg 2-wave 3-comb
   ISYM   =      2    0-nonsym 1-usesym 2-fastsym
   LCORR  =      T    Harris-Foulkes like correction to forces

   POTIM  = 0.5000    time-step for ionic-motion
   TEIN   =    0.0    initial temperature
   TEBEG  =    0.0;   TEEND  =   0.0 temperature during run
   SMASS  =  -3.00    Nose mass-parameter (am)
   estimated Nose-frequenzy (Omega)   =  0.10E-29 period in steps =****** mass=  -0.162E-26a.u.
   SCALEE = 1.0000    scale energy and forces
   NPACO  =    256;   APACO  = 16.0  distance and # of slots for P.C.
   PSTRESS=    0.0 pullay stress

  Mass of Ions in am
   POMASS =  14.00 28.09
  Ionic Valenz
   ZVAL   =   5.00  4.00
  Atomic Wigner-Seitz radii
   RWIGS  =  -1.00 -1.00
  virtual crystal weights 
   VCA    =   1.00  1.00
   NELECT =     248.0000    total number of electrons
   NUPDOWN=      -1.0000    fix difference up-down

 DOS related values:
   EMIN   =  10.00;   EMAX   =-10.00  energy-range for DOS
   EFERMI =   0.00
   ISMEAR =     2;   SIGMA  =   0.10  broadening in eV -4-tet -1-fermi 0-gaus

 Electronic relaxation 2 (details)
   IALGO  =     68    algorithm
   LDIAG  =      T    sub-space diagonalisation (order eigenvalues)
   LSUBROT=      F    optimize rotation matrix (better conditioning)
   TURBO    =      0    0=normal 1=particle mesh
   IRESTART =      0    0=no restart 2=restart with 2 vectors
   NREBOOT  =      0    no. of reboots
   NMIN     =      0    reboot dimension
   EREF     =   0.00    reference energy to select bands
   IMIX   =      4    mixing-type and parameters
     AMIX     =   0.40;   BMIX     =  1.00
     AMIX_MAG =   1.60;   BMIX_MAG =  1.00
     AMIN     =   0.10
     WC   =   100.;   INIMIX=   1;  MIXPRE=   1;  MAXMIX= -45

 Intra band minimization:
   WEIMIN = 0.0010     energy-eigenvalue tresh-hold
   EBREAK =  0.16E-06  absolut break condition
   DEPER  =   0.30     relativ break condition  

   TIME   =   0.40     timestep for ELM

  volume/ion in A,a.u.               =      10.62        71.68
  Fermi-wavevector in a.u.,A,eV,Ry     =   1.223022  2.311177 20.351372  1.495784
  Thomas-Fermi vector in A             =   2.358148
 
 Write flags
   LWAVE        =      F    write WAVECAR
   LDOWNSAMPLE  =      F    k-point downsampling of WAVECAR
   LCHARG       =      F    write CHGCAR
   LVTOT        =      F    write LOCPOT, total local potential
   LVHAR        =      F    write LOCPOT, Hartree potential only
   LELF         =      F    write electronic localiz. function (ELF)
   LORBIT       =      0    0 simple, 1 ext, 2 COOP (PROOUT), +10 PAW based schemes


 Dipole corrections
   LMONO  =      F    monopole corrections only (constant potential shift)
   LDIPOL =      F    correct potential (dipole corrections)
   IDIPOL =      0    1-x, 2-y, 3-z, 4-all directions 
   EPSILON=  1.0000000 bulk dielectric constant

 Exchange correlation treatment:
   GGA     =    --    GGA type
   LEXCH   =     8    internal setting for exchange type
   VOSKOWN=      0    Vosko Wilk Nusair interpolation
   LHFCALC =     F    Hartree Fock is set to
   LHFONE  =     F    Hartree Fock one center treatment
   AEXX    =    0.0000 exact exchange contribution

 Linear response parameters
   LEPSILON=     F    determine dielectric tensor
   LRPA    =     F    only Hartree local field effects (RPA)
   LNABLA  =     F    use nabla operator in PAW spheres
   LVEL    =     F    velocity operator in full k-point grid
   LINTERFAST=   F  fast interpolation
   KINTER  =     0    interpolate to denser k-point grid
   CSHIFT  =0.1000    complex shift for real part using Kramers Kronig
   OMEGAMAX=  -1.0    maximum frequency
   DEG_THRESHOLD= 0.2000000E-02 threshold for treating states as degnerate
   RTIME   =   -0.100 relaxation time in fs
  (WPLASMAI=    0.000 imaginary part of plasma frequency in eV, 0.658/RTIME)
   DFIELD  = 0.0000000 0.0000000 0.0000000 field for delta impulse in time
 
 Orbital magnetization related:
   ORBITALMAG=     F  switch on orbital magnetization
   LCHIMAG   =     F  perturbation theory with respect to B field
   DQ        =  0.001000  dq finite difference perturbation B field
   LLRAUG    =     F  two centre corrections for induced B field



--------------------------------------------------------------------------------------------------------


 conjugate gradient relaxation of ions
 charge density and potential will be updated during run
 non-spin polarized calculation
 RMM-DIIS sequential band-by-band and
  variant of blocked Davidson during initial phase
 perform sub-space diagonalisation
    before iterative eigenvector-optimisation
 modified Broyden-mixing scheme, WC =      100.0
 initial mixing is a Kerker type mixing with AMIX =  0.4000 and BMIX =      1.0000
 Hartree-type preconditioning will be used
 using additional bands           32
 real space projection scheme for non local part
 use partial core corrections
 calculate Harris-corrections to forces 
   (improved forces if not selfconsistent)
 use gradient corrections 
 use of overlap-Matrix (Vanderbilt PP)
 Methfessel and Paxton  Order N= 2 SIGMA  =   0.10


--------------------------------------------------------------------------------------------------------


  energy-cutoff  :      400.00
  volume of cell :      594.80
      direct lattice vectors                 reciprocal lattice vectors
     8.409903284  0.000000000  0.000000000     0.118907432 -0.000000000  0.000000000
     0.000000000  8.409903284  0.000000000    -0.000000000  0.118907432  0.000000000
     0.000000000  0.000000000  8.409903284    -0.000000000 -0.000000000  0.118907432

  length of vectors
     8.409903284  8.409903284  8.409903284     0.118907432  0.118907432  0.118907432


 
 k-points in units of 2pi/SCALE and weight: Automatic mesh                          
   0.00000000  0.00000000  0.00000000       0.008
   0.02378149  0.00000000  0.00000000       0.048
   0.04756297  0.00000000  0.00000000       0.048
   0.02378149  0.02378149  0.00000000       0.096
   0.04756297  0.02378149  0.00000000       0.192
   0.04756297  0.04756297  0.00000000       0.096
   0.02378149  0.02378149  0.02378149       0.064
   0.04756297  0.02378149  0.02378149       0.192
   0.04756297  0.04756297  0.02378149       0.192
   0.04756297  0.04756297  0.04756297       0.064
 
 k-points in reciprocal lattice and weights: Automatic mesh                          
   0.00000000  0.00000000  0.00000000       0.008
   0.20000000  0.00000000  0.00000000       0.048
   0.40000000  0.00000000  0.00000000       0.048
   0.20000000  0.20000000  0.00000000       0.096
   0.40000000  0.20000000  0.00000000       0.192
   0.40000000  0.40000000  0.00000000       0.096
   0.20000000  0.20000000  0.20000000       0.064
   0.40000000  0.20000000  0.20000000       0.192
   0.40000000  0.40000000  0.20000000       0.192
   0.40000000  0.40000000  0.40000000       0.064
 
 position of ions in fractional coordinates (direct lattice) 
   0.87500000  0.87500000  0.12500000
   0.37500000  0.12500000  0.37500000
   0.62500000  0.87500000  0.37500000
   0.12500000  0.12500000  0.12500000
   0.25000000  0.75000000  0.25000000
   0.00000000  0.00000000  0.50000000
   0.87500000  0.37500000  0.62500000
   0.37500000  0.62500000  0.87500000
   0.62500000  0.37500000  0.87500000
   0.12500000  0.62500000  0.62500000
   0.25000000  0.25000000  0.75000000
   0.00000000  0.50000000  0.00000000
   0.37500000  0.87500000  0.62500000
   0.87500000  0.12500000  0.87500000
   0.12500000  0.87500000  0.87500000
   0.62500000  0.12500000  0.62500000
   0.75000000  0.75000000  0.75000000
   0.50000000  0.00000000  0.00000000
   0.37500000  0.37500000  0.12500000
   0.87500000  0.62500000  0.37500000
   0.12500000  0.37500000  0.37500000
   0.62500000  0.62500000  0.12500000
   0.75000000  0.25000000  0.25000000
   0.50000000  0.50000000  0.50000000
   0.37630293  0.37630293  0.37630293
   0.87369707  0.12630293  0.12630293
   0.62630293  0.12630293  0.37369707
   0.12630293  0.87369707  0.12630293
   0.12369707  0.12369707  0.37630293
   0.12369707  0.37630293  0.12369707
   0.37369707  0.87369707  0.37369707
   0.37630293  0.12369707  0.12369707
   0.37630293  0.87630293  0.87630293
   0.87369707  0.62630293  0.62630293
   0.62630293  0.62630293  0.87369707
   0.12630293  0.37369707  0.62630293
   0.12369707  0.62369707  0.87630293
   0.12369707  0.87630293  0.62369707
   0.37369707  0.37369707  0.87369707
   0.37630293  0.62369707  0.62369707
   0.87630293  0.37630293  0.87630293
   0.37369707  0.12630293  0.62630293
   0.12630293  0.12630293  0.87369707
   0.62630293  0.87369707  0.62630293
   0.62369707  0.12369707  0.87630293
   0.62369707  0.37630293  0.62369707
   0.87369707  0.87369707  0.87369707
   0.87630293  0.12369707  0.62369707
   0.87630293  0.87630293  0.37630293
   0.37369707  0.62630293  0.12630293
   0.12630293  0.62630293  0.37369707
   0.62630293  0.37369707  0.12630293
   0.62369707  0.62369707  0.37630293
   0.62369707  0.87630293  0.12369707
   0.87369707  0.37369707  0.37369707
   0.87630293  0.62369707  0.12369707
 
 position of ions in cartesian coordinates  (Angst):
   7.35866537  7.35866537  1.05123791
   3.15371373  1.05123791  3.15371373
   5.25618955  7.35866537  3.15371373
   1.05123791  1.05123791  1.05123791
   2.10247582  6.30742746  2.10247582
   0.00000000  0.00000000  4.20495164
   7.35866537  3.15371373  5.25618955
   3.15371373  5.25618955  7.35866537
   5.25618955  3.15371373  7.35866537
   1.05123791  5.25618955  5.25618955
   2.10247582  2.10247582  6.30742746
   0.00000000  4.20495164  0.00000000
   3.15371373  7.35866537  5.25618955
   7.35866537  1.05123791  7.35866537
   1.05123791  7.35866537  7.35866537
   5.25618955  1.05123791  5.25618955
   6.30742746  6.30742746  6.30742746
   4.20495164  0.00000000  0.00000000
   3.15371373  3.15371373  1.05123791
   7.35866537  5.25618955  3.15371373
   1.05123791  3.15371373  3.15371373
   5.25618955  5.25618955  1.05123791
   6.30742746  2.10247582  2.10247582
   4.20495164  4.20495164  4.20495164
   3.16467128  3.16467128  3.16467128
   7.34770783  1.06219546  1.06219546
   5.26714710  1.06219546  3.14275619
   1.06219546  7.34770783  1.06219546
   1.04028037  1.04028037  3.16467128
   1.04028037  3.16467128  1.04028037
   3.14275619  7.34770783  3.14275619
   3.16467128  1.04028037  1.04028037
   3.16467128  7.36962292  7.36962292
   7.34770783  5.26714710  5.26714710
   5.26714710  5.26714710  7.34770783
   1.06219546  3.14275619  5.26714710
   1.04028037  5.24523201  7.36962292
   1.04028037  7.36962292  5.24523201
   3.14275619  3.14275619  7.34770783
   3.16467128  5.24523201  5.24523201
   7.36962292  3.16467128  7.36962292
   3.14275619  1.06219546  5.26714710
   1.06219546  1.06219546  7.34770783
   5.26714710  7.34770783  5.26714710
   5.24523201  1.04028037  7.36962292
   5.24523201  3.16467128  5.24523201
   7.34770783  7.34770783  7.34770783
   7.36962292  1.04028037  5.24523201
   7.36962292  7.36962292  3.16467128
   3.14275619  5.26714710  1.06219546
   1.06219546  5.26714710  3.14275619
   5.26714710  3.14275619  1.06219546
   5.24523201  5.24523201  3.16467128
   5.24523201  7.36962292  1.04028037
   7.34770783  3.14275619  3.14275619
   7.36962292  5.24523201  1.04028037
 


--------------------------------------------------------------------------------------------------------


 k-point  1 :   0.0000 0.0000 0.0000  plane waves:   10827
 k-point  2 :   0.2000 0.0000 0.0000  plane waves:   10807
 k-point  3 :   0.4000 0.0000 0.0000  plane waves:   10812
 k-point  4 :   0.2000 0.2000 0.0000  plane waves:   10821
 k-point  5 :   0.4000 0.2000 0.0000  plane waves:   10775
 k-point  6 :   0.4000 0.4000 0.0000  plane waves:   10802
 k-point  7 :   0.2000 0.2000 0.2000  plane waves:   10801
 k-point  8 :   0.4000 0.2000 0.2000  plane waves:   10815
 k-point  9 :   0.4000 0.4000 0.2000  plane waves:   10805
 k-point 10 :   0.4000 0.4000 0.4000  plane waves:   10843

 maximum and minimum number of plane-waves per node :      2732     2674

 maximum number of plane-waves:     10843
 maximum index in each direction: 
   IXMAX=   13   IYMAX=   13   IZMAX=   13
   IXMIN=  -14   IYMIN=  -14   IZMIN=  -14


 real space projection operators:
  total allocation   :      15086.50 KBytes
  max/ min on nodes  :       3792.50       3750.75


 parallel 3D FFT for wavefunctions:
    minimum data exchange during FFTs selected (reduces bandwidth)
 parallel 3D FFT for charge:
    minimum data exchange during FFTs selected (reduces bandwidth)


 total amount of memory used by VASP MPI-rank0    69123. kBytes
=======================================================================

   base      :      30000. kBytes
   nonlr-proj:      10409. kBytes
   fftplans  :       4302. kBytes
   grid      :       6748. kBytes
   one-center:         43. kBytes
   wavefun   :      17621. kBytes
 
     INWAV:  cpu time    0.0000: real time    0.0000
 Broyden mixing: mesh for mixing (old mesh)
   NGX = 27   NGY = 27   NGZ = 27
  (NGX  =112   NGY  =112   NGZ  =112)
  gives a total of  19683 points

 initial charge density was supplied:
 charge density of overlapping atoms calculated
 number of electron     248.0000000 magnetization 
 keeping initial charge density in first step


--------------------------------------------------------------------------------------------------------


 Maximum index for non-local projection operator         1486
 Maximum index for augmentation-charges          668 (set IRDMAX)


--------------------------------------------------------------------------------------------------------


 First call to EWALD:  gamma=   0.211
 Maximum number of real-space cells 3x 3x 3
 Maximum number of reciprocal cells 3x 3x 3

    FEWALD:  cpu time    0.0028: real time    0.0028


--------------------------------------- Iteration      1(   1)  ---------------------------------------


    POTLOK:  cpu time    0.0706: real time    0.0737
    SETDIJ:  cpu time    0.0075: real time    0.0075
     EDDAV:  cpu time    6.8644: real time    6.8635
       DOS:  cpu time    0.0016: real time    0.0016
    --------------------------------------------
      LOOP:  cpu time    6.9441: real time    6.9463

 eigenvalue-minimisations  :  3120
 total energy-change (2. order) : 0.8748507E+03  (-0.9969709E+04)
 number of electron     248.0000000 magnetization 
 augmentation part      248.0000000 magnetization 

 Free energy of the ion-electron system (eV)
  ---------------------------------------------------
  alpha Z        PSCENC =       327.92123070
  Ewald energy   TEWEN  =     -9890.80476668
  -Hartree energ DENC   =     -1473.50680849
  -exchange      EXHF   =         0.00000000
  -V(xc)+E(xc)   XCENC  =       204.29290069
  PAW double counting   =      7738.34714636    -7203.94574617
  entropy T*S    EENTRO =         0.00460080
  eigenvalues    EBANDS =      1527.03825127
  atomic energy  EATOM  =      9645.50393724
  Solvation  Ediel_sol  =         0.00000000
  ---------------------------------------------------
  free energy    TOTEN  =       874.85074571 eV

  energy without entropy =      874.84614491  energy(sigma->0) =      874.84959551


--------------------------------------------------------------------------------------------------------




--------------------------------------- Iteration      1(   2)  ---------------------------------------


     EDDAV:  cpu time    8.0880: real time    8.0881
       DOS:  cpu time    0.0018: real time    0.0018
    --------------------------------------------
      LOOP:  cpu time    8.0897: real time    8.0898

 eigenvalue-minimisations  :  3896
 total energy-change (2. order) :-0.1126137E+04  (-0.1080716E+04)
 number of electron     248.0000000 magnetization 
 augmentation part      248.0000000 magnetization 

 Free energy of the ion-electron system (eV)
  ---------------------------------------------------
  alpha Z        PSCENC =       327.92123070
  Ewald energy   TEWEN  =     -9890.80476668
  -Hartree energ DENC   =     -1473.50680849
  -exchange      EXHF   =         0.00000000
  -V(xc)+E(xc)   XCENC  =       204.29290069
  PAW double counting   =      7738.34714636    -7203.94574617
  entropy T*S    EENTRO =         0.00547415
  eigenvalues    EBANDS =       400.90005792
  atomic energy  EATOM  =      9645.50393724
  Solvation  Ediel_sol  =         0.00000000
  ---------------------------------------------------
  free energy    TOTEN  =      -251.28657429 eV

  energy without entropy =     -251.29204844  energy(sigma->0) =     -251.28794283


--------------------------------------------------------------------------------------------------------




--------------------------------------- Iteration      1(   3)  ---------------------------------------


     EDDAV:  cpu time    8.0876: real time    8.0881
       DOS:  cpu time    0.0017: real time    0.0017
    --------------------------------------------
      LOOP:  cpu time    8.0893: real time    8.0898

 eigenvalue-minimisations  :  3888
 total energy-change (2. order) :-0.1012251E+03  (-0.9705867E+02)
 number of electron     248.0000000 magnetization 
 augmentation part      248.0000000 magnetization 

 Free energy of the ion-electron system (eV)
  ---------------------------------------------------
  alpha Z        PSCENC =       327.92123070
  Ewald energy   TEWEN  =     -9890.80476668
  -Hartree energ DENC   =     -1473.50680849
  -exchange      EXHF   =         0.00000000
  -V(xc)+E(xc)   XCENC  =       204.29290069
  PAW double counting   =      7738.34714636    -7203.94574617
  entropy T*S    EENTRO =        -0.00071376
  eigenvalues    EBANDS =       299.68111563
  atomic energy  EATOM  =      9645.50393724
  Solvation  Ediel_sol  =         0.00000000
  ---------------------------------------------------
  free energy    TOTEN  =      -352.51170448 eV

  energy without entropy =     -352.51099072  energy(sigma->0) =     -352.51152604


--------------------------------------------------------------------------------------------------------




--------------------------------------- Iteration      1(   4)  ---------------------------------------


     EDDAV:  cpu time    8.2060: real time    8.2070
       DOS:  cpu time    0.0018: real time    0.0018
    --------------------------------------------
      LOOP:  cpu time    8.2078: real time    8.2088

 eigenvalue-minimisations  :  3968
 total energy-change (2. order) :-0.3473770E+01  (-0.3356859E+01)
 number of electron     248.0000000 magnetization 
 augmentation part      248.0000000 magnetization 

 Free energy of the ion-electron system (eV)
  ---------------------------------------------------
  alpha Z        PSCENC =       327.92123070
  Ewald energy   TEWEN  =     -9890.80476668
  -Hartree energ DENC   =     -1473.50680849
  -exchange      EXHF   =         0.00000000
  -V(xc)+E(xc)   XCENC  =       204.29290069
  PAW double counting   =      7738.34714636    -7203.94574617
  entropy T*S    EENTRO =        -0.00051282
  eigenvalues    EBANDS =       296.20714468
  atomic energy  EATOM  =      9645.50393724
  Solvation  Ediel_sol  =         0.00000000
  ---------------------------------------------------
  free energy    TOTEN  =      -355.98547450 eV

  energy without entropy =     -355.98496167  energy(sigma->0) =     -355.98534629


--------------------------------------------------------------------------------------------------------




--------------------------------------- Iteration      1(   5)  ---------------------------------------


     EDDAV:  cpu time    7.9448: real time    7.9465
       DOS:  cpu time    0.0018: real time    0.0018
    CHARGE:  cpu time    0.2892: real time    0.2892
    MIXING:  cpu time    0.0140: real time    0.0140
    --------------------------------------------
      LOOP:  cpu time    8.2498: real time    8.2515

 eigenvalue-minimisations  :  3824
 total energy-change (2. order) :-0.9726673E-01  (-0.9635002E-01)
 number of electron     248.0000135 magnetization 
 augmentation part       -1.0056614 magnetization 

 Broyden mixing:
  rms(total) = 0.38558E+01    rms(broyden)= 0.38551E+01
  rms(prec ) = 0.52031E+01
  weight for this iteration     100.00

 Free energy of the ion-electron system (eV)
  ---------------------------------------------------
  alpha Z        PSCENC =       327.92123070
  Ewald energy   TEWEN  =     -9890.80476668
  -Hartree energ DENC   =     -1473.50680849
  -exchange      EXHF   =         0.00000000
  -V(xc)+E(xc)   XCENC  =       204.29290069
  PAW double counting   =      7738.34714636    -7203.94574617
  entropy T*S    EENTRO =        -0.00008537
  eigenvalues    EBANDS =       296.10945050
  atomic energy  EATOM  =      9645.50393724
  Solvation  Ediel_sol  =         0.00000000
  ---------------------------------------------------
  free energy    TOTEN  =      -356.08274123 eV

  energy without entropy =     -356.08265586  energy(sigma->0) =     -356.08271988


--------------------------------------------------------------------------------------------------------




--------------------------------------- Iteration      1(   6)  ---------------------------------------


    POTLOK:  cpu time    0.0653: real time    0.0671
    SETDIJ:  cpu time    0.0075: real time    0.0075
    EDDIAG:  cpu time    0.7649: real time    0.7653
  RMM-DIIS:  cpu time    4.2997: real time    4.2993
    ORTHCH:  cpu time    0.1059: real time    0.1059
       DOS:  cpu time    0.0018: real time    0.0018
    CHARGE:  cpu time    0.2877: real time    0.2877
    MIXING:  cpu time    0.0018: real time    0.0018
    --------------------------------------------
      LOOP:  cpu time    5.5345: real time    5.5363

 eigenvalue-minimisations  :  3121
 total energy-change (2. order) : 0.2725371E+02  (-0.1474113E+02)
 number of electron     248.0000084 magnetization 
 augmentation part       -3.6356112 magnetization 

 Broyden mixing:
  rms(total) = 0.17469E+01    rms(broyden)= 0.17459E+01
  rms(prec ) = 0.18342E+01
  weight for this iteration     100.00

 eigenvalues of (default mixing * dielectric matrix)
  average eigenvalue GAMMA=   1.0175
  1.0175

 Free energy of the ion-electron system (eV)
  ---------------------------------------------------
  alpha Z        PSCENC =       327.92123070
  Ewald energy   TEWEN  =     -9890.80476668
  -Hartree energ DENC   =     -1736.26487173
  -exchange      EXHF   =         0.00000000
  -V(xc)+E(xc)   XCENC  =       222.02339052
  PAW double counting   =     13482.69772324   -12950.05504481
  entropy T*S    EENTRO =         0.01270306
  eigenvalues    EBANDS =       570.13666453
  atomic energy  EATOM  =      9645.50393724
  Solvation  Ediel_sol  =         0.00000000
  ---------------------------------------------------
  free energy    TOTEN  =      -328.82903392 eV

  energy without entropy =     -328.84173698  energy(sigma->0) =     -328.83220969


--------------------------------------------------------------------------------------------------------




--------------------------------------- Iteration      1(   7)  ---------------------------------------


    POTLOK:  cpu time    0.0645: real time    0.0662
    SETDIJ:  cpu time    0.0073: real time    0.0073
    EDDIAG:  cpu time    0.7632: real time    0.7633
  RMM-DIIS:  cpu time    4.5423: real time    4.5429
    ORTHCH:  cpu time    0.1057: real time    0.1057
       DOS:  cpu time    0.0018: real time    0.0018
    CHARGE:  cpu time    0.2907: real time    0.2907
    MIXING:  cpu time    0.0020: real time    0.0020
    --------------------------------------------
      LOOP:  cpu time    5.7775: real time    5.7799

 eigenvalue-minimisations  :  3307
 total energy-change (2. order) : 0.4649606E+00  (-0.4250284E+00)
 number of electron     248.0000081 magnetization 
 augmentation part       -3.7739264 magnetization 

 Broyden mixing:
  rms(total) = 0.99396E+00    rms(broyden)= 0.99387E+00
  rms(prec ) = 0.10601E+01
  weight for this iteration     100.00

 eigenvalues of (default mixing * dielectric matrix)
  average eigenvalue GAMMA=   1.5684
  1.0580  2.0788

 Free energy of the ion-electron system (eV)
  ---------------------------------------------------
  alpha Z        PSCENC =       327.92123070
  Ewald energy   TEWEN  =     -9890.80476668
  -Hartree energ DENC   =     -1725.20730598
  -exchange      EXHF   =         0.00000000
  -V(xc)+E(xc)   XCENC  =       221.73782274
  PAW double counting   =     17796.40983348   -17264.12501836
  entropy T*S    EENTRO =         0.01481835
  eigenvalues    EBANDS =       560.18537521
  atomic energy  EATOM  =      9645.50393724
  Solvation  Ediel_sol  =         0.00000000
  ---------------------------------------------------
  free energy    TOTEN  =      -328.36407330 eV

  energy without entropy =     -328.37889165  energy(sigma->0) =     -328.36777789


--------------------------------------------------------------------------------------------------------




--------------------------------------- Iteration      1(   8)  ---------------------------------------


    POTLOK:  cpu time    0.0655: real time    0.0670
    SETDIJ:  cpu time    0.0074: real time    0.0074
    EDDIAG:  cpu time    0.7674: real time    0.7673
  RMM-DIIS:  cpu time    4.3118: real time    4.3117
    ORTHCH:  cpu time    0.1071: real time    0.1071
       DOS:  cpu time    0.0019: real time    0.0018
    CHARGE:  cpu time    0.2874: real time    0.2874
    MIXING:  cpu time    0.0019: real time    0.0019
    --------------------------------------------
      LOOP:  cpu time    5.5504: real time    5.5517

 eigenvalue-minimisations  :  3121
 total energy-change (2. order) : 0.1006284E+00  (-0.2215628E+00)
 number of electron     248.0000086 magnetization 
 augmentation part       -3.5352853 magnetization 

 Broyden mixing:
  rms(total) = 0.20923E+00    rms(broyden)= 0.20915E+00
  rms(prec ) = 0.31464E+00
  weight for this iteration     100.00

 eigenvalues of (default mixing * dielectric matrix)
  average eigenvalue GAMMA=   1.3792
  2.2902  0.9237  0.9237

 Free energy of the ion-electron system (eV)
  ---------------------------------------------------
  alpha Z        PSCENC =       327.92123070
  Ewald energy   TEWEN  =     -9890.80476668
  -Hartree energ DENC   =     -1697.58689191
  -exchange      EXHF   =         0.00000000
  -V(xc)+E(xc)   XCENC  =       220.60763470
  PAW double counting   =     23566.83229733   -23034.95860701
  entropy T*S    EENTRO =         0.01378135
  eigenvalues    EBANDS =       534.20793944
  atomic energy  EATOM  =      9645.50393724
  Solvation  Ediel_sol  =         0.00000000
  ---------------------------------------------------
  free energy    TOTEN  =      -328.26344485 eV

  energy without entropy =     -328.27722620  energy(sigma->0) =     -328.26689019


--------------------------------------------------------------------------------------------------------




--------------------------------------- Iteration      1(   9)  ---------------------------------------


    POTLOK:  cpu time    0.0649: real time    0.0667
    SETDIJ:  cpu time    0.0074: real time    0.0074
    EDDIAG:  cpu time    0.7530: real time    0.7529
  RMM-DIIS:  cpu time    4.3488: real time    4.3490
    ORTHCH:  cpu time    0.1055: real time    0.1055
       DOS:  cpu time    0.0018: real time    0.0018
    CHARGE:  cpu time    0.2839: real time    0.2839
    MIXING:  cpu time    0.0019: real time    0.0019
    --------------------------------------------
      LOOP:  cpu time    5.5672: real time    5.5690

 eigenvalue-minimisations  :  3167
 total energy-change (2. order) : 0.1353128E+00  (-0.2048243E-01)
 number of electron     248.0000084 magnetization 
 augmentation part       -3.6214148 magnetization 

 Broyden mixing:
  rms(total) = 0.82848E-01    rms(broyden)= 0.82841E-01
  rms(prec ) = 0.11920E+00
  weight for this iteration     100.00

 eigenvalues of (default mixing * dielectric matrix)
  average eigenvalue GAMMA=   1.2763
  2.2981  0.9357  0.9357  0.9357

 Free energy of the ion-electron system (eV)
  ---------------------------------------------------
  alpha Z        PSCENC =       327.92123070
  Ewald energy   TEWEN  =     -9890.80476668
  -Hartree energ DENC   =     -1711.41774642
  -exchange      EXHF   =         0.00000000
  -V(xc)+E(xc)   XCENC  =       221.57741136
  PAW double counting   =     24149.83028212   -23618.07350578
  entropy T*S    EENTRO =         0.01474457
  eigenvalues    EBANDS =       547.32028087
  atomic energy  EATOM  =      9645.50393724
  Solvation  Ediel_sol  =         0.00000000
  ---------------------------------------------------
  free energy    TOTEN  =      -328.12813202 eV

  energy without entropy =     -328.14287659  energy(sigma->0) =     -328.13181816


--------------------------------------------------------------------------------------------------------




--------------------------------------- Iteration      1(  10)  ---------------------------------------


    POTLOK:  cpu time    0.0648: real time    0.0668
    SETDIJ:  cpu time    0.0073: real time    0.0073
    EDDIAG:  cpu time    0.7570: real time    0.7569
  RMM-DIIS:  cpu time    4.5407: real time    4.5401
    ORTHCH:  cpu time    0.1058: real time    0.1058
       DOS:  cpu time    0.0018: real time    0.0018
    CHARGE:  cpu time    0.2844: real time    0.2843
    MIXING:  cpu time    0.0020: real time    0.0020
    --------------------------------------------
      LOOP:  cpu time    5.7639: real time    5.7650

 eigenvalue-minimisations  :  3299
 total energy-change (2. order) : 0.9321649E-02  (-0.1244066E-01)
 number of electron     248.0000083 magnetization 
 augmentation part       -3.6854271 magnetization 

 Broyden mixing:
  rms(total) = 0.25225E-01    rms(broyden)= 0.25151E-01
  rms(prec ) = 0.28418E-01
  weight for this iteration     100.00

 eigenvalues of (default mixing * dielectric matrix)
  average eigenvalue GAMMA=   1.5522
  2.4184  2.4184  0.9252  0.9996  0.9996

 Free energy of the ion-electron system (eV)
  ---------------------------------------------------
  alpha Z        PSCENC =       327.92123070
  Ewald energy   TEWEN  =     -9890.80476668
  -Hartree energ DENC   =     -1717.52437620
  -exchange      EXHF   =         0.00000000
  -V(xc)+E(xc)   XCENC  =       222.00513436
  PAW double counting   =     24243.50153615   -23711.80117559
  entropy T*S    EENTRO =         0.01502260
  eigenvalues    EBANDS =       553.06464707
  atomic energy  EATOM  =      9645.50393724
  Solvation  Ediel_sol  =         0.00000000
  ---------------------------------------------------
  free energy    TOTEN  =      -328.11881037 eV

  energy without entropy =     -328.13383297  energy(sigma->0) =     -328.12256602


--------------------------------------------------------------------------------------------------------




--------------------------------------- Iteration      1(  11)  ---------------------------------------


    POTLOK:  cpu time    0.0647: real time    0.0667
    SETDIJ:  cpu time    0.0075: real time    0.0075
    EDDIAG:  cpu time    0.7488: real time    0.7489
  RMM-DIIS:  cpu time    4.5052: real time    4.5056
    ORTHCH:  cpu time    0.1056: real time    0.1056
       DOS:  cpu time    0.0018: real time    0.0018
    CHARGE:  cpu time    0.2841: real time    0.2841
    MIXING:  cpu time    0.0020: real time    0.0020
    --------------------------------------------
      LOOP:  cpu time    5.7198: real time    5.7223

 eigenvalue-minimisations  :  3271
 total energy-change (2. order) :-0.9399754E-03  (-0.5721124E-03)
 number of electron     248.0000083 magnetization 
 augmentation part       -3.6797329 magnetization 

 Broyden mixing:
  rms(total) = 0.10497E-01    rms(broyden)= 0.10493E-01
  rms(prec ) = 0.15655E-01
  weight for this iteration     100.00

 eigenvalues of (default mixing * dielectric matrix)
  average eigenvalue GAMMA=   1.4651
  2.5788  2.4422  0.9443  0.9443  0.9405  0.9405

 Free energy of the ion-electron system (eV)
  ---------------------------------------------------
  alpha Z        PSCENC =       327.92123070
  Ewald energy   TEWEN  =     -9890.80476668
  -Hartree energ DENC   =     -1716.43125099
  -exchange      EXHF   =         0.00000000
  -V(xc)+E(xc)   XCENC  =       221.97862245
  PAW double counting   =     24181.27516980   -23649.60337569
  entropy T*S    EENTRO =         0.01497493
  eigenvalues    EBANDS =       552.02570789
  atomic energy  EATOM  =      9645.50393724
  Solvation  Ediel_sol  =         0.00000000
  ---------------------------------------------------
  free energy    TOTEN  =      -328.11975035 eV

  energy without entropy =     -328.13472528  energy(sigma->0) =     -328.12349408


--------------------------------------------------------------------------------------------------------




--------------------------------------- Iteration      1(  12)  ---------------------------------------


    POTLOK:  cpu time    0.0662: real time    0.0664
    SETDIJ:  cpu time    0.0074: real time    0.0074
    EDDIAG:  cpu time    0.7508: real time    0.7506
  RMM-DIIS:  cpu time    4.5075: real time    4.5067
    ORTHCH:  cpu time    0.1054: real time    0.1054
       DOS:  cpu time    0.0018: real time    0.0018
    CHARGE:  cpu time    0.2862: real time    0.2862
    MIXING:  cpu time    0.0021: real time    0.0021
    --------------------------------------------
      LOOP:  cpu time    5.7275: real time    5.7266

 eigenvalue-minimisations  :  3292
 total energy-change (2. order) : 0.1460172E-03  (-0.3537822E-03)
 number of electron     248.0000083 magnetization 
 augmentation part       -3.6888280 magnetization 

 Broyden mixing:
  rms(total) = 0.47555E-02    rms(broyden)= 0.47458E-02
  rms(prec ) = 0.68623E-02
  weight for this iteration     100.00

 eigenvalues of (default mixing * dielectric matrix)
  average eigenvalue GAMMA=   1.4601
  2.6205  2.3761  1.2881  0.9579  0.9579  1.0101  1.0101

 Free energy of the ion-electron system (eV)
  ---------------------------------------------------
  alpha Z        PSCENC =       327.92123070
  Ewald energy   TEWEN  =     -9890.80476668
  -Hartree energ DENC   =     -1717.50225448
  -exchange      EXHF   =         0.00000000
  -V(xc)+E(xc)   XCENC  =       222.05243241
  PAW double counting   =     24176.69652367   -23645.03029404
  entropy T*S    EENTRO =         0.01501671
  eigenvalues    EBANDS =       553.02857014
  atomic energy  EATOM  =      9645.50393724
  Solvation  Ediel_sol  =         0.00000000
  ---------------------------------------------------
  free energy    TOTEN  =      -328.11960433 eV

  energy without entropy =     -328.13462104  energy(sigma->0) =     -328.12335851


--------------------------------------------------------------------------------------------------------




--------------------------------------- Iteration      1(  13)  ---------------------------------------


    POTLOK:  cpu time    0.0646: real time    0.0664
    SETDIJ:  cpu time    0.0073: real time    0.0073
    EDDIAG:  cpu time    0.7459: real time    0.7459
  RMM-DIIS:  cpu time    2.8814: real time    2.8815
    ORTHCH:  cpu time    0.1061: real time    0.1061
       DOS:  cpu time    0.0018: real time    0.0018
    --------------------------------------------
      LOOP:  cpu time    3.8071: real time    3.8090

 eigenvalue-minimisations  :  2013
 total energy-change (2. order) : 0.6193741E-04  (-0.1972308E-04)
 number of electron     248.0000083 magnetization 
 augmentation part       -3.6888280 magnetization 

 Free energy of the ion-electron system (eV)
  ---------------------------------------------------
  alpha Z        PSCENC =       327.92123070
  Ewald energy   TEWEN  =     -9890.80476668
  -Hartree energ DENC   =     -1717.25274903
  -exchange      EXHF   =         0.00000000
  -V(xc)+E(xc)   XCENC  =       222.03768529
  PAW double counting   =     24174.76727682   -23643.09772182
  entropy T*S    EENTRO =         0.01500334
  eigenvalues    EBANDS =       552.79056176
  atomic energy  EATOM  =      9645.50393724
  Solvation  Ediel_sol  =         0.00000000
  ---------------------------------------------------
  free energy    TOTEN  =      -328.11954239 eV

  energy without entropy =     -328.13454573  energy(sigma->0) =     -328.12329323


--------------------------------------------------------------------------------------------------------




 average (electrostatic) potential at core
  the test charge radii are     0.7089  0.9892
  (the norm of the test charge is              1.0000)
       1 -60.3601       2 -60.3601       3 -60.3601       4 -60.3601       5 -60.0278
       6 -60.0278       7 -60.3601       8 -60.3601       9 -60.3601      10 -60.3601
      11 -60.0278      12 -60.0278      13 -60.3601      14 -60.3601      15 -60.3601
      16 -60.3601      17 -60.0278      18 -60.0278      19 -60.3601      20 -60.3601
      21 -60.3601      22 -60.3601      23 -60.0278      24 -60.0278      25 -80.2036
      26 -80.2036      27 -80.2036      28 -80.2036      29 -80.2036      30 -80.2036
      31 -80.2036      32 -80.2036      33 -80.2036      34 -80.2036      35 -80.2036
      36 -80.2036      37 -80.2036      38 -80.2036      39 -80.2036      40 -80.2036
      41 -80.2036      42 -80.2036      43 -80.2036      44 -80.2036      45 -80.2036
      46 -80.2036      47 -80.2036      48 -80.2036      49 -80.2036      50 -80.2036
      51 -80.2036      52 -80.2036      53 -80.2036      54 -80.2036      55 -80.2036
      56 -80.2036
 
 
 
 E-fermi :  10.5597     XC(G=0): -11.6860     alpha+bet :-16.4093


 k-point     1 :       0.0000    0.0000    0.0000
  band No.  band energies     occupation 
      1      -9.2218      2.00000
      2      -8.1707      2.00000
      3      -8.1707      2.00000
      4      -8.1707      2.00000
      5      -8.1707      2.00000
      6      -8.1707      2.00000
      7      -8.1707      2.00000
      8      -7.7390      2.00000
      9      -7.3946      2.00000
     10      -7.3946      2.00000
     11      -7.3946      2.00000
     12      -7.3946      2.00000
     13      -7.3946      2.00000
     14      -7.3946      2.00000
     15      -7.3237      2.00000
     16      -6.2431      2.00000
     17      -6.2431      2.00000
     18      -6.2431      2.00000
     19      -6.2431      2.00000
     20      -6.2431      2.00000
     21      -6.2431      2.00000
     22      -6.1000      2.00000
     23      -6.1000      2.00000
     24      -6.1000      2.00000
     25      -0.6246      2.00000
     26      -0.6246      2.00000
     27      -0.6246      2.00000
     28      -0.6010      2.00000
     29      -0.1583      2.00000
     30      -0.1583      2.00000
     31      -0.1583      2.00000
     32      -0.1583      2.00000
     33      -0.1583      2.00000
     34      -0.1583      2.00000
     35       0.5348      2.00000
     36       0.5348      2.00000
     37       0.5348      2.00000
     38       0.5348      2.00000
     39       0.5348      2.00000
     40       0.5348      2.00000
     41       1.0586      2.00000
     42       1.0586      2.00000
     43       1.0586      2.00000
     44       1.4187      2.00000
     45       1.4187      2.00000
     46       1.4187      2.00000
     47       1.4187      2.00000
     48       1.4187      2.00000
     49       1.4187      2.00000
     50       1.7387      2.00000
     51       1.7387      2.00000
     52       1.8820      2.00000
     53       1.8820      2.00000
     54       1.8820      2.00000
     55       1.8820      2.00000
     56       1.8820      2.00000
     57       1.8820      2.00000
     58       3.1617      2.00000
     59       3.1617      2.00000
     60       3.1617      2.00000
     61       3.1617      2.00000
     62       3.1617      2.00000
     63       3.1617      2.00000
     64       3.3271      2.00000
     65       3.3271      2.00000
     66       3.3271      2.00000
     67       3.3271      2.00000
     68       3.3271      2.00000
     69       3.3271      2.00000
     70       3.3395      2.00000
     71       3.3395      2.00000
     72       3.3395      2.00000
     73       3.3395      2.00000
     74       3.3395      2.00000
     75       3.3395      2.00000
     76       3.5916      2.00000
     77       3.5916      2.00000
     78       3.5916      2.00000
     79       4.0002      2.00000
     80       4.0002      2.00000
     81       4.0002      2.00000
     82       4.0002      2.00000
     83       4.0002      2.00000
     84       4.0002      2.00000
     85       5.2522      2.00000
     86       5.2522      2.00000
     87       5.2522      2.00000
     88       5.9309      2.00000
     89       5.9309      2.00000
     90       5.9309      2.00000
     91       5.9309      2.00000
     92       5.9309      2.00000
     93       5.9309      2.00000
     94       5.9376      2.00000
     95       6.4108      2.00000
     96       6.4108      2.00000
     97       6.4108      2.00000
     98       8.7754      2.00000
     99       8.7754      2.00000
    100       8.7754      2.00000
    101       8.8153      2.00000
    102       8.8153      2.00000
    103       8.8153      2.00000
    104       8.8153      2.00000
    105       8.8153      2.00000
    106       8.8153      2.00000
    107       9.4896      2.00000
    108       9.4896      2.00000
    109       9.4896      2.00000
    110       9.4896      2.00000
    111       9.4896      2.00000
    112       9.4896      2.00000
    113       9.6820      2.00000
    114       9.6820      2.00000
    115       9.6820      2.00000
    116       9.6820      2.00000
    117       9.6820      2.00000
    118       9.6820      2.00000
    119       9.7709      2.00000
    120       9.7709      2.00000
    121       9.7709      2.00000
    122      10.0561      2.00000
    123      10.0561      2.00000
    124      10.0561      2.00000
    125      10.0561      2.00000
    126      10.0561      2.00000
    127      10.0561      2.00000
    128      11.5655      0.00000
    129      11.7077      0.00000
    130      11.7077      0.00000
    131      11.7077      0.00000
    132      11.7077      0.00000
    133      11.7077      0.00000
    134      11.7077      0.00000
    135      11.8877      0.00000
    136      11.8877      0.00000
    137      12.1483      0.00000
    138      12.1483      0.00000
    139      12.1483      0.00000
    140      12.1483      0.00000
    141      12.1483      0.00000
    142      12.1483      0.00000
    143      12.1637      0.00000
    144      12.1637      0.00000
    145      12.1637      0.00000
    146      12.1637      0.00000
    147      12.1637      0.00000
    148      12.1637      0.00000
    149      13.1794      0.00000
    150      13.1795      0.00000
    151      13.1798      0.00000
    152      13.3310      0.00000
    153      13.5423      0.00000
    154      13.5551      0.00000
    155      14.6023      0.00000
    156      14.6045      0.00000

 k-point     2 :       0.2000    0.0000    0.0000
  band No.  band energies     occupation 
      1      -9.1684      2.00000
      2      -8.4635      2.00000
      3      -8.1529      2.00000
      4      -8.1529      2.00000
      5      -8.1529      2.00000
      6      -8.1529      2.00000
      7      -7.9785      2.00000
      8      -7.7562      2.00000
      9      -7.4824      2.00000
     10      -7.4381      2.00000
     11      -7.4381      2.00000
     12      -7.4381      2.00000
     13      -7.4381      2.00000
     14      -7.3467      2.00000
     15      -7.1363      2.00000
     16      -6.2300      2.00000
     17      -6.2300      2.00000
     18      -6.2096      2.00000
     19      -6.2096      2.00000
     20      -6.2096      2.00000
     21      -6.2096      2.00000
     22      -6.1853      2.00000
     23      -6.1141      2.00000
     24      -6.1141      2.00000
     25      -0.6009      2.00000
     26      -0.6009      2.00000
     27      -0.5027      2.00000
     28      -0.4863      2.00000
     29      -0.2314      2.00000
     30      -0.2314      2.00000
     31      -0.1309      2.00000
     32      -0.1309      2.00000
     33      -0.1309      2.00000
     34      -0.1309      2.00000
     35       0.2945      2.00000
     36       0.4537      2.00000
     37       0.4537      2.00000
     38       0.4537      2.00000
     39       0.4537      2.00000
     40       0.6493      2.00000
     41       0.6841      2.00000
     42       0.9333      2.00000
     43       1.1749      2.00000
     44       1.1749      2.00000
     45       1.4003      2.00000
     46       1.4003      2.00000
     47       1.4003      2.00000
     48       1.4003      2.00000
     49       1.6327      2.00000
     50       1.7997      2.00000
     51       1.8834      2.00000
     52       1.8834      2.00000
     53       1.8834      2.00000
     54       1.8834      2.00000
     55       1.9203      2.00000
     56       1.9203      2.00000
     57       2.2865      2.00000
     58       2.6751      2.00000
     59       2.9245      2.00000
     60       2.9245      2.00000
     61       2.9245      2.00000
     62       2.9245      2.00000
     63       3.1540      2.00000
     64       3.1540      2.00000
     65       3.3041      2.00000
     66       3.3415      2.00000
     67       3.3415      2.00000
     68       3.3415      2.00000
     69       3.3415      2.00000
     70       3.5333      2.00000
     71       3.5333      2.00000
     72       3.5812      2.00000
     73       3.6005      2.00000
     74       3.7040      2.00000
     75       3.7662      2.00000
     76       3.7662      2.00000
     77       3.7662      2.00000
     78       3.7662      2.00000
     79       4.0283      2.00000
     80       4.0283      2.00000
     81       4.0283      2.00000
     82       4.0283      2.00000
     83       4.1879      2.00000
     84       4.1879      2.00000
     85       5.0907      2.00000
     86       5.0907      2.00000
     87       5.1206      2.00000
     88       5.6926      2.00000
     89       5.7618      2.00000
     90       5.7618      2.00000
     91       5.7618      2.00000
     92       5.7618      2.00000
     93       5.9589      2.00000
     94       5.9589      2.00000
     95       6.3248      2.00000
     96       6.3248      2.00000
     97       6.7240      2.00000
     98       8.1728      2.00000
     99       8.7421      2.00000
    100       8.8119      2.00000
    101       8.8623      2.00000
    102       8.8623      2.00000
    103       8.8623      2.00000
    104       8.8623      2.00000
    105       9.1124      2.00000
    106       9.1124      2.00000
    107       9.1355      2.00000
    108       9.1355      2.00000
    109       9.1355      2.00000
    110       9.1355      2.00000
    111       9.3253      2.00000
    112       9.4589      2.00000
    113       9.4589      2.00000
    114       9.5698      2.00000
    115       9.6394      2.00000
    116       9.6394      2.00000
    117       9.6394      2.00000
    118       9.6394      2.00000
    119       9.7419      2.00000
    120       9.7419      2.00000
    121      10.3049      1.99642
    122      10.3049      1.99642
    123      10.3422      1.99124
    124      10.5379      1.44358
    125      10.5379      1.44359
    126      10.5379      1.44359
    127      10.5379      1.44358
    128      11.3732      0.00000
    129      11.3732      0.00000
    130      11.3732      0.00000
    131      11.3732      0.00000
    132      11.6452      0.00000
    133      11.7590      0.00000
    134      11.8454      0.00000
    135      11.8486      0.00000
    136      11.8803      0.00000
    137      11.9713      0.00000
    138      11.9869      0.00000
    139      11.9872      0.00000
    140      12.1599      0.00000
    141      12.1600      0.00000
    142      12.1600      0.00000
    143      12.1600      0.00000
    144      12.5124      0.00000
    145      12.5125      0.00000
    146      12.5125      0.00000
    147      12.5126      0.00000
    148      12.7482      0.00000
    149      13.0212      0.00000
    150      13.1370      0.00000
    151      13.1376      0.00000
    152      13.1663      0.00000
    153      13.6868      0.00000
    154      13.7042      0.00000
    155      14.3639      0.00000
    156      14.4193      0.00000

 k-point     3 :       0.4000    0.0000    0.0000
  band No.  band energies     occupation 
      1      -9.0126      2.00000
      2      -8.7673      2.00000
      3      -8.1202      2.00000
      4      -8.1202      2.00000
      5      -8.1202      2.00000
      6      -8.1202      2.00000
      7      -7.8738      2.00000
      8      -7.8035      2.00000
      9      -7.5092      2.00000
     10      -7.5092      2.00000
     11      -7.5092      2.00000
     12      -7.5092      2.00000
     13      -7.4634      2.00000
     14      -7.4036      2.00000
     15      -6.7717      2.00000
     16      -6.4257      2.00000
     17      -6.1949      2.00000
     18      -6.1949      2.00000
     19      -6.1586      2.00000
     20      -6.1586      2.00000
     21      -6.1586      2.00000
     22      -6.1586      2.00000
     23      -6.1507      2.00000
     24      -6.1507      2.00000
     25      -0.5217      2.00000
     26      -0.5217      2.00000
     27      -0.3841      2.00000
     28      -0.3841      2.00000
     29      -0.1633      2.00000
     30      -0.1580      2.00000
     31      -0.0692      2.00000
     32      -0.0692      2.00000
     33      -0.0692      2.00000
     34      -0.0692      2.00000
     35       0.1958      2.00000
     36       0.3051      2.00000
     37       0.3080      2.00000
     38       0.3080      2.00000
     39       0.3080      2.00000
     40       0.3080      2.00000
     41       0.3234      2.00000
     42       0.3447      2.00000
     43       1.3714      2.00000
     44       1.3714      2.00000
     45       1.3714      2.00000
     46       1.3714      2.00000
     47       1.4762      2.00000
     48       1.4762      2.00000
     49       1.8118      2.00000
     50       1.8118      2.00000
     51       1.9094      2.00000
     52       1.9094      2.00000
     53       1.9094      2.00000
     54       1.9094      2.00000
     55       1.9808      2.00000
     56       2.0626      2.00000
     57       2.2762      2.00000
     58       2.6727      2.00000
     59       2.6727      2.00000
     60       2.6727      2.00000
[...]
    120      10.4109      2.02712
    121      10.4109      2.02712
    122      10.4456      2.08935
    123      10.4456      2.08935
    124      10.4456      2.08935
    125      11.1748      0.00000
    126      11.1748      0.00000
    127      11.1748      0.00000
    128      11.1926      0.00000
    129      11.1926      0.00000
    130      11.3039      0.00000
    131      11.3039      0.00000
    132      11.3039      0.00000
    133      11.9276      0.00000
    134      11.9276      0.00000
    135      11.9276      0.00000
    136      12.3900      0.00000
    137      12.3905      0.00000
    138      12.3905      0.00000
    139      12.3905      0.00000
    140      12.5428      0.00000
    141      12.5428      0.00000
    142      12.5428      0.00000
    143      12.5725      0.00000
    144      12.5725      0.00000
    145      12.7839      0.00000
    146      12.7839      0.00000
    147      12.7840      0.00000
    148      12.8979      0.00000
    149      12.8979      0.00000
    150      12.8986      0.00000
    151      13.0231      0.00000
    152      13.0231      0.00000
    153      13.1717      0.00000
    154      13.3013      0.00000
    155      13.3091      0.00000
    156      13.3775      0.00000


--------------------------------------------------------------------------------------------------------


 soft charge-density along one line, spin component           1
         0         1         2         3         4         5         6         7         8         9
 total charge-density along one line
 
 pseudopotential strength for first ion, spin component:           1
 12.287  14.724   0.000  -0.000   0.000   0.000  -0.000   0.000
 14.724  17.646   0.000  -0.000   0.000   0.000  -0.000   0.000
  0.000   0.000  -5.768  -0.003   0.003  -7.662  -0.005   0.005
 -0.000  -0.000  -0.003  -5.768  -0.003  -0.005  -7.662  -0.005
  0.000   0.000   0.003  -0.003  -5.768   0.005  -0.005  -7.662
  0.000   0.000  -7.662  -0.005   0.005  -9.456  -0.007   0.007
 -0.000  -0.000  -0.005  -7.662  -0.005  -0.007  -9.456  -0.007
  0.000   0.000   0.005  -0.005  -7.662   0.007  -0.007  -9.456
 total augmentation occupancy for first ion, spin component:           1
  5.978  -2.876   0.000  -0.000   0.000  -0.000  -0.000   0.000
 -2.876   1.967  -0.000  -0.000  -0.000  -0.000  -0.000  -0.000
  0.000  -0.000   1.864  -0.041   0.041  -0.289   0.003  -0.003
 -0.000  -0.000  -0.041   1.864  -0.041   0.003  -0.289   0.003
  0.000  -0.000   0.041  -0.041   1.864  -0.003   0.003  -0.289
 -0.000  -0.000  -0.289   0.003  -0.003   0.056   0.001  -0.001
 -0.000  -0.000   0.003  -0.289   0.003   0.001   0.056   0.001
  0.000  -0.000  -0.003   0.003  -0.289  -0.001   0.001   0.056


------------------------ aborting loop because EDIFF is reached ----------------------------------------


    CHARGE:  cpu time    0.3246: real time    0.3245
    FORLOC:  cpu time    0.0262: real time    0.0262
    FORNL :  cpu time    2.0510: real time    2.0507
    STRESS:  cpu time    6.0555: real time    6.0545
    FORCOR:  cpu time    0.0898: real time    0.0898
    FORHAR:  cpu time    0.0396: real time    0.0396
    MIXING:  cpu time    0.0020: real time    0.0020
    OFIELD:  cpu time    0.0000: real time    0.0000

  FORCE on cell =-STRESS in cart. coord.  units (eV):
  Direction    XX          YY          ZZ          XY          YZ          ZX
  --------------------------------------------------------------------------------------
  Alpha Z   327.92123   327.92123   327.92123
  Ewald   -3296.98810 -3296.98810 -3296.98810    -0.00000    -0.00000    -0.00000
  Hartree   572.28221   572.28221   572.28221    -0.00000    -0.00000    -0.00000
  E(xc)    -930.66455  -930.66455  -930.66455     0.00000    -0.00000     0.00000
  Local    -729.12957  -729.12957  -729.12957     0.00000     0.00000    -0.00000
  n-local   965.64948   967.38304   967.77377     0.99490     2.19214     0.90520
  augment  -177.99071  -177.99071  -177.99071    -0.00000    -0.00000    -0.00000
  Kinetic  3295.80789  3308.45529  3324.41695    -3.70062    -4.26208    -2.04856
  Fock        0.00000     0.00000     0.00000     0.00000     0.00000     0.00000
  -------------------------------------------------------------------------------------
  Total      41.92598    41.92598    41.92598     0.00000     0.00000     0.00000
  in kB     112.93299   112.93299   112.93299     0.00000     0.00000     0.00000
  external pressure =      112.93 kB  Pullay stress =        0.00 kB


 VOLUME and BASIS-vectors are now :
 -----------------------------------------------------------------------------
  energy-cutoff  :      400.00
  volume of cell :      594.80
      direct lattice vectors                 reciprocal lattice vectors
     8.409903284  0.000000000  0.000000000     0.118907432 -0.000000000  0.000000000
     0.000000000  8.409903284  0.000000000    -0.000000000  0.118907432  0.000000000
     0.000000000  0.000000000  8.409903284    -0.000000000 -0.000000000  0.118907432

  length of vectors
     8.409903284  8.409903284  8.409903284     0.118907432  0.118907432  0.118907432


 FORCES acting on ions
    electron-ion (+dipol)            ewald-force                    non-local-force                 convergence-correction
 -----------------------------------------------------------------------------------------------
   -.945E-12 0.182E-11 0.145E-12   0.218E-13 0.213E-13 -.284E-13   0.249E-21 0.771E-21 -.611E-21   0.313E-12 0.136E-11 0.242E-12
   -.756E-12 0.689E-12 -.140E-11   0.265E-13 -.378E-13 0.222E-13   -.232E-21 -.105E-20 0.121E-20   0.415E-13 0.928E-12 -.268E-12
   -.114E-11 0.716E-12 0.809E-12   0.888E-14 -.338E-13 -.249E-13   -.941E-21 0.110E-20 0.979E-22   0.401E-12 -.219E-13 0.129E-11
   -.436E-13 -.459E-12 0.121E-11   0.435E-13 0.222E-14 0.378E-13   -.917E-21 -.106E-20 -.593E-22   -.119E-11 0.107E-11 -.279E-13
   0.108E-12 -.155E-12 0.387E-12   0.178E-13 0.266E-13 0.560E-13   0.869E-17 0.349E-17 0.438E-17   0.462E-12 -.808E-14 0.106E-12
   -.136E-13 -.134E-13 0.199E-12   0.844E-13 0.977E-14 -.488E-13   -.603E-17 -.395E-17 -.187E-17   -.135E-11 -.882E-12 0.482E-12
   0.105E-11 -.547E-12 0.727E-12   0.506E-13 0.284E-13 -.757E-13   0.127E-20 0.494E-21 -.505E-21   -.731E-13 -.112E-11 -.176E-11
   0.315E-12 0.566E-12 -.280E-12   0.386E-14 -.303E-13 0.284E-13   0.243E-21 0.418E-21 -.178E-22   -.220E-12 0.111E-11 -.545E-12
   -.583E-12 0.372E-12 0.749E-12   0.178E-14 -.178E-13 -.231E-13   -.137E-20 -.212E-21 0.358E-21   -.381E-12 -.491E-12 0.909E-12
   -.514E-13 -.378E-12 0.130E-11   0.266E-13 0.203E-14 0.438E-13   -.619E-21 -.178E-21 0.272E-21   0.100E-11 0.158E-11 -.125E-12
   0.108E-12 -.122E-12 0.344E-12   0.191E-13 0.306E-13 0.608E-13   0.549E-17 0.607E-18 0.259E-17   0.357E-12 -.641E-12 0.282E-12
   -.405E-13 0.127E-12 0.498E-13   0.924E-13 -.213E-13 -.355E-13   -.731E-17 -.187E-17 -.154E-17   0.341E-13 -.113E-11 0.178E-11
   -.665E-13 0.307E-12 -.919E-12   0.438E-13 0.346E-13 -.274E-13   0.141E-20 -.104E-21 0.289E-23   0.269E-12 -.635E-12 0.781E-12
   -.875E-12 0.409E-12 0.140E-11   0.108E-13 -.135E-13 0.338E-13   0.124E-21 0.271E-22 0.975E-21   0.510E-12 -.822E-12 0.166E-11
   -.310E-14 -.427E-12 0.164E-11   0.107E-13 -.231E-13 0.000E+00   -.167E-20 0.292E-21 0.485E-21   0.855E-13 0.371E-12 -.886E-12
   -.114E-11 0.268E-12 -.405E-12   0.400E-14 0.160E-13 0.956E-14   -.140E-20 -.625E-21 -.986E-21   0.191E-12 -.137E-11 -.961E-12
   0.230E-12 0.252E-11 0.973E-12   0.169E-13 0.488E-13 0.568E-13   0.754E-17 0.550E-17 0.240E-17   -.695E-12 0.264E-11 -.655E-12
   0.812E-13 -.108E-13 0.400E-11   0.693E-13 0.178E-13 -.551E-13   -.807E-17 -.233E-17 -.407E-17   0.435E-12 -.677E-12 -.621E-12
   -.701E-12 0.370E-12 -.214E-11   0.261E-13 0.293E-13 -.296E-13   0.578E-22 -.674E-21 -.739E-21   -.405E-12 -.193E-12 0.159E-11
   0.933E-12 0.974E-12 -.660E-12   -.197E-13 -.200E-13 0.213E-13   -.392E-21 -.508E-21 0.877E-21   -.313E-12 -.134E-11 -.569E-12
   -.194E-14 -.259E-12 0.143E-11   -.195E-13 -.462E-13 -.213E-13   -.195E-21 0.293E-21 0.821E-21   -.235E-12 -.205E-12 -.180E-11
   -.546E-12 -.834E-12 0.289E-12   0.142E-13 0.666E-15 0.112E-13   -.153E-21 0.697E-22 0.346E-21   -.264E-12 -.783E-12 0.798E-12
   0.243E-12 -.104E-11 -.306E-11   0.178E-13 0.266E-13 0.400E-13   0.726E-17 0.165E-17 0.113E-17   0.909E-12 0.160E-11 -.906E-12
   0.677E-13 0.371E-13 0.145E-12   0.195E-13 -.151E-13 -.284E-13   -.593E-17 -.202E-17 -.293E-17   0.424E-12 -.205E-12 -.149E-11
   -.147E+01 -.147E+01 -.147E+01   0.288E+01 0.288E+01 0.288E+01   -.141E+01 -.141E+01 -.141E+01   0.130E-02 0.130E-02 0.130E-02
   0.147E+01 -.147E+01 -.147E+01   -.288E+01 0.288E+01 0.288E+01   0.141E+01 -.141E+01 -.141E+01   -.130E-02 0.130E-02 0.130E-02
   -.147E+01 -.147E+01 0.147E+01   0.288E+01 0.288E+01 -.288E+01   -.141E+01 -.141E+01 0.141E+01   0.130E-02 0.130E-02 -.130E-02
   -.147E+01 0.147E+01 -.147E+01   0.288E+01 -.288E+01 0.288E+01   -.141E+01 0.141E+01 -.141E+01   0.130E-02 -.130E-02 0.130E-02
   0.147E+01 0.147E+01 -.147E+01   -.288E+01 -.288E+01 0.288E+01   0.141E+01 0.141E+01 -.141E+01   -.130E-02 -.130E-02 0.130E-02
   0.147E+01 -.147E+01 0.147E+01   -.288E+01 0.288E+01 -.288E+01   0.141E+01 -.141E+01 0.141E+01   -.130E-02 0.130E-02 -.130E-02
   0.147E+01 0.147E+01 0.147E+01   -.288E+01 -.288E+01 -.288E+01   0.141E+01 0.141E+01 0.141E+01   -.130E-02 -.130E-02 -.130E-02
   -.147E+01 0.147E+01 0.147E+01   0.288E+01 -.288E+01 -.288E+01   -.141E+01 0.141E+01 0.141E+01   0.130E-02 -.130E-02 -.130E-02
   -.147E+01 -.147E+01 -.147E+01   0.288E+01 0.288E+01 0.288E+01   -.141E+01 -.141E+01 -.141E+01   0.130E-02 0.130E-02 0.130E-02
   0.147E+01 -.147E+01 -.147E+01   -.288E+01 0.288E+01 0.288E+01   0.141E+01 -.141E+01 -.141E+01   -.130E-02 0.130E-02 0.130E-02
   -.147E+01 -.147E+01 0.147E+01   0.288E+01 0.288E+01 -.288E+01   -.141E+01 -.141E+01 0.141E+01   0.130E-02 0.130E-02 -.130E-02
   -.147E+01 0.147E+01 -.147E+01   0.288E+01 -.288E+01 0.288E+01   -.141E+01 0.141E+01 -.141E+01   0.130E-02 -.130E-02 0.130E-02
   0.147E+01 0.147E+01 -.147E+01   -.288E+01 -.288E+01 0.288E+01   0.141E+01 0.141E+01 -.141E+01   -.130E-02 -.130E-02 0.130E-02
   0.147E+01 -.147E+01 0.147E+01   -.288E+01 0.288E+01 -.288E+01   0.141E+01 -.141E+01 0.141E+01   -.130E-02 0.130E-02 -.130E-02
   0.147E+01 0.147E+01 0.147E+01   -.288E+01 -.288E+01 -.288E+01   0.141E+01 0.141E+01 0.141E+01   -.130E-02 -.130E-02 -.130E-02
   -.147E+01 0.147E+01 0.147E+01   0.288E+01 -.288E+01 -.288E+01   -.141E+01 0.141E+01 0.141E+01   0.130E-02 -.130E-02 -.130E-02
   -.147E+01 -.147E+01 -.147E+01   0.288E+01 0.288E+01 0.288E+01   -.141E+01 -.141E+01 -.141E+01   0.130E-02 0.130E-02 0.130E-02
   0.147E+01 -.147E+01 -.147E+01   -.288E+01 0.288E+01 0.288E+01   0.141E+01 -.141E+01 -.141E+01   -.130E-02 0.130E-02 0.130E-02
   -.147E+01 -.147E+01 0.147E+01   0.288E+01 0.288E+01 -.288E+01   -.141E+01 -.141E+01 0.141E+01   0.130E-02 0.130E-02 -.130E-02
   -.147E+01 0.147E+01 -.147E+01   0.288E+01 -.288E+01 0.288E+01   -.141E+01 0.141E+01 -.141E+01   0.130E-02 -.130E-02 0.130E-02
   0.147E+01 0.147E+01 -.147E+01   -.288E+01 -.288E+01 0.288E+01   0.141E+01 0.141E+01 -.141E+01   -.130E-02 -.130E-02 0.130E-02
   0.147E+01 -.147E+01 0.147E+01   -.288E+01 0.288E+01 -.288E+01   0.141E+01 -.141E+01 0.141E+01   -.130E-02 0.130E-02 -.130E-02
   0.147E+01 0.147E+01 0.147E+01   -.288E+01 -.288E+01 -.288E+01   0.141E+01 0.141E+01 0.141E+01   -.130E-02 -.130E-02 -.130E-02
   -.147E+01 0.147E+01 0.147E+01   0.288E+01 -.288E+01 -.288E+01   -.141E+01 0.141E+01 0.141E+01   0.130E-02 -.130E-02 -.130E-02
   -.147E+01 -.147E+01 -.147E+01   0.288E+01 0.288E+01 0.288E+01   -.141E+01 -.141E+01 -.141E+01   0.130E-02 0.130E-02 0.130E-02
   0.147E+01 -.147E+01 -.147E+01   -.288E+01 0.288E+01 0.288E+01   0.141E+01 -.141E+01 -.141E+01   -.130E-02 0.130E-02 0.130E-02
   -.147E+01 -.147E+01 0.147E+01   0.288E+01 0.288E+01 -.288E+01   -.141E+01 -.141E+01 0.141E+01   0.130E-02 0.130E-02 -.130E-02
   -.147E+01 0.147E+01 -.147E+01   0.288E+01 -.288E+01 0.288E+01   -.141E+01 0.141E+01 -.141E+01   0.130E-02 -.130E-02 0.130E-02
   0.147E+01 0.147E+01 -.147E+01   -.288E+01 -.288E+01 0.288E+01   0.141E+01 0.141E+01 -.141E+01   -.130E-02 -.130E-02 0.130E-02
   0.147E+01 -.147E+01 0.147E+01   -.288E+01 0.288E+01 -.288E+01   0.141E+01 -.141E+01 0.141E+01   -.130E-02 0.130E-02 -.130E-02
   0.147E+01 0.147E+01 0.147E+01   -.288E+01 -.288E+01 -.288E+01   0.141E+01 0.141E+01 0.141E+01   -.130E-02 -.130E-02 -.130E-02
   -.147E+01 0.147E+01 0.147E+01   0.288E+01 -.288E+01 -.288E+01   -.141E+01 0.141E+01 0.141E+01   0.130E-02 -.130E-02 -.130E-02
 -----------------------------------------------------------------------------------------------
   -.739E-11 0.626E-11 0.693E-11   -.613E-13 -.107E-12 -.560E-13   -.333E-14 0.222E-15 -.111E-14   0.295E-12 0.308E-12 -.793E-12
 
 
 POSITION                                       TOTAL-FORCE (eV/Angst)
 -----------------------------------------------------------------------------------
      7.35867      7.35867      1.05124        -0.000000     -0.000000     -0.000000
      3.15371      1.05124      3.15371        -0.000000     -0.000000     -0.000000
      5.25619      7.35867      3.15371        -0.000000     -0.000000     -0.000000
      1.05124      1.05124      1.05124        -0.000000     -0.000000     -0.000000
      2.10248      6.30743      2.10248        -0.000000     -0.000000     -0.000000
     -0.00000     -0.00000      4.20495        -0.000000     -0.000000     -0.000000
      7.35867      3.15371      5.25619        -0.000000     -0.000000     -0.000000
      3.15371      5.25619      7.35867        -0.000000     -0.000000     -0.000000
      5.25619      3.15371      7.35867        -0.000000     -0.000000     -0.000000
      1.05124      5.25619      5.25619        -0.000000     -0.000000     -0.000000
      2.10248      2.10248      6.30743        -0.000000     -0.000000     -0.000000
      0.00000      4.20495      0.00000        -0.000000     -0.000000     -0.000000
      3.15371      7.35867      5.25619        -0.000000     -0.000000     -0.000000
      7.35867      1.05124      7.35867        -0.000000     -0.000000     -0.000000
      1.05124      7.35867      7.35867        -0.000000     -0.000000     -0.000000
      5.25619      1.05124      5.25619        -0.000000     -0.000000     -0.000000
      6.30743      6.30743      6.30743        -0.000000     -0.000000     -0.000000
      4.20495      0.00000      0.00000        -0.000000     -0.000000     -0.000000
      3.15371      3.15371      1.05124        -0.000000     -0.000000     -0.000000
      7.35867      5.25619      3.15371        -0.000000     -0.000000     -0.000000
      1.05124      3.15371      3.15371        -0.000000     -0.000000     -0.000000
      5.25619      5.25619      1.05124        -0.000000     -0.000000     -0.000000
      6.30743      2.10248      2.10248        -0.000000     -0.000000     -0.000000
      4.20495      4.20495      4.20495        -0.000000     -0.000000     -0.000000
      3.16505      3.16505      3.16505        -0.000355     -0.000355     -0.000355
      7.34733      1.06257      1.06257         0.000355     -0.000355     -0.000355
      5.26752      1.06257      3.14238        -0.000355     -0.000355      0.000355
      1.06257      7.34733      1.06257        -0.000355      0.000355     -0.000355
      1.03990      1.03990      3.16505         0.000355      0.000355     -0.000355
      1.03990      3.16505      1.03990         0.000355     -0.000355      0.000355
      3.14238      7.34733      3.14238         0.000355      0.000355      0.000355
      3.16505      1.03990      1.03990        -0.000355      0.000355      0.000355
      3.16505      7.37000      7.37000        -0.000355     -0.000355     -0.000355
      7.34733      5.26752      5.26752         0.000355     -0.000355     -0.000355
      5.26752      5.26752      7.34733        -0.000355     -0.000355      0.000355
      1.06257      3.14238      5.26752        -0.000355      0.000355     -0.000355
      1.03990      5.24486      7.37000         0.000355      0.000355     -0.000355
      1.03990      7.37000      5.24486         0.000355     -0.000355      0.000355
      3.14238      3.14238      7.34733         0.000355      0.000355      0.000355
      3.16505      5.24486      5.24486        -0.000355      0.000355      0.000355
      7.37000      3.16505      7.37000        -0.000355     -0.000355     -0.000355
      3.14238      1.06257      5.26752         0.000355     -0.000355     -0.000355
      1.06257      1.06257      7.34733        -0.000355     -0.000355      0.000355
      5.26752      7.34733      5.26752        -0.000355      0.000355     -0.000355
      5.24486      1.03990      7.37000         0.000355      0.000355     -0.000355
      5.24486      3.16505      5.24486         0.000355     -0.000355      0.000355
      7.34733      7.34733      7.34733         0.000355      0.000355      0.000355
      7.37000      1.03990      5.24486        -0.000355      0.000355      0.000355
      7.37000      7.37000      3.16505        -0.000355     -0.000355     -0.000355
      3.14238      5.26752      1.06257         0.000355     -0.000355     -0.000355
      1.06257      5.26752      3.14238        -0.000355     -0.000355      0.000355
      5.26752      3.14238      1.06257        -0.000355      0.000355     -0.000355
      5.24486      5.24486      3.16505         0.000355      0.000355     -0.000355
      5.24486      7.37000      1.03990         0.000355     -0.000355      0.000355
      7.34733      3.14238      3.14238         0.000355      0.000355      0.000355
      7.37000      5.24486      1.03990        -0.000355      0.000355      0.000355
 -----------------------------------------------------------------------------------
    total drift:                               -0.000000      0.000000      0.000000


--------------------------------------------------------------------------------------------------------



  FREE ENERGIE OF THE ION-ELECTRON SYSTEM (eV)
  ---------------------------------------------------
  free  energy   TOTEN  =      -328.11979539 eV

  energy  without entropy=     -328.13477468  energy(sigma->0) =     -328.12354021
 
 d Force = 0.1853780E-03[ 0.107E-04, 0.360E-03]  d Energy = 0.1905341E-03-0.516E-05
 d Force =-0.8552101E-01[-0.868E-01,-0.842E-01]  d Ewald  =-0.8552111E-01 0.108E-06


--------------------------------------------------------------------------------------------------------


    POTLOK:  cpu time    0.0728: real time    0.0728


--------------------------------------------------------------------------------------------------------




--------------------------------------------------------------------------------------------------------


  
 reached required accuracy - stopping structural energy minimisation
     LOOP+:  cpu time   20.5126: real time   20.5253
    4ORBIT:  cpu time    0.0000: real time    0.0000

 total amount of memory used by VASP MPI-rank0    69123. kBytes
=======================================================================

   base      :      30000. kBytes
   nonlr-proj:      10409. kBytes
   fftplans  :       4302. kBytes
   grid      :       6748. kBytes
   one-center:         43. kBytes
   wavefun   :      17621. kBytes
 
  
  
 General timing and accounting informations for this job:
 ========================================================
  
                  Total CPU time used (sec):      141.824
                            User time (sec):      141.102
                          System time (sec):        0.722
                         Elapsed time (sec):      142.346
  
                   Maximum memory used (kb):       89096.
                   Average memory used (kb):           0.
  
                          Minor page faults:        95319
                          Major page faults:            8
                 Voluntary context switches:         4122
