unknown system                          
           1
     8.409903    0.000000    0.000000
     0.000000    8.409903    0.000000
     0.000000    0.000000    8.409903
   Si   N 
  24  32
Direct configuration=     1
   0.87500000  0.87500000  0.12500000
   0.37500000  0.12500000  0.37500000
   0.62500000  0.87500000  0.37500000
   0.12500000  0.12500000  0.12500000
   0.25000000  0.75000000  0.25000000
   0.00000000  0.00000000  0.50000000
   0.87500000  0.37500000  0.62500000
   0.37500000  0.62500000  0.87500000
   0.62500000  0.37500000  0.87500000
   0.12500000  0.62500000  0.62500000
   0.25000000  0.25000000  0.75000000
   0.00000000  0.50000000  0.00000000
   0.37500000  0.87500000  0.62500000
   0.87500000  0.12500000  0.87500000
   0.12500000  0.87500000  0.87500000
   0.62500000  0.12500000  0.62500000
   0.75000000  0.75000000  0.75000000
   0.50000000  0.00000000  0.00000000
   0.37500000  0.37500000  0.12500000
   0.87500000  0.62500000  0.37500000
   0.12500000  0.37500000  0.37500000
   0.62500000  0.62500000  0.12500000
   0.75000000  0.25000000  0.25000000
   0.50000000  0.50000000  0.50000000
   0.37630293  0.37630293  0.37630293
   0.87369707  0.12630293  0.12630293
   0.62630293  0.12630293  0.37369707
   0.12630293  0.87369707  0.12630293
   0.12369707  0.12369707  0.37630293
   0.12369707  0.37630293  0.12369707
   0.37369707  0.87369707  0.37369707
   0.37630293  0.12369707  0.12369707
   0.37630293  0.87630293  0.87630293
   0.87369707  0.62630293  0.62630293
   0.62630293  0.62630293  0.87369707
   0.12630293  0.37369707  0.62630293
   0.12369707  0.62369707  0.87630293
   0.12369707  0.87630293  0.62369707
   0.37369707  0.37369707  0.87369707
   0.37630293  0.62369707  0.62369707
   0.87630293  0.37630293  0.87630293
   0.37369707  0.12630293  0.62630293
   0.12630293  0.12630293  0.87369707
   0.62630293  0.87369707  0.62630293
   0.62369707  0.12369707  0.87630293
   0.62369707  0.37630293  0.62369707
   0.87369707  0.87369707  0.87369707
   0.87630293  0.12369707  0.62369707
   0.87630293  0.87630293  0.37630293
   0.37369707  0.62630293  0.12630293
   0.12630293  0.62630293  0.37369707
   0.62630293  0.37369707  0.12630293
   0.62369707  0.62369707  0.37630293
   0.62369707  0.87630293  0.12369707
   0.87369707  0.37369707  0.37369707
   0.87630293  0.62369707  0.12369707
Direct configuration=     2
   0.87500000  0.87500000  0.12500000
   0.37500000  0.12500000  0.37500000
   0.62500000  0.87500000  0.37500000
   0.12500000  0.12500000  0.12500000
   0.25000000  0.75000000  0.25000000
  -0.00000000 -0.00000000  0.50000000
   0.87500000  0.37500000  0.62500000
   0.37500000  0.62500000  0.87500000
   0.62500000  0.37500000  0.87500000
   0.12500000  0.62500000  0.62500000
   0.25000000  0.25000000  0.75000000
  -0.00000000  0.50000000 -0.00000000
   0.37500000  0.87500000  0.62500000
   0.87500000  0.12500000  0.87500000
   0.12500000  0.87500000  0.87500000
   0.62500000  0.12500000  0.62500000
   0.75000000  0.75000000  0.75000000
   0.50000000 -0.00000000 -0.00000000
   0.37500000  0.37500000  0.12500000
   0.87500000  0.62500000  0.37500000
   0.12500000  0.37500000  0.37500000
   0.62500000  0.62500000  0.12500000
   0.75000000  0.25000000  0.25000000
   0.50000000  0.50000000  0.50000000
   0.37638502  0.37638502  0.37638502
   0.87361498  0.12638502  0.12638502
   0.62638502  0.12638502  0.37361498
   0.12638502  0.87361498  0.12638502
   0.12361498  0.12361498  0.37638502
   0.12361498  0.37638502  0.12361498
   0.37361498  0.87361498  0.37361498
   0.37638502  0.12361498  0.12361498
   0.37638502  0.87638502  0.87638502
   0.87361498  0.62638502  0.62638502
   0.62638502  0.62638502  0.87361498
   0.12638502  0.37361498  0.62638502
   0.12361498  0.62361498  0.87638502
   0.12361498  0.87638502  0.62361498
   0.37361498  0.37361498  0.87361498
   0.37638502  0.62361498  0.62361498
   0.87638502  0.37638502  0.87638502
   0.37361498  0.12638502  0.62638502
   0.12638502  0.12638502  0.87361498
   0.62638502  0.87361498  0.62638502
   0.62361498  0.12361498  0.87638502
   0.62361498  0.37638502  0.62361498
   0.87361498  0.87361498  0.87361498
   0.87638502  0.12361498  0.62361498
   0.87638502  0.87638502  0.37638502
   0.37361498  0.62638502  0.12638502
   0.12638502  0.62638502  0.37361498
   0.62638502  0.37361498  0.12638502
   0.62361498  0.62361498  0.37638502
   0.62361498  0.87638502  0.12361498
   0.87361498  0.37361498  0.37361498
   0.87638502  0.62361498  0.12361498
Direct configuration=     3
   0.87500000  0.87500000  0.12500000
   0.37500000  0.12500000  0.37500000
   0.62500000  0.87500000  0.37500000
   0.12500000  0.12500000  0.12500000
   0.25000000  0.75000000  0.25000000
  -0.00000000 -0.00000000  0.50000000
   0.87500000  0.37500000  0.62500000
   0.37500000  0.62500000  0.87500000
   0.62500000  0.37500000  0.87500000
   0.12500000  0.62500000  0.62500000
   0.25000000  0.25000000  0.75000000
  -0.00000000  0.50000000 -0.00000000
   0.37500000  0.87500000  0.62500000
   0.87500000  0.12500000  0.87500000
   0.12500000  0.87500000  0.87500000
   0.62500000  0.12500000  0.62500000
   0.75000000  0.75000000  0.75000000
   0.50000000 -0.00000000 -0.00000000
   0.37500000  0.37500000  0.12500000
   0.87500000  0.62500000  0.37500000
   0.12500000  0.37500000  0.37500000
   0.62500000  0.62500000  0.12500000
   0.75000000  0.25000000  0.25000000
   0.50000000  0.50000000  0.50000000
   0.37634768  0.37634768  0.37634768
   0.87365232  0.12634768  0.12634768
   0.62634768  0.12634768  0.37365232
   0.12634768  0.87365232  0.12634768
   0.12365232  0.12365232  0.37634768
   0.12365232  0.37634768  0.12365232
   0.37365232  0.87365232  0.37365232
   0.37634768  0.12365232  0.12365232
   0.37634768  0.87634768  0.87634768
   0.87365232  0.62634768  0.62634768
   0.62634768  0.62634768  0.87365232
   0.12634768  0.37365232  0.62634768
   0.12365232  0.62365232  0.87634768
   0.12365232  0.87634768  0.62365232
   0.37365232  0.37365232  0.87365232
   0.37634768  0.62365232  0.62365232
   0.87634768  0.37634768  0.87634768
   0.37365232  0.12634768  0.62634768
   0.12634768  0.12634768  0.87365232
   0.62634768  0.87365232  0.62634768
   0.62365232  0.12365232  0.87634768
   0.62365232  0.37634768  0.62365232
   0.87365232  0.87365232  0.87365232
   0.87634768  0.12365232  0.62365232
   0.87634768  0.87634768  0.37634768
   0.37365232  0.62634768  0.12634768
   0.12634768  0.62634768  0.37365232
   0.62634768  0.37365232  0.12634768
   0.62365232  0.62365232  0.37634768
   0.62365232  0.87634768  0.12365232
   0.87365232  0.37365232  0.37365232
   0.87634768  0.62365232  0.12365232
