  14  14   0   0
  0.1271322E+02  0.8360159E-09  0.8360159E-09  0.2940519E-09  0.5000000E-15
  1.000000000000000E-004
  CAR 
 unknown system                          
     13.62893093    -12.09519525  301      7.95937695      1.00000000
    -12.095  0.0000E+00  0.0000E+00
    -12.009  0.0000E+00  0.0000E+00
    -11.924  0.0000E+00  0.0000E+00
    -11.838  0.0000E+00  0.0000E+00
    -11.752  0.7544E-31  0.6469E-32
    -11.666  0.3760E-25  0.3224E-26
    -11.581  0.4187E-20  0.3590E-21
    -11.495  0.1040E-15  0.8919E-17
    -11.409  0.5718E-12  0.4904E-13
    -11.323  0.6867E-09  0.5893E-10
    -11.238  0.1732E-06  0.1491E-07
    -11.152  0.8092E-05  0.7088E-06
    -11.066  0.3092E-04  0.3361E-05
    -10.980 -0.2613E-03 -0.1905E-04
    -10.895  0.1970E-02  0.1499E-03
    -10.809  0.1140E-01  0.1128E-02
    -10.723  0.2222E-01  0.3033E-02
    -10.637  0.2102E-01  0.4835E-02
    -10.552  0.1403E-01  0.6038E-02
    -10.466  0.1197E-01  0.7064E-02
    -10.380  0.2822E-01  0.9484E-02
    -10.295  0.4983E-01  0.1376E-01
    -10.209  0.5403E-01  0.1839E-01
    -10.123  0.3149E-01  0.2109E-01
    -10.037  0.3900E-01  0.2443E-01
     -9.952  0.3442E-01  0.2739E-01
     -9.866  0.2822E-01  0.2981E-01
     -9.780  0.1186E-01  0.3082E-01
     -9.694  0.2044E-01  0.3258E-01
     -9.609  0.4321E-01  0.3628E-01
     -9.523  0.2867E-01  0.3874E-01
     -9.437 -0.1532E-02  0.3861E-01
     -9.351  0.2659E-01  0.4089E-01
     -9.266  0.7688E-01  0.4748E-01
     -9.180  0.9158E-01  0.5533E-01
     -9.094  0.4287E-01  0.5901E-01
     -9.008  0.4728E-01  0.6306E-01
     -8.923  0.6188E-01  0.6837E-01
     -8.837  0.5756E-01  0.7330E-01
     -8.751  0.4702E-01  0.7734E-01
     -8.665  0.5934E-01  0.8242E-01
     -8.580  0.8070E-01  0.8934E-01
     -8.494  0.1200E+00  0.9963E-01
     -8.408  0.1097E+00  0.1090E+00
     -8.322  0.3589E-01  0.1121E+00
     -8.237  0.5270E-01  0.1166E+00
     -8.151  0.3860E-01  0.1199E+00
     -8.065  0.1239E-02  0.1200E+00
     -7.979 -0.7050E-03  0.1200E+00
     -7.894  0.1556E-03  0.1200E+00
     -7.808  0.9523E-05  0.1200E+00
     -7.722  0.7833E-07  0.1200E+00
     -7.636  0.1216E-09  0.1200E+00
     -7.551  0.3892E-13  0.1200E+00
     -7.465  0.2398E-17  0.1200E+00
     -7.379  0.0000E+00  0.1200E+00
     -7.293  0.0000E+00  0.1200E+00
     -7.208  0.0000E+00  0.1200E+00
     -7.122  0.0000E+00  0.1200E+00
     -7.036  0.0000E+00  0.1200E+00
     -6.950  0.0000E+00  0.1200E+00
     -6.865  0.0000E+00  0.1200E+00
     -6.779  0.0000E+00  0.1200E+00
     -6.693  0.0000E+00  0.1200E+00
     -6.607  0.0000E+00  0.1200E+00
     -6.522  0.0000E+00  0.1200E+00
     -6.436  0.0000E+00  0.1200E+00
     -6.350  0.0000E+00  0.1200E+00
     -6.264  0.0000E+00  0.1200E+00
     -6.179  0.0000E+00  0.1200E+00
     -6.093  0.0000E+00  0.1200E+00
     -6.007  0.0000E+00  0.1200E+00
     -5.921  0.0000E+00  0.1200E+00
     -5.836  0.0000E+00  0.1200E+00
     -5.750  0.0000E+00  0.1200E+00
     -5.664  0.0000E+00  0.1200E+00
     -5.578  0.0000E+00  0.1200E+00
     -5.493  0.0000E+00  0.1200E+00
     -5.407  0.0000E+00  0.1200E+00
     -5.321  0.0000E+00  0.1200E+00
     -5.235  0.0000E+00  0.1200E+00
     -5.150  0.0000E+00  0.1200E+00
     -5.064  0.0000E+00  0.1200E+00
     -4.978  0.0000E+00  0.1200E+00
     -4.892  0.0000E+00  0.1200E+00
     -4.807  0.0000E+00  0.1200E+00
     -4.721  0.0000E+00  0.1200E+00
     -4.635  0.0000E+00  0.1200E+00
     -4.549  0.0000E+00  0.1200E+00
     -4.464  0.0000E+00  0.1200E+00
     -4.378  0.0000E+00  0.1200E+00
     -4.292  0.0000E+00  0.1200E+00
     -4.206  0.1587E-31  0.1200E+00
     -4.121  0.9809E-26  0.1200E+00
     -4.035  0.1334E-20  0.1200E+00
     -3.949  0.3962E-16  0.1200E+00
     -3.863  0.2522E-12  0.1200E+00
     -3.778  0.3396E-09  0.1200E+00
     -3.692  0.9542E-07  0.1200E+00
     -3.606  0.5425E-05  0.1200E+00
     -3.520  0.4247E-04  0.1200E+00
     -3.435 -0.2827E-03  0.1200E+00
     -3.349  0.1279E-02  0.1201E+00
     -3.263  0.1233E-01  0.1211E+00
     -3.177  0.1205E-01  0.1222E+00
     -3.092  0.1795E-01  0.1237E+00
     -3.006  0.1114E-01  0.1247E+00
     -2.920  0.7711E-02  0.1253E+00
     -2.835  0.1720E-01  0.1268E+00
     -2.749  0.1046E-01  0.1277E+00
     -2.663  0.8725E-02  0.1285E+00
     -2.577  0.7792E-02  0.1291E+00
     -2.492  0.3849E-01  0.1324E+00
     -2.406  0.5519E-01  0.1372E+00
     -2.320  0.3845E-01  0.1405E+00
     -2.234  0.7158E-01  0.1466E+00
     -2.149  0.9518E-01  0.1548E+00
     -2.063  0.7767E-01  0.1614E+00
     -1.977  0.9055E-01  0.1692E+00
     -1.891  0.6317E-01  0.1746E+00
     -1.806  0.5986E-01  0.1797E+00
     -1.720  0.7581E-01  0.1862E+00
     -1.634  0.6173E-01  0.1915E+00
     -1.548  0.5611E-01  0.1963E+00
     -1.463  0.3928E-01  0.1997E+00
     -1.377  0.5382E-01  0.2043E+00
     -1.291  0.6536E-01  0.2099E+00
     -1.205  0.3259E-01  0.2127E+00
     -1.120  0.2761E-01  0.2151E+00
     -1.034  0.2106E-01  0.2169E+00
     -0.948  0.3766E-01  0.2201E+00
     -0.862  0.2801E-01  0.2225E+00
     -0.777  0.3510E-01  0.2255E+00
     -0.691  0.2061E-01  0.2273E+00
     -0.605  0.1291E-01  0.2284E+00
     -0.519  0.2623E-01  0.2307E+00
     -0.434  0.3028E-01  0.2332E+00
     -0.348  0.3165E-01  0.2360E+00
     -0.262  0.2692E-01  0.2383E+00
     -0.176  0.1229E-01  0.2393E+00
     -0.091  0.3111E-01  0.2420E+00
     -0.005  0.4896E-01  0.2462E+00
      0.081  0.5346E-01  0.2508E+00
      0.167  0.4542E-01  0.2547E+00
      0.252  0.5572E-01  0.2594E+00
      0.338  0.4154E-01  0.2630E+00
      0.424  0.2935E-01  0.2655E+00
      0.510  0.4675E-01  0.2695E+00
      0.595  0.6636E-01  0.2752E+00
      0.681  0.9009E-01  0.2829E+00
      0.767  0.7965E-01  0.2898E+00
      0.853  0.7850E-01  0.2965E+00
      0.938  0.7459E-01  0.3029E+00
      1.024  0.6524E-01  0.3085E+00
      1.110  0.5437E-01  0.3132E+00
      1.196  0.4261E-01  0.3168E+00
      1.281  0.5187E-01  0.3213E+00
      1.367  0.3345E-01  0.3241E+00
      1.453  0.6263E-01  0.3295E+00
      1.539  0.5581E-01  0.3343E+00
      1.624  0.7957E-01  0.3411E+00
      1.710  0.8441E-01  0.3483E+00
      1.796  0.7441E-01  0.3547E+00
      1.882  0.6603E-01  0.3604E+00
      1.967  0.3105E-01  0.3631E+00
      2.053  0.4405E-01  0.3668E+00
      2.139  0.8097E-01  0.3738E+00
      2.225  0.7329E-01  0.3801E+00
      2.310  0.6126E-01  0.3853E+00
      2.396  0.4418E-01  0.3891E+00
      2.482  0.8369E-01  0.3963E+00
      2.568  0.7421E-01  0.4026E+00
      2.653  0.6657E-01  0.4083E+00
      2.739  0.5007E-01  0.4126E+00
      2.825  0.7829E-01  0.4194E+00
      2.911  0.5675E-01  0.4242E+00
      2.996  0.3680E-01  0.4274E+00
      3.082  0.7471E-01  0.4338E+00
      3.168  0.4745E-01  0.4379E+00
      3.254  0.7047E-01  0.4439E+00
      3.339  0.1031E+00  0.4527E+00
      3.425  0.5660E-01  0.4576E+00
      3.511  0.8247E-01  0.4647E+00
      3.597  0.8202E-01  0.4717E+00
      3.682  0.3664E-01  0.4748E+00
      3.768  0.1421E-01  0.4760E+00
      3.854  0.2046E-01  0.4778E+00
      3.940  0.2179E-01  0.4797E+00
      4.025  0.4631E-02  0.4801E+00
      4.111  0.1263E-02  0.4802E+00
      4.197  0.1030E-01  0.4811E+00
      4.282  0.3184E-01  0.4838E+00
      4.368  0.3095E-01  0.4864E+00
      4.454  0.3795E-01  0.4897E+00
      4.540  0.4319E-01  0.4934E+00
      4.625  0.1676E-01  0.4948E+00
      4.711  0.1410E-01  0.4960E+00
      4.797  0.2081E-01  0.4978E+00
      4.883  0.4569E-01  0.5017E+00
      4.968  0.3274E-01  0.5046E+00
      5.054  0.3137E-01  0.5072E+00
      5.140  0.4911E-01  0.5115E+00
      5.226  0.4150E-01  0.5150E+00
      5.311  0.4339E-01  0.5187E+00
      5.397  0.5606E-01  0.5235E+00
      5.483  0.7365E-01  0.5299E+00
      5.569  0.8495E-01  0.5371E+00
      5.654  0.1134E+00  0.5469E+00
      5.740  0.1159E+00  0.5568E+00
      5.826  0.7330E-01  0.5631E+00
      5.912  0.2968E-01  0.5656E+00
      5.997  0.3732E-01  0.5688E+00
      6.083  0.4130E-01  0.5724E+00
      6.169  0.3829E-01  0.5757E+00
      6.255  0.2639E-01  0.5779E+00
      6.340  0.1803E-01  0.5795E+00
      6.426  0.1655E-01  0.5809E+00
      6.512  0.2521E-01  0.5831E+00
      6.598  0.1187E-01  0.5841E+00
      6.683  0.1224E-01  0.5851E+00
      6.769  0.1987E-01  0.5868E+00
      6.855  0.3059E-01  0.5894E+00
      6.941  0.3320E-01  0.5923E+00
      7.026  0.2819E-01  0.5947E+00
      7.112  0.1973E-01  0.5964E+00
      7.198  0.1501E-01  0.5977E+00
      7.284  0.2216E-01  0.5996E+00
      7.369  0.1111E-01  0.6005E+00
      7.455  0.1351E-01  0.6017E+00
      7.541  0.2372E-01  0.6037E+00
      7.627  0.3335E-01  0.6066E+00
      7.712  0.5533E-01  0.6113E+00
      7.798  0.4191E-01  0.6149E+00
      7.884  0.2880E-01  0.6174E+00
      7.970  0.3364E-01  0.6203E+00
      8.055  0.2891E-01  0.6228E+00
      8.141  0.3987E-01  0.6262E+00
      8.227  0.4428E-01  0.6300E+00
      8.313  0.5470E-01  0.6347E+00
      8.398  0.1567E-01  0.6360E+00
      8.484  0.7606E-02  0.6367E+00
      8.570  0.3293E-01  0.6395E+00
      8.656  0.3804E-01  0.6428E+00
      8.741  0.2930E-01  0.6453E+00
      8.827  0.1510E-01  0.6466E+00
      8.913  0.2625E-01  0.6488E+00
      8.999  0.5454E-01  0.6535E+00
      9.084  0.4530E-01  0.6574E+00
      9.170  0.3375E-01  0.6603E+00
      9.256  0.4108E-01  0.6638E+00
      9.342  0.5410E-01  0.6684E+00
      9.427  0.3944E-01  0.6718E+00
      9.513  0.3731E-01  0.6750E+00
      9.599  0.4280E-01  0.6787E+00
      9.685  0.5112E-01  0.6831E+00
      9.770  0.3459E-01  0.6860E+00
      9.856  0.3522E-01  0.6890E+00
      9.942  0.4914E-01  0.6933E+00
     10.028  0.3301E-01  0.6961E+00
     10.113  0.3320E-01  0.6989E+00
     10.199  0.3936E-01  0.7023E+00
     10.285  0.4073E-01  0.7058E+00
     10.371  0.3395E-01  0.7087E+00
     10.456  0.4571E-01  0.7126E+00
     10.542  0.6018E-01  0.7178E+00
     10.628  0.7046E-01  0.7238E+00
     10.714  0.8047E-01  0.7307E+00
     10.799  0.6292E-01  0.7361E+00
     10.885  0.8684E-01  0.7436E+00
     10.971  0.6244E-01  0.7489E+00
     11.057  0.5590E-01  0.7537E+00
     11.142  0.4782E-01  0.7578E+00
     11.228  0.5345E-01  0.7624E+00
     11.314  0.3710E-01  0.7656E+00
     11.400  0.6279E-01  0.7710E+00
     11.485  0.5951E-01  0.7761E+00
     11.571  0.5760E-01  0.7810E+00
     11.657  0.2884E-01  0.7835E+00
     11.742  0.3491E-01  0.7865E+00
     11.828  0.2272E-01  0.7884E+00
     11.914  0.3024E-01  0.7910E+00
     12.000  0.4342E-01  0.7948E+00
     12.085  0.1479E-01  0.7960E+00
     12.171  0.1380E-01  0.7972E+00
     12.257  0.2264E-01  0.7991E+00
     12.343  0.1038E-01  0.8000E+00
     12.428 -0.7822E-03  0.8000E+00
     12.514  0.3266E-03  0.8000E+00
     12.600  0.5891E-04  0.8000E+00
     12.686 -0.8805E-05  0.8000E+00
     12.771  0.1569E-05  0.8000E+00
     12.857  0.7266E-07  0.8000E+00
     12.943  0.4113E-09  0.8000E+00
     13.029  0.4211E-12  0.8000E+00
     13.114  0.8675E-16  0.8000E+00
     13.200  0.0000E+00  0.8000E+00
     13.286  0.0000E+00  0.8000E+00
     13.372  0.0000E+00  0.8000E+00
     13.457  0.0000E+00  0.8000E+00
     13.543  0.0000E+00  0.8000E+00
     13.629  0.0000E+00  0.8000E+00
