   14   14  100    1
  0.1271322E+02  0.8360158E-09  0.8360158E-09  0.2940519E-09  0.5000000E-15
  1.000000000000000E-004
  CAR 
 unknown system                          
     62     64     40
 
  0.3742002E-15  0.3742002E-15  0.3742002E-15  0.1851852E-02
    1      -10.925917   1.000000
    2      -10.246342   1.000000
    3      -10.246342   1.000000
    4       -9.294925   1.000000
    5       -9.294925   1.000000
    6       -8.698794   1.000000
    7       -2.602564   1.000000
    8       -2.512381   1.000000
    9       -2.264532   1.000000
   10       -2.264531   1.000000
   11       -1.111455   1.000000
   12        0.416423   1.000000
   13        0.416423   1.000000
   14        1.593619   1.000000
   15        1.593619   1.000000
   16        2.313196   1.000000
   17        2.313196   1.000000
   18        2.393029   1.000000
   19        2.537118   1.000000
   20        2.800750   1.000000
   21        2.800750   1.000000
   22        3.485774   1.000000
   23        3.485774   1.000000
   24        3.875421   1.000000
   25        4.180780   1.000000
   26        4.443196   1.000000
   27        5.872675   1.000000
   28        5.872675   1.000000
   29        6.529777   1.000000
   30        7.442160   1.000000
   31        7.442161   1.000000
   32        9.893307   0.000000
   33        9.893306   0.000000
   34       10.067872   0.000000
   35       10.588825   0.000000
   36       10.588826   0.000000
   37       11.072640   0.000000
   38       11.978191   0.000000
   39       11.978192   0.000000
   40       12.459652   0.000000
 
  0.1666667E+00  0.3752944E-15  0.3742002E-15  0.1111111E-01
    1      -10.895025   1.000000
    2      -10.292735   1.000000
    3      -10.259255   1.000000
    4       -9.325006   1.000000
    5       -9.270252   1.000000
    6       -8.649962   1.000000
    7       -2.901896   1.000000
    8       -2.448803   1.000000
    9       -2.244106   1.000000
   10       -1.936243   1.000000
   11       -1.219371   1.000000
   12        0.309698   1.000000
   13        0.484470   1.000000
   14        1.443021   1.000000
   15        1.557605   1.000000
   16        2.214993   1.000000
   17        2.406747   1.000000
   18        2.459212   1.000000
   19        2.760098   1.000000
   20        2.782971   1.000000
   21        2.796720   1.000000
   22        3.477489   1.000000
   23        3.491861   1.000000
   24        3.884777   1.000000
   25        4.202905   1.000000
   26        4.670023   1.000000
   27        5.555567   1.000000
   28        5.690027   1.000000
   29        6.487448   1.000000
   30        7.623475   0.999953
   31        7.724635   0.996857
   32        9.693801   0.000000
   33        9.908194   0.000000
   34       10.100929   0.000000
   35       10.465684   0.000000
   36       10.593994   0.000000
   37       11.230573   0.000000
   38       11.683241   0.000000
   39       11.888689   0.000000
   40       12.287496   0.000000
 
  0.3333333E+00  0.3760214E-15  0.3742002E-15  0.1111111E-01
    1      -10.814087   1.000000
    2      -10.405091   1.000000
    3      -10.283606   1.000000
    4       -9.370724   1.000000
    5       -9.222229   1.000000
    6       -8.566929   1.000000
    7       -3.194412   1.000000
    8       -2.276919   1.000000
    9       -2.199673   1.000000
   10       -1.654630   1.000000
   11       -1.403995   1.000000
   12        0.114224   1.000000
   13        0.667895   1.000000
   14        1.193041   1.000000
   15        1.375155   1.000000
   16        2.283633   1.000000
   17        2.438914   1.000000
   18        2.724376   1.000000
   19        2.742787   1.000000
   20        2.788565   1.000000
   21        3.025678   1.000000
   22        3.464381   1.000000
   23        3.506605   1.000000
   24        3.904860   1.000000
   25        4.215809   1.000000
   26        4.848985   1.000000
   27        5.271018   1.000000
   28        5.547150   1.000000
   29        6.275476   1.000000
   30        7.852420   1.048031
   31        8.306180   0.000025
   32        9.314168   0.000000
   33        9.890344   0.000000
   34       10.098284   0.000000
   35       10.256620   0.000000
   36       10.578207   0.000000
   37       11.247385   0.000000
   38       11.558328   0.000000
   39       11.684621   0.000000
   40       11.962960   0.000000
 
  0.5000000E+00  0.3813871E-15  0.3742002E-15  0.5555556E-02
    1      -10.750899   1.000000
    2      -10.484078   1.000000
    3      -10.295135   1.000000
    4       -9.388717   1.000000
    5       -9.198674   1.000000
    6       -8.530358   1.000000
    7       -3.300917   1.000000
    8       -2.179020   1.000000
    9       -2.120852   1.000000
   10       -1.754379   1.000000
   11       -1.357778   1.000000
   12        0.022342   1.000000
   13        0.829950   1.000000
   14        1.041416   1.000000
   15        1.254426   1.000000
   16        2.350046   1.000000
   17        2.459742   1.000000
   18        2.719534   1.000000
   19        2.784226   1.000000
   20        2.846010   1.000000
   21        3.153586   1.000000
   22        3.458220   1.000000
   23        3.513772   1.000000
   24        3.914231   1.000000
   25        4.291012   1.000000
   26        4.516692   1.000000
   27        5.332038   1.000000
   28        5.879126   1.000000
   29        5.947944   1.000000
   30        7.906757   0.952970
   31        8.873595   0.000000
   32        8.941123   0.000000
   33        9.704307   0.000000
   34        9.948819   0.000000
   35       10.450194   0.000000
   36       10.474489   0.000000
   37       11.149636   0.000000
   38       11.570439   0.000000
   39       11.717305   0.000000
   40       11.778024   0.000000
 
  0.1666667E+00  0.1666667E+00  0.3742002E-15  0.1111111E-01
    1      -10.838522   1.000000
    2      -10.358703   1.000000
    3      -10.293669   1.000000
    4       -9.347024   1.000000
    5       -9.246235   1.000000
    6       -8.585735   1.000000
    7       -3.137919   1.000000
    8       -2.335514   1.000000
    9       -2.172743   1.000000
   10       -1.720286   1.000000
   11       -1.379897   1.000000
   12        0.219315   1.000000
   13        0.543111   1.000000
   14        1.183114   1.000000
   15        1.608267   1.000000
   16        2.157035   1.000000
   17        2.430626   1.000000
   18        2.626640   1.000000
   19        2.758826   1.000000
   20        2.786600   1.000000
   21        3.005667   1.000000
   22        3.471821   1.000000
   23        3.500260   1.000000
   24        3.900689   1.000000
   25        4.206029   1.000000
   26        4.935216   1.000000
   27        5.292804   1.000000
   28        5.460616   1.000000
   29        6.372362   1.000000
   30        7.882590   1.036041
   31        8.071934  -0.044155
   32        9.377799   0.000000
   33        9.913261   0.000000
   34       10.182690   0.000000
   35       10.280063   0.000000
   36       10.561606   0.000000
   37       11.329765   0.000000
   38       11.488543   0.000000
   39       11.748916   0.000000
   40       12.030569   0.000000
 
  0.3333333E+00  0.1666667E+00  0.3742002E-15  0.1111111E-01
    1      -10.757090   1.000000
    2      -10.446711   1.000000
    3      -10.332982   1.000000
    4       -9.353370   1.000000
    5       -9.228701   1.000000
    6       -8.529098   1.000000
    7       -3.310030   1.000000
    8       -2.169768   1.000000
    9       -2.039697   1.000000
   10       -1.765594   1.000000
   11       -1.480767   1.000000
   12        0.193160   1.000000
   13        0.616224   1.000000
   14        0.935478   1.000000
   15        1.594154   1.000000
   16        2.380795   1.000000
   17        2.458144   1.000000
   18        2.526019   1.000000
   19        2.731170   1.000000
   20        2.772622   1.000000
   21        3.260475   1.000000
   22        3.468941   1.000000
   23        3.504606   1.000000
   24        3.914321   1.000000
   25        4.235895   1.000000
   26        4.803437   1.000000
   27        5.079290   1.000000
   28        5.778251   1.000000
   29        6.119033   1.000000
   30        8.076792  -0.040099
   31        8.541059   0.000000
   32        9.147757   0.000000
   33        9.433943   0.000000
   34       10.238406   0.000000
   35       10.375691   0.000000
   36       10.496932   0.000000
   37       11.184714   0.000000
   38       11.527976   0.000000
   39       11.743446   0.000000
   40       11.787685   0.000000
 
  0.5000000E+00  0.1666667E+00  0.3742002E-15  0.1111111E-01
    1      -10.757090   1.000000
    2      -10.446756   1.000000
    3      -10.332971   1.000000
    4       -9.353345   1.000000
    5       -9.228736   1.000000
    6       -8.529066   1.000000
    7       -3.310181   1.000000
    8       -2.159534   1.000000
    9       -2.057226   1.000000
   10       -1.755146   1.000000
   11       -1.483528   1.000000
   12        0.185964   1.000000
   13        0.677063   1.000000
   14        0.843367   1.000000
   15        1.718623   1.000000
   16        2.159089   1.000000
   17        2.458712   1.000000
   18        2.669139   1.000000
   19        2.730588   1.000000
   20        2.772641   1.000000
   21        3.259858   1.000000
   22        3.467921   1.000000
   23        3.505062   1.000000
   24        3.914952   1.000000
   25        4.264282   1.000000
   26        4.679235   1.000000
   27        5.213130   1.000000
   28        5.694263   1.000000
   29        6.164012   1.000000
   30        8.035858  -0.035485
   31        8.649297   0.000000
   32        8.980784   0.000000
   33        9.565481   0.000000
   34       10.173884   0.000000
   35       10.367024   0.000000
   36       10.541673   0.000000
   37       11.169258   0.000000
   38       11.566513   0.000000
   39       11.671201   0.000000
   40       11.805575   0.000000
 
  0.3333333E+00  0.3333333E+00  0.3742002E-15  0.3703704E-02
    1      -10.723372   1.000000
    2      -10.417202   1.000000
    3      -10.417202   1.000000
    4       -9.286292   1.000000
    5       -9.286292   1.000000
    6       -8.510451   1.000000
    7       -3.366572   1.000000
    8       -1.983568   1.000000
    9       -1.983568   1.000000
   10       -1.743684   1.000000
   11       -1.743684   1.000000
   12        0.518523   1.000000
   13        0.518523   1.000000
   14        0.584825   1.000000
   15        2.149680   1.000000
   16        2.149680   1.000000
   17        2.273018   1.000000
   18        2.468383   1.000000
   19        2.743830   1.000000
   20        2.743830   1.000000
   21        3.370777   1.000000
   22        3.486904   1.000000
   23        3.486904   1.000000
   24        3.918831   1.000000
   25        4.349525   1.000000
   26        4.834132   1.000000
   27        4.834132   1.000000
   28        5.997925   1.000000
   29        5.997926   1.000000
   30        8.238269   0.000745
   31        8.925726   0.000000
   32        8.925726   0.000000
   33        8.971107   0.000000
   34       10.211353   0.000000
   35       10.532433   0.000000
   36       10.532435   0.000000
   37       11.171570   0.000000
   38       11.517210   0.000000
   39       11.517212   0.000000
   40       12.074594   0.000000
 
  0.3742002E-15  0.3742002E-15  0.6666667E-01  0.3703704E-02
    1      -10.874589   1.000000
    2      -10.199830   1.000000
    3      -10.199830   1.000000
    4       -9.256488   1.000000
    5       -9.256488   1.000000
    6       -8.669865   1.000000
    7       -2.548897   1.000000
    8       -2.447066   1.000000
    9       -2.234856   1.000000
   10       -2.234856   1.000000
   11       -1.077737   1.000000
   12        0.425440   1.000000
   13        0.425440   1.000000
   14        1.642343   1.000000
   15        1.642343   1.000000
   16        2.159627   1.000000
   17        2.287034   1.000000
   18        2.287034   1.000000
   19        2.527855   1.000000
   20        2.567148   1.000000
   21        2.567148   1.000000
   22        3.298735   1.000000
   23        3.298735   1.000000
   24        3.438838   1.000000
   25        4.250987   1.000000
   26        4.662730   1.000000
   27        5.900623   1.000000
   28        5.900623   1.000000
   29        6.524821   1.000000
   30        7.551228   1.000000
   31        7.551229   1.000000
   32        9.840516   0.000000
   33        9.840516   0.000000
   34        9.911470   0.000000
   35       10.730760   0.000000
   36       10.730760   0.000000
   37       11.257589   0.000000
   38       12.016524   0.000000
   39       12.157776   0.000000
   40       12.157776   0.000000
 
  0.1666667E+00  0.3752944E-15  0.6666667E-01  0.2222222E-01
    1      -10.843881   1.000000
    2      -10.245802   1.000000
    3      -10.212614   1.000000
    4       -9.286530   1.000000
    5       -9.232404   1.000000
    6       -8.621631   1.000000
    7       -2.851639   1.000000
    8       -2.384154   1.000000
    9       -2.213437   1.000000
   10       -1.904153   1.000000
   11       -1.180578   1.000000
   12        0.319762   1.000000
   13        0.489632   1.000000
   14        1.486911   1.000000
   15        1.571427   1.000000
   16        2.119275   1.000000
   17        2.240280   1.000000
   18        2.398117   1.000000
   19        2.561683   1.000000
   20        2.611082   1.000000
   21        2.760413   1.000000
   22        3.282784   1.000000
   23        3.309166   1.000000
   24        3.497246   1.000000
   25        4.279685   1.000000
   26        4.848162   1.000000
   27        5.594006   1.000000
   28        5.724372   1.000000
   29        6.483142   1.000000
   30        7.706991   0.998072
   31        7.810566   1.011800
   32        9.684570   0.000000
   33        9.862468   0.000000
   34        9.968788   0.000000
   35       10.585426   0.000000
   36       10.711775   0.000000
   37       11.389826   0.000000
   38       11.880934   0.000000
   39       11.928525   0.000000
   40       12.083675   0.000000
 
  0.3333333E+00  0.3760214E-15  0.6666667E-01  0.2222222E-01
    1      -10.763473   1.000000
    2      -10.357209   1.000000
    3      -10.236702   1.000000
    4       -9.332122   1.000000
    5       -9.185271   1.000000
    6       -8.539594   1.000000
    7       -3.142016   1.000000
    8       -2.215741   1.000000
    9       -2.165118   1.000000
   10       -1.612064   1.000000
   11       -1.368785   1.000000
   12        0.124327   1.000000
   13        0.662243   1.000000
   14        1.227592   1.000000
   15        1.384704   1.000000
   16        2.077283   1.000000
   17        2.265641   1.000000
   18        2.506228   1.000000
   19        2.584669   1.000000
   20        2.790211   1.000000
   21        3.051601   1.000000
   22        3.280309   1.000000
   23        3.332096   1.000000
   24        3.562192   1.000000
   25        4.326901   1.000000
   26        4.937586   1.000000
   27        5.318445   1.000000
   28        5.576259   1.000000
   29        6.280692   1.000000
   30        7.903256   0.970310
   31        8.365838   0.000001
   32        9.369180   0.000000
   33        9.869198   0.000000
   34       10.066399   0.000000
   35       10.250050   0.000000
   36       10.650454   0.000000
   37       11.465889   0.000000
   38       11.686406   0.000000
   39       11.742938   0.000000
   40       11.920464   0.000000
 
  0.5000000E+00  0.3813871E-15  0.6666667E-01  0.1111111E-01
    1      -10.700729   1.000000
    2      -10.435447   1.000000
    3      -10.248062   1.000000
    4       -9.350013   1.000000
    5       -9.162187   1.000000
    6       -8.503587   1.000000
    7       -3.247750   1.000000
    8       -2.145655   1.000000
    9       -2.059998   1.000000
   10       -1.695507   1.000000
   11       -1.334422   1.000000
   12        0.031763   1.000000
   13        0.812454   1.000000
   14        1.064408   1.000000
   15        1.284605   1.000000
   16        2.113969   1.000000
   17        2.219492   1.000000
   18        2.510095   1.000000
   19        2.631596   1.000000
   20        2.886485   1.000000
   21        3.214031   1.000000
   22        3.302173   1.000000
   23        3.349231   1.000000
   24        3.571449   1.000000
   25        4.419086   1.000000
   26        4.577969   1.000000
   27        5.356786   1.000000
   28        5.873506   1.000000
   29        5.988021   1.000000
   30        7.953198   0.565174
   31        8.946886   0.000000
   32        8.986800   0.000000
   33        9.758080   0.000000
   34        9.903031   0.000000
   35       10.329941   0.000000
   36       10.592060   0.000000
   37       11.368132   0.000000
   38       11.676996   0.000000
   39       11.757374   0.000000
   40       11.828617   0.000000
 
  0.1666667E+00  0.1666667E+00  0.6666667E-01  0.2222222E-01
    1      -10.787768   1.000000
    2      -10.311238   1.000000
    3      -10.246700   1.000000
    4       -9.308658   1.000000
    5       -9.208957   1.000000
    6       -8.558275   1.000000
    7       -3.086423   1.000000
    8       -2.273102   1.000000
    9       -2.140477   1.000000
   10       -1.684816   1.000000
   11       -1.338119   1.000000
   12        0.226132   1.000000
   13        0.549349   1.000000
   14        1.206753   1.000000
   15        1.605535   1.000000
   16        2.062777   1.000000
   17        2.235533   1.000000
   18        2.460336   1.000000
   19        2.543909   1.000000
   20        2.741333   1.000000
   21        3.010079   1.000000
   22        3.271108   1.000000
   23        3.332743   1.000000
   24        3.549937   1.000000
   25        4.310477   1.000000
   26        5.050771   1.000000
   27        5.332660   1.000000
   28        5.494878   1.000000
   29        6.369949   1.000000
   30        7.938793   0.710734
   31        8.137587   0.002461
   32        9.417547   0.000000
   33        9.896080   0.000000
   34       10.075270   0.000000
   35       10.356621   0.000000
   36       10.633502   0.000000
   37       11.519483   0.000000
   38       11.629963   0.000000
   39       11.815730   0.000000
   40       11.956713   0.000000
 
  0.3333333E+00  0.1666667E+00  0.6666667E-01  0.2222222E-01
    1      -10.706899   1.000000
    2      -10.398437   1.000000
    3      -10.285582   1.000000
    4       -9.315084   1.000000
    5       -9.191883   1.000000
    6       -8.502270   1.000000
    7       -3.257057   1.000000
    8       -2.118214   1.000000
    9       -1.998112   1.000000
   10       -1.710532   1.000000
   11       -1.450052   1.000000
   12        0.195702   1.000000
   13        0.628687   1.000000
   14        0.941440   1.000000
   15        1.598991   1.000000
   16        2.071480   1.000000
   17        2.301678   1.000000
   18        2.460402   1.000000
   19        2.557945   1.000000
   20        2.753025   1.000000
   21        3.247910   1.000000
   22        3.295317   1.000000
   23        3.359520   1.000000
   24        3.582646   1.000000
   25        4.353013   1.000000
   26        4.872696   1.000000
   27        5.121700   1.000000
   28        5.786534   1.000000
   29        6.129148   1.000000
   30        8.110558  -0.010083
   31        8.611757   0.000000
   32        9.215239   0.000000
   33        9.480215   0.000000
   34       10.178212   0.000000
   35       10.379830   0.000000
   36       10.481822   0.000000
   37       11.433462   0.000000
   38       11.571107   0.000000
   39       11.754345   0.000000
   40       11.906981   0.000000
 
  0.5000000E+00  0.1666667E+00  0.6666667E-01  0.2222222E-01
    1      -10.706888   1.000000
    2      -10.398469   1.000000
    3      -10.285590   1.000000
    4       -9.315063   1.000000
    5       -9.191865   1.000000
    6       -8.502263   1.000000
    7       -3.257095   1.000000
    8       -2.104454   1.000000
    9       -2.020236   1.000000
   10       -1.697952   1.000000
   11       -1.454035   1.000000
   12        0.188772   1.000000
   13        0.682511   1.000000
   14        0.861331   1.000000
   15        1.698650   1.000000
   16        2.088503   1.000000
   17        2.138356   1.000000
   18        2.486466   1.000000
   19        2.580200   1.000000
   20        2.791837   1.000000
   21        3.223103   1.000000
   22        3.293268   1.000000
   23        3.391285   1.000000
   24        3.576166   1.000000
   25        4.386779   1.000000
   26        4.745123   1.000000
   27        5.248362   1.000000
   28        5.718513   1.000000
   29        6.162792   1.000000
   30        8.080295  -0.036917
   31        8.699341   0.000000
   32        9.062093   0.000000
   33        9.603418   0.000000
   34       10.179722   0.000000
   35       10.292730   0.000000
   36       10.540581   0.000000
   37       11.397525   0.000000
   38       11.660635   0.000000
   39       11.695117   0.000000
   40       11.891933   0.000000
 
  0.3333333E+00  0.3333333E+00  0.6666667E-01  0.7407407E-02
    1      -10.673410   1.000000
    2      -10.369163   1.000000
    3      -10.369163   1.000000
    4       -9.248856   1.000000
    5       -9.248856   1.000000
    6       -8.483892   1.000000
    7       -3.313289   1.000000
    8       -1.932351   1.000000
    9       -1.932350   1.000000
   10       -1.703737   1.000000
   11       -1.703737   1.000000
   12        0.502905   1.000000
   13        0.502905   1.000000
   14        0.638888   1.000000
   15        2.052338   1.000000
   16        2.052338   1.000000
   17        2.062453   1.000000
   18        2.388138   1.000000
   19        2.635738   1.000000
   20        2.635738   1.000000
   21        3.289593   1.000000
   22        3.289593   1.000000
   23        3.399650   1.000000
   24        3.611389   1.000000
   25        4.472363   1.000000
   26        4.883220   1.000000
   27        4.883220   1.000000
   28        5.997593   1.000000
   29        5.997594   1.000000
   30        8.270653   0.000174
   31        8.995399   0.000000
   32        8.995399   0.000000
   33        9.044575   0.000000
   34       10.294700   0.000000
   35       10.415834   0.000000
   36       10.415835   0.000000
   37       11.450118   0.000000
   38       11.574726   0.000000
   39       11.574735   0.000000
   40       12.149930   0.000000
 
  0.3742002E-15  0.3742002E-15  0.1333333E+00  0.3703704E-02
    1      -10.722530   1.000000
    2      -10.062786   1.000000
    3      -10.062786   1.000000
    4       -9.145608   1.000000
    5       -9.145608   1.000000
    6       -8.589472   1.000000
    7       -2.392846   1.000000
    8       -2.252628   1.000000
    9       -2.159658   1.000000
   10       -2.159658   1.000000
   11       -0.996370   1.000000
   12        0.409037   1.000000
   13        0.409037   1.000000
   14        1.605923   1.000000
   15        1.736294   1.000000
   16        1.736294   1.000000
   17        2.053635   1.000000
   18        2.053636   1.000000
   19        2.128883   1.000000
   20        2.128884   1.000000
   21        2.465608   1.000000
   22        2.664645   1.000000
   23        2.980943   1.000000
   24        2.980944   1.000000
   25        4.378456   1.000000
   26        4.976771   1.000000
   27        5.946787   1.000000
   28        5.946787   1.000000
   29        6.462546   1.000000
   30        7.804857   1.007831
   31        7.804858   1.007831
   32        9.313979   0.000000
   33        9.618593   0.000000
   34        9.618593   0.000000
   35       10.724804   0.000000
   36       11.017994   0.000000
   37       11.017995   0.000000
   38       11.502656   0.000000
   39       12.230043   0.000000
   40       12.230043   0.000000
 
  0.1666667E+00  0.3752944E-15  0.1333333E+00  0.2222222E-01
    1      -10.692394   1.000000
    2      -10.107558   1.000000
    3      -10.075167   1.000000
    4       -9.175491   1.000000
    5       -9.123028   1.000000
    6       -8.542675   1.000000
    7       -2.706371   1.000000
    8       -2.192204   1.000000
    9       -2.134576   1.000000
   10       -1.819817   1.000000
   11       -1.079246   1.000000
   12        0.309105   1.000000
   13        0.460835   1.000000
   14        1.420257   1.000000
   15        1.593833   1.000000
   16        1.752694   1.000000
   17        1.870434   1.000000
   18        1.966383   1.000000
   19        2.280858   1.000000
   20        2.387736   1.000000
   21        2.638606   1.000000
   22        2.709787   1.000000
   23        2.999958   1.000000
   24        3.028498   1.000000
   25        4.436740   1.000000
   26        5.116223   1.000000
   27        5.671051   1.000000
   28        5.786960   1.000000
   29        6.428164   1.000000
   30        7.903788   0.967795
   31        8.014582   0.034046
   32        9.360000   0.000000
   33        9.569936   0.000000
   34        9.669106   0.000000
   35       10.687879   0.000000
   36       10.820170   0.000000
   37       10.969492   0.000000
   38       11.535579   0.000000
   39       12.116926   0.000000
   40       12.262873   0.000000
 
  0.3333333E+00  0.3760214E-15  0.1333333E+00  0.2222222E-01
    1      -10.613660   1.000000
    2      -10.215991   1.000000
    3      -10.098404   1.000000
    4       -9.220579   1.000000
    5       -9.078777   1.000000
    6       -8.463667   1.000000
    7       -2.989343   1.000000
    8       -2.090414   1.000000
    9       -2.020419   1.000000
   10       -1.507028   1.000000
   11       -1.263040   1.000000
   12        0.118388   1.000000
   13        0.594098   1.000000
   14        1.225326   1.000000
   15        1.396517   1.000000
   16        1.521701   1.000000
   17        1.785478   1.000000
   18        2.014543   1.000000
   19        2.453606   1.000000
   20        2.547540   1.000000
   21        2.786560   1.000000
   22        2.834533   1.000000
   23        3.151696   1.000000
   24        3.203410   1.000000
   25        4.530503   1.000000
   26        5.095463   1.000000
   27        5.416567   1.000000
   28        5.626713   1.000000
   29        6.261414   1.000000
   30        8.031721  -0.026839
   31        8.508644   0.000000
   32        9.426017   0.000000
   33        9.476819   0.000000
   34        9.706283   0.000000
   35       10.297252   0.000000
   36       10.687116   0.000000
   37       10.880513   0.000000
   38       11.495875   0.000000
   39       11.991794   0.000000
   40       12.206541   0.000000
 
  0.5000000E+00  0.3813871E-15  0.1333333E+00  0.1111111E-01
    1      -10.552354   1.000000
    2      -10.292232   1.000000
    3      -10.109395   1.000000
    4       -9.238249   1.000000
    5       -9.057064   1.000000
    6       -8.429063   1.000000
    7       -3.091676   1.000000
    8       -2.061134   1.000000
    9       -1.880848   1.000000
   10       -1.523301   1.000000
   11       -1.279329   1.000000
   12        0.026061   1.000000
   13        0.698602   1.000000
   14        1.078139   1.000000
   15        1.368395   1.000000
   16        1.441119   1.000000
   17        1.735752   1.000000
   18        2.012559   1.000000
   19        2.528322   1.000000
   20        2.555710   1.000000
   21        2.838841   1.000000
   22        2.884572   1.000000
   23        3.309883   1.000000
   24        3.326440   1.000000
   25        4.622701   1.000000
   26        4.729382   1.000000
   27        5.409826   1.000000
   28        5.844082   1.000000
   29        6.045922   1.000000
   30        8.071415  -0.044555
   31        9.086873   0.000000
   32        9.098377   0.000000
   33        9.575570   0.000000
   34        9.607227   0.000000
   35        9.989795   0.000000
   36       10.693191   0.000000
   37       10.873302   0.000000
   38       11.429879   0.000000
   39       11.962892   0.000000
   40       12.112851   0.000000
 
  0.1666667E+00  0.1666667E+00  0.1333333E+00  0.2222222E-01
    1      -10.637419   1.000000
    2      -10.171232   1.000000
    3      -10.108183   1.000000
    4       -9.197759   1.000000
    5       -9.101337   1.000000
    6       -8.481609   1.000000
    7       -2.935853   1.000000
    8       -2.099591   1.000000
    9       -2.045951   1.000000
   10       -1.595141   1.000000
   11       -1.218651   1.000000
   12        0.209058   1.000000
   13        0.514130   1.000000
   14        1.263866   1.000000
   15        1.373726   1.000000
   16        1.643654   1.000000
   17        1.817999   1.000000
   18        2.126407   1.000000
   19        2.253480   1.000000
   20        2.583295   1.000000
   21        2.763660   1.000000
   22        2.780958   1.000000
   23        3.022509   1.000000
   24        3.217120   1.000000
   25        4.506084   1.000000
   26        5.238079   1.000000
   27        5.425366   1.000000
   28        5.562397   1.000000
   29        6.329956   1.000000
   30        8.067449  -0.047344
   31        8.304044   0.000029
   32        9.382375   0.000000
   33        9.521401   0.000000
   34        9.716548   0.000000
   35       10.481280   0.000000
   36       10.686098   0.000000
   37       10.848916   0.000000
   38       11.510559   0.000000
   39       12.021087   0.000000
   40       12.229276   0.000000
 
  0.3333333E+00  0.1666667E+00  0.1333333E+00  0.2222222E-01
    1      -10.558320   1.000000
    2      -10.256130   1.000000
    3      -10.145945   1.000000
    4       -9.204604   1.000000
    5       -9.085699   1.000000
    6       -8.427774   1.000000
    7       -3.101761   1.000000
    8       -1.997035   1.000000
    9       -1.861800   1.000000
   10       -1.556955   1.000000
   11       -1.362809   1.000000
   12        0.165431   1.000000
   13        0.581736   1.000000
   14        0.984126   1.000000
   15        1.411289   1.000000
   16        1.501829   1.000000
   17        1.747544   1.000000
   18        2.149232   1.000000
   19        2.439783   1.000000
   20        2.606741   1.000000
   21        2.823638   1.000000