 running on   16 total cores
 distrk:  each k-point on   16 cores,    1 groups
 distr:  one band on    4 cores,    4 groups
 using from now: INCAR     
 vasp.5.4.4.18Apr17-6-g9f103f2a35 (build Nov 01 2019 12:17:22) complex          
  
 POSCAR found type information on POSCAR  Si N 
 POSCAR found :  2 types and      14 ions
 WARNING: type information on POSCAR and POTCAR are incompatible
 POTCAR overwrites the type information in POSCAR
 typ   1 type information:  Si N 
 WARNING: type information on POSCAR and POTCAR are incompatible
 POTCAR overwrites the type information in POSCAR
 typ   2 type information:  N  Si
 LDA part: xc-table for Pade appr. of Perdew
 generate k-points for:    6    6   15
 POSCAR, INCAR and KPOINTS ok, starting setup
 FFT: planning ...
 WAVECAR not read
 entering main loop
       N       E                     dE             d eps       ncg     rms          rms(c)
DAV:   1     0.222545771530E+03    0.22255E+03   -0.24736E+04  5144   0.113E+03
DAV:   2    -0.778823853712E+02   -0.30043E+03   -0.28825E+03  6472   0.232E+02
DAV:   3    -0.102172392575E+03   -0.24290E+02   -0.23708E+02  6520   0.686E+01
DAV:   4    -0.102818089309E+03   -0.64570E+00   -0.64154E+00  6584   0.117E+01
DAV:   5    -0.102835050885E+03   -0.16962E-01   -0.16951E-01  6544   0.183E+00    0.205E+01
RMM:   6    -0.948830100314E+02    0.79520E+01   -0.49995E+01  5120   0.233E+01    0.943E+00
RMM:   7    -0.943263642830E+02    0.55665E+00   -0.10405E+00  5170   0.368E+00    0.536E+00
RMM:   8    -0.942698435289E+02    0.56521E-01   -0.72140E-01  5126   0.293E+00    0.119E+00
RMM:   9    -0.942349400102E+02    0.34904E-01   -0.24591E-01  5157   0.169E+00    0.503E-01
RMM:  10    -0.942330054783E+02    0.19345E-02   -0.94453E-03  5226   0.400E-01    0.209E-01
RMM:  11    -0.942337498904E+02   -0.74441E-03   -0.67986E-03  5143   0.311E-01    0.823E-02
RMM:  12    -0.942336890409E+02    0.60850E-04   -0.89689E-04  4863   0.113E-01
   1 F= -.94233689E+02 E0= -.94233842E+02  d E =-.942337E+02
 curvature:   0.00 expect dE= 0.000E+00 dE for cont linesearch  0.000E+00
 trial: gam= 0.00000 g(F)=  0.327E+00 g(S)=  0.000E+00 ort = 0.000E+00 (trialstep = 0.100E+01)
 search vector abs. value=  0.327E+00
 bond charge predicted
       N       E                     dE             d eps       ncg     rms          rms(c)
DAV:   1    -0.943689242328E+02   -0.13517E+00   -0.16180E+01  5488   0.219E+01    0.961E-01
RMM:   2    -0.943880498919E+02   -0.19126E-01   -0.37446E-01  5153   0.286E+00    0.576E-01
RMM:   3    -0.943827669540E+02    0.52829E-02   -0.48021E-02  5287   0.784E-01    0.274E-01
RMM:   4    -0.943824791962E+02    0.28776E-03   -0.46131E-03  5359   0.237E-01    0.154E-01
RMM:   5    -0.943825382459E+02   -0.59050E-04   -0.57424E-04  4541   0.944E-02
   2 F= -.94382538E+02 E0= -.94382075E+02  d E =-.148849E+00
 trial-energy change:   -0.148849  1 .order   -0.150425   -0.326576    0.025725
 step:   0.9251(harm=  0.9270)  dis= 0.04093  next Energy=   -94.383502 (dE=-0.150E+00)
 bond charge predicted
       N       E                     dE             d eps       ncg     rms          rms(c)
DAV:   1    -0.943834915866E+02   -0.10124E-02   -0.91741E-02  6144   0.165E+00    0.792E-02
RMM:   2    -0.943835641285E+02   -0.72542E-04   -0.19729E-03  5149   0.208E-01    0.439E-02
RMM:   3    -0.943835295948E+02    0.34534E-04   -0.22985E-04  3170   0.586E-02
   3 F= -.94383530E+02 E0= -.94383119E+02  d E =-.149841E+00
 curvature:  -0.46 expect dE=-0.144E-01 dE for cont linesearch -0.721E-08
 trial: gam= 0.09513 g(F)=  0.310E-01 g(S)=  0.000E+00 ort =-0.713E-04 (trialstep = 0.985E+00)
 search vector abs. value=  0.339E-01
 bond charge predicted
       N       E                     dE             d eps       ncg     rms          rms(c)
DAV:   1    -0.944083689994E+02   -0.24805E-01   -0.33210E+00  5192   0.968E+00    0.467E-01
RMM:   2    -0.944140345275E+02   -0.56655E-02   -0.77079E-02  5120   0.128E+00    0.156E-01
RMM:   3    -0.944135893577E+02    0.44517E-03   -0.33433E-03  5303   0.241E-01    0.948E-02
RMM:   4    -0.944134910860E+02    0.98272E-04   -0.59528E-04  4749   0.998E-02
   4 F= -.94413491E+02 E0= -.94413016E+02  d E =-.299615E-01
 ZBRENT: can't locate minimum, use default step
 trial-energy change:   -0.029961  1 .order   -0.030168   -0.030525   -0.029810
 step:   3.9401(harm= 42.0447)  dis= 0.04773  next Energy=   -95.035001 (dE=-0.651E+00)
 bond charge predicted
       N       E                     dE             d eps       ncg     rms          rms(c)
DAV:   1    -0.944383991739E+02   -0.24810E-01   -0.29975E+01  5120   0.291E+01    0.145E+00
RMM:   2    -0.944983671470E+02   -0.59968E-01   -0.74590E-01  5120   0.401E+00    0.525E-01
RMM:   3    -0.944928848479E+02    0.54823E-02   -0.32602E-02  5291   0.756E-01    0.318E-01
RMM:   4    -0.944919169016E+02    0.96795E-03   -0.53143E-03  5237   0.298E-01    0.155E-01
RMM:   5    -0.944919523342E+02   -0.35433E-04   -0.98205E-04  4999   0.119E-01
   5 F= -.94491952E+02 E0= -.94491596E+02  d E =-.108423E+00
 curvature:  -3.19 expect dE=-0.345E+00 dE for cont linesearch -0.519E-01
 ZBRENT: increasing intervall
 opt :   9.8502  next Energy=   -94.590772 (dE=-0.207E+00)
 bond charge predicted
       N       E                     dE             d eps       ncg     rms          rms(c)
DAV:   1    -0.942066439752E+02    0.28527E+00   -0.12060E+02  5168   0.583E+01    0.325E+00
RMM:   2    -0.945431250760E+02   -0.33648E+00   -0.36227E+00  5121   0.892E+00    0.130E+00
RMM:   3    -0.945088861459E+02    0.34239E-01   -0.13128E-01  5313   0.154E+00    0.914E-01
RMM:   4    -0.944985383354E+02    0.10348E-01   -0.56838E-02  5140   0.914E-01    0.326E-01
RMM:   5    -0.944984694276E+02    0.68908E-04   -0.63206E-03  5173   0.281E-01    0.192E-01
RMM:   6    -0.944981118600E+02    0.35757E-03   -0.16604E-03  5196   0.152E-01    0.606E-02
RMM:   7    -0.944981682608E+02   -0.56401E-04   -0.90852E-04  4918   0.107E-01
   6 F= -.94498168E+02 E0= -.94498014E+02  d E =-.114639E+00
 curvature:  -6.08 expect dE=-0.441E+01 dE for cont linesearch -0.170E+00
 ZBRENT: bracketing found
 ZBRENT: interpolating
 opt :   6.4989  next Energy=   -94.522008 (dE=-0.138E+00)
 bond charge predicted
       N       E                     dE             d eps       ncg     rms          rms(c)
DAV:   1    -0.944662371167E+02    0.31875E-01   -0.39668E+01  5120   0.334E+01    0.145E+00
RMM:   2    -0.945413817173E+02   -0.75145E-01   -0.87205E-01  5120   0.424E+00    0.663E-01
RMM:   3    -0.945363898886E+02    0.49918E-02   -0.35273E-02  5337   0.772E-01    0.509E-01
RMM:   4    -0.945340512145E+02    0.23387E-02   -0.12320E-02  5138   0.438E-01    0.153E-01
RMM:   5    -0.945341430202E+02   -0.91806E-04   -0.62183E-04  4036   0.915E-02
   7 F= -.94534143E+02 E0= -.94534742E+02  d E =-.150613E+00
 curvature:  -1.08 expect dE=-0.290E+00 dE for cont linesearch -0.155E-02
 ZBRENT: interpolating
 opt :   7.3832  next Energy=   -94.537810 (dE=-0.154E+00)
 bond charge predicted
       N       E                     dE             d eps       ncg     rms          rms(c)
DAV:   1    -0.945316040062E+02    0.24472E-02   -0.27239E+00  5440   0.877E+00    0.371E-01
RMM:   2    -0.945372953496E+02   -0.56913E-02   -0.62706E-02  5125   0.114E+00    0.169E-01
RMM:   3    -0.945367784980E+02    0.51685E-03   -0.25266E-03  5310   0.211E-01    0.112E-01
RMM:   4    -0.945366302922E+02    0.14821E-03   -0.71465E-04  4697   0.107E-01    0.404E-02
RMM:   5    -0.945366328562E+02   -0.25640E-05   -0.56360E-05  3016   0.333E-02
   8 F= -.94536633E+02 E0= -.94537104E+02  d E =-.153103E+00
 curvature:  -2.54 expect dE=-0.891E+00 dE for cont linesearch -0.189E-03
 trial: gam=11.38070 g(F)=  0.351E+00 g(S)=  0.000E+00 ort =-0.159E-02 (trialstep = 0.163E-01)
 search vector abs. value=  0.471E+01
 bond charge predicted
       N       E                     dE             d eps       ncg     rms          rms(c)
DAV:   1    -0.945417276532E+02   -0.50974E-02   -0.14507E-01  5936   0.201E+00    0.749E-02
RMM:   2    -0.945419878702E+02   -0.26022E-03   -0.28090E-03  5119   0.242E-01    0.332E-02
RMM:   3    -0.945419698574E+02    0.18013E-04   -0.90863E-05  2925   0.445E-02
   9 F= -.94541970E+02 E0= -.94542367E+02  d E =-.533700E-02
 ZBRENT: can't locate minimum, use default step
 trial-energy change:   -0.005337  1 .order   -0.005358   -0.005426   -0.005290
 step:   0.0653(harm=  0.6540)  dis= 0.00912  next Energy=   -94.645358 (dE=-0.109E+00)
 bond charge predicted
       N       E                     dE             d eps       ncg     rms          rms(c)
DAV:   1    -0.945549002378E+02   -0.12912E-01   -0.13035E+00  5264   0.605E+00    0.225E-01
RMM:   2    -0.945572172680E+02   -0.23170E-02   -0.25581E-02  5120   0.732E-01    0.105E-01
RMM:   3    -0.945570364343E+02    0.18083E-03   -0.10547E-03  4916   0.134E-01    0.732E-02
RMM:   4    -0.945569835774E+02    0.52857E-04   -0.29667E-04  3495   0.706E-02
  10 F= -.94556984E+02 E0= -.94557154E+02  d E =-.203507E-01
 curvature:  -0.68 expect dE=-0.256E+00 dE for cont linesearch -0.126E-01
 ZBRENT: increasing intervall
 opt :   0.1632  next Energy=   -94.583028 (dE=-0.464E-01)
 bond charge predicted
       N       E                     dE             d eps       ncg     rms          rms(c)
DAV:   1    -0.945739610255E+02   -0.16925E-01   -0.52400E+00  5152   0.121E+01    0.460E-01
RMM:   2    -0.945835618036E+02   -0.96008E-02   -0.10598E-01  5120   0.150E+00    0.214E-01
RMM:   3    -0.945827480660E+02    0.81374E-03   -0.42393E-03  5293   0.271E-01    0.148E-01
RMM:   4    -0.945825246483E+02    0.22342E-03   -0.12690E-03  4944   0.138E-01    0.556E-02
RMM:   5    -0.945825331736E+02   -0.85253E-05   -0.95923E-05  3128   0.414E-02
  11 F= -.94582533E+02 E0= -.94582377E+02  d E =-.459003E-01
 curvature:  -1.41 expect dE=-0.583E+00 dE for cont linesearch -0.160E-01
 ZBRENT: increasing intervall
 opt :   0.3590  next Energy=   -94.615280 (dE=-0.786E-01)
 bond charge predicted
       N       E                     dE             d eps       ncg     rms          rms(c)
DAV:   1    -0.945791400272E+02    0.33846E-02   -0.20987E+01  5120   0.243E+01    0.971E-01
RMM:   2    -0.946196574093E+02   -0.40517E-01   -0.44634E-01  5120   0.309E+00    0.439E-01
RMM:   3    -0.946159301112E+02    0.37273E-02   -0.16951E-02  5285   0.549E-01    0.304E-01
RMM:   4    -0.946149063324E+02    0.10238E-02   -0.52772E-03  5157   0.282E-01    0.116E-01
RMM:   5    -0.946149296383E+02   -0.23306E-04   -0.51913E-04  3977   0.850E-02
  12 F= -.94614930E+02 E0= -.94614904E+02  d E =-.782968E-01
 curvature:  -2.89 expect dE=-0.150E+01 dE for cont linesearch -0.740E-02
 ZBRENT: increasing intervall
 opt :   0.7506  next Energy=   -94.610451 (dE=-0.738E-01)
 bond charge predicted
       N       E                     dE             d eps       ncg     rms          rms(c)
DAV:   1    -0.944513374318E+02    0.16357E+00   -0.83965E+01  5120   0.485E+01    0.227E+00
RMM:   2    -0.946417811717E+02   -0.19044E+00   -0.20814E+00  5120   0.675E+00    0.998E-01
RMM:   3    -0.946211882934E+02    0.20593E-01   -0.70486E-02  5284   0.114E+00    0.724E-01
RMM:   4    -0.946151182386E+02    0.60701E-02   -0.33976E-02  5134   0.697E-01    0.250E-01
RMM:   5    -0.946150990960E+02    0.19143E-04   -0.28095E-03  5183   0.194E-01    0.136E-01
RMM:   6    -0.946150133100E+02    0.85786E-04   -0.68470E-04  4678   0.102E-01
  13 F= -.94615013E+02 E0= -.94614545E+02  d E =-.783805E-01
 curvature:   1.75 expect dE= 0.155E+01 dE for cont linesearch  0.608E-02
 trial: gam= 1.02572 g(F)=  0.888E+00 g(S)=  0.000E+00 ort =-0.128E+00 (trialstep = 0.138E+00)
 search vector abs. value=  0.558E+01
 bond charge predicted
       N       E                     dE             d eps       ncg     rms          rms(c)
DAV:   1    -0.946844642124E+02   -0.69365E-01   -0.14766E+01  5296   0.206E+01    0.726E-01
RMM:   2    -0.947101737293E+02   -0.25710E-01   -0.29384E-01  5120   0.243E+00    0.355E-01
RMM:   3    -0.947075379224E+02    0.26358E-02   -0.11625E-02  5343   0.438E-01    0.246E-01
RMM:   4    -0.947065237358E+02    0.10142E-02   -0.51249E-03  5127   0.272E-01    0.691E-02
RMM:   5    -0.947065261092E+02   -0.23734E-05   -0.30379E-04  3472   0.646E-02
  14 F= -.94706526E+02 E0= -.94706343E+02  d E =-.915128E-01
 ZBRENT: can't locate minimum, use default step
 trial-energy change:   -0.091513  1 .order   -0.091285   -0.104234   -0.078336
 step:   0.5509(harm=  0.5543)  dis= 0.09165  next Energy=   -94.824772 (dE=-0.210E+00)
 bond charge predicted
       N       E                     dE             d eps       ncg     rms          rms(c)
DAV:   1    -0.945388523753E+02    0.16767E+00   -0.13101E+02  5120   0.615E+01    0.293E+00
RMM:   2    -0.948439342667E+02   -0.30508E+00   -0.34333E+00  5123   0.851E+00    0.131E+00
RMM:   3    -0.948107789232E+02    0.33155E-01   -0.11561E-01  5340   0.142E+00    0.103E+00
RMM:   4    -0.947970153888E+02    0.13764E-01   -0.63643E-02  5127   0.959E-01    0.330E-01
RMM:   5    -0.947966797953E+02    0.33559E-03   -0.48414E-03  5170   0.254E-01    0.180E-01
RMM:   6    -0.947965366990E+02    0.14310E-03   -0.11265E-03  5202   0.126E-01    0.566E-02
RMM:   7    -0.947965846288E+02   -0.47930E-04   -0.58461E-04  4448   0.912E-02
  15 F= -.94796585E+02 E0= -.94796810E+02  d E =-.181571E+00
 curvature:  -2.04 expect dE=-0.296E+00 dE for cont linesearch -0.128E-01
 ZBRENT: interpolating
 opt :   0.4488  next Energy=   -94.806117 (dE=-0.191E+00)
 bond charge predicted
       N       E                     dE             d eps       ncg     rms          rms(c)
DAV:   1    -0.947942653028E+02    0.22714E-02   -0.81325E+00  5232   0.153E+01    0.454E-01
RMM:   2    -0.948060691920E+02   -0.11804E-01   -0.13818E-01  5122   0.166E+00    0.259E-01
RMM:   3    -0.948048765576E+02    0.11926E-02   -0.57427E-03  5342   0.306E-01    0.181E-01
RMM:   4    -0.948044144522E+02    0.46211E-03   -0.22530E-03  5135   0.183E-01    0.467E-02
RMM:   5    -0.948044221056E+02   -0.76535E-05   -0.65573E-05  3110   0.331E-02
  16 F= -.94804422E+02 E0= -.94804654E+02  d E =-.189409E+00
 curvature:  -1.53 expect dE=-0.308E+00 dE for cont linesearch -0.207E-03
 trial: gam=-0.19677 g(F)=  0.202E+00 g(S)=  0.000E+00 ort = 0.275E-01 (trialstep = 0.200E+00)
 search vector abs. value=  0.407E+00
 bond charge predicted
       N       E                     dE             d eps       ncg     rms          rms(c)
DAV:   1    -0.948370238828E+02   -0.32609E-01   -0.10112E+00  5376   0.525E+00    0.256E-01
RMM:   2    -0.948396784703E+02   -0.26546E-02   -0.28590E-02  5121   0.780E-01    0.155E-01
RMM:   3    -0.948394489611E+02    0.22951E-03   -0.11528E-03  5049   0.145E-01    0.121E-01
RMM:   4    -0.948393588325E+02    0.90129E-04   -0.48488E-04  4251   0.932E-02
  17 F= -.94839359E+02 E0= -.94839587E+02  d E =-.349367E-01
 ZBRENT: can't locate minimum, use default step
 trial-energy change:   -0.034937  1 .order   -0.035027   -0.039228   -0.030825
 step:   0.7997(harm=  0.9332)  dis= 0.04009  next Energy=   -94.895980 (dE=-0.916E-01)
 bond charge predicted
       N       E                     dE             d eps       ncg     rms          rms(c)
DAV:   1    -0.948749821124E+02   -0.35533E-01   -0.90396E+00  5136   0.157E+01    0.767E-01
RMM:   2    -0.948981091186E+02   -0.23127E-01   -0.24793E-01  5120   0.230E+00    0.459E-01
RMM:   3    -0.948964652537E+02    0.16439E-02   -0.10281E-02  5395   0.429E-01    0.371E-01
RMM:   4    -0.948957640989E+02    0.70115E-03   -0.33351E-03  5133   0.244E-01    0.138E-01
RMM:   5    -0.948957752057E+02   -0.11107E-04   -0.32792E-04  3487   0.740E-02
  18 F= -.94895775E+02 E0= -.94895856E+02  d E =-.913531E-01
 curvature:  -0.94 expect dE=-0.121E-01 dE for cont linesearch -0.339E-02
 ZBRENT: extrapolating
 opt :   0.9987  next Energy=   -94.899598 (dE=-0.952E-01)
 bond charge predicted
       N       E                     dE             d eps       ncg     rms          rms(c)
DAV:   1    -0.948975115579E+02   -0.17475E-02   -0.98630E-01  5472   0.517E+00    0.254E-01
RMM:   2    -0.949001398649E+02   -0.26283E-02   -0.27372E-02  5120   0.769E-01    0.139E-01
RMM:   3    -0.948999714653E+02    0.16840E-03   -0.11146E-03  4972   0.143E-01    0.107E-01
RMM:   4    -0.948999157678E+02    0.55697E-04   -0.32484E-04  3681   0.795E-02
  19 F= -.94899916E+02 E0= -.94899951E+02  d E =-.954937E-01
 curvature:  -1.05 expect dE=-0.518E-02 dE for cont linesearch -0.561E-04
 trial: gam=-0.02140 g(F)=  0.492E-02 g(S)=  0.000E+00 ort = 0.465E-02 (trialstep = 0.360E+00)
 search vector abs. value=  0.490E-02
 bond charge predicted
       N       E                     dE             d eps       ncg     rms          rms(c)
DAV:   1    -0.949014836645E+02   -0.15122E-02   -0.73945E-02  5960   0.151E+00    0.562E-02
RMM:   2    -0.949016017007E+02   -0.11804E-03   -0.13743E-03  4933   0.166E-01    0.246E-02
RMM:   3    -0.949015938635E+02    0.78372E-05   -0.53057E-05  2743   0.336E-02
  20 F= -.94901594E+02 E0= -.94901631E+02  d E =-.167810E-02
 ZBRENT: can't locate minimum, use default step
 trial-energy change:   -0.001678  1 .order   -0.001684   -0.001733   -0.001634
 step:   1.4387(harm=  6.3214)  dis= 0.00698  next Energy=   -94.915144 (dE=-0.152E-01)
 bond charge predicted
       N       E                     dE             d eps       ncg     rms          rms(c)
DAV:   1    -0.949052029705E+02   -0.36013E-02   -0.66768E-01  5168   0.453E+00    0.163E-01
RMM:   2    -0.949062954526E+02   -0.10925E-02   -0.12561E-02  5123   0.502E-01    0.705E-02
RMM:   3    -0.949062394154E+02    0.56037E-04   -0.60324E-04  4128   0.964E-02
  21 F= -.94906239E+02 E0= -.94906247E+02  d E =-.632365E-02
 curvature:  -1.06 expect dE=-0.434E-02 dE for cont linesearch -0.363E-02
 ZBRENT: increasing intervall
 opt :   3.5967  next Energy=   -94.914121 (dE=-0.142E-01)
 bond charge predicted
       N       E                     dE             d eps       ncg     rms          rms(c)
DAV:   1    -0.949095381567E+02   -0.32427E-02   -0.26597E+00  5136   0.904E+00    0.325E-01
RMM:   2    -0.949138537633E+02   -0.43156E-02   -0.49592E-02  5123   0.100E+00    0.141E-01
RMM:   3    -0.949136511335E+02    0.20263E-03   -0.25378E-03  5478   0.192E-01    0.917E-02
RMM:   4    -0.949135063977E+02    0.14474E-03   -0.86331E-04  5083   0.122E-01    0.174E-02
RMM:   5    -0.949135033961E+02    0.30016E-05   -0.17776E-05  2960   0.189E-02
  22 F= -.94913503E+02 E0= -.94913414E+02  d E =-.135876E-01
 curvature:  -2.30 expect dE=-0.135E-01 dE for cont linesearch -0.336E-02
 ZBRENT: increasing intervall
 opt :   7.9128  next Energy=   -94.918912 (dE=-0.190E-01)
 bond charge predicted
       N       E                     dE             d eps       ncg     rms          rms(c)
DAV:   1    -0.949032730900E+02    0.10233E-01   -0.10761E+01  5120   0.182E+01    0.672E-01
RMM:   2    -0.949212497708E+02   -0.17977E-01   -0.20798E-01  5122   0.205E+00    0.288E-01
RMM:   3    -0.949202284842E+02    0.10213E-02   -0.10157E-02  5454   0.389E-01    0.189E-01
RMM:   4    -0.949195412327E+02    0.68725E-03   -0.36177E-03  5135   0.249E-01    0.367E-02
RMM:   5    -0.949195348559E+02    0.63768E-05   -0.80836E-05  3124   0.381E-02
  23 F= -.94919535E+02 E0= -.94919522E+02  d E =-.196191E-01
 curvature:  -3.71 expect dE=-0.750E-01 dE for cont linesearch -0.212E-07
 trial: gam= 4.13635 g(F)=  0.202E-01 g(S)=  0.000E+00 ort =-0.529E-05 (trialstep = 0.881E-01)
 search vector abs. value=  0.104E+00
 bond charge predicted
       N       E                     dE             d eps       ncg     rms          rms(c)
DAV:   1    -0.949211990809E+02   -0.16578E-02   -0.36300E-02  6128   0.105E+00    0.331E-02
RMM:   2    -0.949212598509E+02   -0.60770E-04   -0.65690E-04  4203   0.121E-01
  24 F= -.94921260E+02 E0= -.94921256E+02  d E =-.172499E-02
 ZBRENT: can't locate minimum, use default step
 trial-energy change:   -0.001725  1 .order   -0.001685   -0.001782   -0.001588
 step:   0.3524(harm=  0.8113)  dis= 0.00902  next Energy=   -94.927738 (dE=-0.820E-02)
 bond charge predicted
       N       E                     dE             d eps       ncg     rms          rms(c)
DAV:   1    -0.949248752791E+02   -0.36762E-02   -0.32393E-01  5152   0.314E+00    0.101E-01
RMM:   2    -0.949254097417E+02   -0.53446E-03   -0.59081E-03  5122   0.359E-01    0.717E-02
RMM:   3    -0.949254219045E+02   -0.12163E-04   -0.33438E-04  3634   0.757E-02
  25 F= -.94925422E+02 E0= -.94925447E+02  d E =-.588705E-02
 curvature:  -1.25 expect dE=-0.986E-02 dE for cont linesearch -0.192E-02
 ZBRENT: increasing intervall
 opt :   0.8810  next Energy=   -94.929260 (dE=-0.972E-02)
 bond charge predicted
       N       E                     dE             d eps       ncg     rms          rms(c)
DAV:   1    -0.949271209807E+02   -0.17112E-02   -0.12846E+00  5120   0.626E+00    0.186E-01
RMM:   2    -0.949291932421E+02   -0.20723E-02   -0.22436E-02  5121   0.700E-01    0.129E-01
RMM:   3    -0.949292698685E+02   -0.76626E-04   -0.14174E-03  4841   0.144E-01    0.852E-02
RMM:   4    -0.949292734692E+02   -0.36007E-05   -0.25822E-04  3131   0.790E-02
  26 F= -.94929273E+02 E0= -.94929376E+02  d E =-.973861E-02
 curvature:  -2.50 expect dE=-0.253E-02 dE for cont linesearch -0.628E-04
 trial: gam=-0.00928 g(F)=  0.101E-02 g(S)=  0.000E+00 ort = 0.162E-02 (trialstep = 0.247E+00)
 search vector abs. value=  0.991E-03
 bond charge predicted
       N       E                     dE             d eps       ncg     rms          rms(c)
DAV:   1    -0.949295185299E+02   -0.24866E-03   -0.10353E-02  6120   0.551E-01    0.180E-02
RMM:   2    -0.949295250546E+02   -0.65247E-05   -0.13877E-04  2858   0.557E-02
  27 F= -.94929525E+02 E0= -.94929626E+02  d E =-.251585E-03
 ZBRENT: can't locate minimum, use default step
 trial-energy change:   -0.000252  1 .order   -0.000243   -0.000246   -0.000240
 step:   0.9868(harm= 11.0814)  dis= 0.00253  next Energy=   -94.934796 (dE=-0.552E-02)
 bond charge predicted
       N       E                     dE             d eps       ncg     rms          rms(c)
DAV:   1    -0.949300885764E+02   -0.57005E-03   -0.91730E-02  5136   0.164E+00    0.460E-02
RMM:   2    -0.949301890667E+02   -0.10049E-03   -0.14171E-03  4914   0.165E-01    0.263E-02
RMM:   3    -0.949301721177E+02    0.16949E-04   -0.54886E-05  2806   0.342E-02
  28 F= -.94930172E+02 E0= -.94930273E+02  d E =-.898648E-03
 curvature:  -0.73 expect dE=-0.563E-03 dE for cont linesearch -0.512E-03
 trial: gam=-0.07308 g(F)=  0.774E-03 g(S)=  0.000E+00 ort = 0.835E-03 (trialstep = 0.395E+00)
 search vector abs. value=  0.658E-03
 reached required accuracy - stopping structural energy minimisation
