 vasp.5.4.4.18Apr17-6-g9f103f2a35 (build Nov 01 2019 12:17:22) complex          
  
 executed on             LinuxIFC date 2023.05.19  18:18:47
 running on   16 total cores
 distrk:  each k-point on   16 cores,    1 groups
 distr:  one band on NCORES_PER_BAND=   4 cores,    4 groups


--------------------------------------------------------------------------------------------------------


 INCAR:
 POTCAR:    PAW_PBE N 08Apr2002                   
 POTCAR:    PAW_PBE Si 05Jan2001                  
 POTCAR:    PAW_PBE N 08Apr2002                   
   VRHFIN =N: s2p3                                                              
   LEXCH  = PE                                                                  
   EATOM  =   264.5486 eV,   19.4438 Ry                                         
                                                                                
   TITEL  = PAW_PBE N 08Apr2002                                                 
   LULTRA =        F    use ultrasoft PP ?                                      
   IUNSCR =        1    unscreen: 0-lin 1-nonlin 2-no                           
   RPACOR =    1.200    partial core radius                                     
   POMASS =   14.001; ZVAL   =    5.000    mass and valenz                      
   RCORE  =    1.500    outmost cutoff radius                                   
   RWIGS  =    1.400; RWIGS  =    0.741    wigner-seitz radius (au A)           
   ENMAX  =  400.000; ENMIN  =  300.000 eV                                      
   ICORE  =        2    local potential                                         
   LCOR   =        T    correct aug charges                                     
   LPAW   =        T    paw PP                                                  
   EAUG   =  627.112                                                            
   DEXC   =    0.000                                                            
   RMAX   =    1.529    core radius for proj-oper                               
   RAUG   =    1.300    factor for augmentation sphere                          
   RDEP   =    1.514    radius for radial grids                                 
   RDEPT  =    1.338    core radius for aug-charge                              
                                                                                
   Atomic configuration                                                         
    4 entries                                                                   
     n  l   j            E        occ.                                          
     1  0  0.50      -384.7179   2.0000                                         
     2  0  0.50       -18.5828   2.0000                                         
     2  1  0.50        -7.0898   3.0000                                         
     3  2  1.50        -6.8029   0.0000                                         
   Description                                                                  
     l       E           TYP  RCUT    TYP  RCUT                                 
     0    -18.5828119     23  1.200                                             
     0    -13.5018863     23  1.200                                             
     1     -7.0897853     23  1.500                                             
     1      9.5240782     23  1.500                                             
     2     -6.8029130      7  1.500                                             
  local pseudopotential read in
  partial core-charges read in
  partial kinetic energy density read in
  atomic valenz-charges read in
  non local Contribution for L=           0  read in
    real space projection operators read in
  non local Contribution for L=           0  read in
    real space projection operators read in
  non local Contribution for L=           1  read in
    real space projection operators read in
  non local Contribution for L=           1  read in
    real space projection operators read in
    PAW grid and wavefunctions read in
 
   number of l-projection  operators is LMAX  =           4
   number of lm-projection operators is LMMAX =           8
 
 POTCAR:    PAW_PBE Si 05Jan2001                  
   VRHFIN =Si: s2p2                                                             
   LEXCH  = PE                                                                  
   EATOM  =   103.0669 eV,    7.5752 Ry                                         
                                                                                
   TITEL  = PAW_PBE Si 05Jan2001                                                
   LULTRA =        F    use ultrasoft PP ?                                      
   IUNSCR =        1    unscreen: 0-lin 1-nonlin 2-no                           
   RPACOR =    1.500    partial core radius                                     
   POMASS =   28.085; ZVAL   =    4.000    mass and valenz                      
   RCORE  =    1.900    outmost cutoff radius                                   
   RWIGS  =    2.480; RWIGS  =    1.312    wigner-seitz radius (au A)           
   ENMAX  =  245.345; ENMIN  =  184.009 eV                                      
   ICORE  =        2    local potential                                         
   LCOR   =        T    correct aug charges                                     
   LPAW   =        T    paw PP                                                  
   EAUG   =  322.069                                                            
   DEXC   =    0.000                                                            
   RMAX   =    1.950    core radius for proj-oper                               
   RAUG   =    1.300    factor for augmentation sphere                          
   RDEP   =    1.993    radius for radial grids                                 
   RDEPT  =    1.837    core radius for aug-charge                              
                                                                                
   Atomic configuration                                                         
    6 entries                                                                   
     n  l   j            E        occ.                                          
     1  0  0.50     -1785.8828   2.0000                                         
     2  0  0.50      -139.4969   2.0000                                         
     2  1  1.50       -95.5546   6.0000                                         
     3  0  0.50       -10.8127   2.0000                                         
     3  1  0.50        -4.0811   2.0000                                         
     3  2  1.50        -4.0817   0.0000                                         
   Description                                                                  
     l       E           TYP  RCUT    TYP  RCUT                                 
     0    -10.8127223     23  1.900                                             
     0     -7.6451159     23  1.900                                             
     1     -4.0811372     23  1.900                                             
     1      2.4879257     23  1.900                                             
     2     -4.0817478      7  1.900                                             
  local pseudopotential read in
  partial core-charges read in
  partial kinetic energy density read in
  atomic valenz-charges read in
  non local Contribution for L=           0  read in
    real space projection operators read in
  non local Contribution for L=           0  read in
    real space projection operators read in
  non local Contribution for L=           1  read in
    real space projection operators read in
  non local Contribution for L=           1  read in
    real space projection operators read in
    PAW grid and wavefunctions read in
 
   number of l-projection  operators is LMAX  =           4
   number of lm-projection operators is LMMAX =           8
 
 Optimization of the real space projectors (new method)

 maximal supplied QI-value         = 25.13
 optimisation between [QCUT,QGAM] = [ 10.05, 20.36] = [ 28.30,116.06] Ry 
 Optimized for a Real-space Cutoff    1.70 Angstroem

   l    n(q)    QCUT    max X(q) W(low)/X(q) W(high)/X(q)  e(spline) 
   0     10    10.053    79.467    0.61E-04    0.98E-04    0.61E-06
   0     10    10.053    66.151    0.60E-04    0.98E-04    0.61E-06
   1     10    10.053     8.350    0.17E-03    0.71E-03    0.45E-05
   1     10    10.053     5.531    0.18E-03    0.77E-03    0.49E-05
 Optimization of the real space projectors (new method)

 maximal supplied QI-value         = 19.84
 optimisation between [QCUT,QGAM] = [ 10.12, 20.44] = [ 28.68,116.96] Ry 
 Optimized for a Real-space Cutoff    1.38 Angstroem

   l    n(q)    QCUT    max X(q) W(low)/X(q) W(high)/X(q)  e(spline) 
   0      8    10.119   159.560    0.58E-04    0.11E-03    0.54E-07
   0      8    10.119   115.863    0.56E-04    0.11E-03    0.54E-07
   1      8    10.119    88.339    0.22E-03    0.17E-03    0.19E-06
   1      8    10.119    48.592    0.22E-03    0.17E-03    0.18E-06
  PAW_PBE N 08Apr2002                   :
 energy of atom  1       EATOM= -264.5486
 kinetic energy error for atom=    0.0736 (will be added to EATOM!!)
  PAW_PBE Si 05Jan2001                  :
 energy of atom  2       EATOM= -103.0669
 kinetic energy error for atom=    0.0012 (will be added to EATOM!!)
 
 
 POSCAR: Si6 N8                                  
  positions in direct lattice
  No initial velocities read in
 exchange correlation table for  LEXCH =        8
   RHO(1)=    0.500       N(1)  =     2000
   RHO(2)=  100.500       N(2)  =     4000
 


--------------------------------------------------------------------------------------------------------


 ion  position               nearest neighbor table
   1  0.197  0.832  0.750-   9 1.89  10 1.90  10 1.90   7 2.18
   2  0.366  0.197  0.250-  10 1.89  12 1.90  12 1.90   8 2.18
   3  0.832  0.634  0.250-  11 1.89   9 1.90   9 1.90   8 2.18
   4  0.168  0.366  0.750-  12 1.89  13 1.90  13 1.90   7 2.18
   5  0.634  0.803  0.750-  14 1.89  11 1.90  11 1.90   7 2.18
   6  0.803  0.168  0.250-  13 1.89  14 1.90  14 1.90   8 2.18
   7  0.333  0.667  0.750-   5 2.18   4 2.18   1 2.18  11 2.82  11 2.82  13 2.82  13 2.82  10 2.82
                            10 2.82  12 2.89  14 2.89   9 2.89
   8  0.667  0.333  0.250-   2 2.18   3 2.18   6 2.18  12 2.82  12 2.82   9 2.82   9 2.82  14 2.82
                            14 2.82  11 2.89  10 2.89  13 2.89
   9  0.964  0.612  0.750-   1 1.89   3 1.90   3 1.90  13 2.69  13 2.69   8 2.82   8 2.82   7 2.89

  10  0.351  0.964  0.250-   2 1.89   1 1.90   1 1.90  14 2.69  14 2.69   7 2.82   7 2.82   8 2.89

  11  0.612  0.649  0.250-   3 1.89   5 1.90   5 1.90  12 2.69  12 2.69   7 2.82   7 2.82   8 2.89

  12  0.388  0.351  0.750-   4 1.89   2 1.90   2 1.90  11 2.69  11 2.69   8 2.82   8 2.82   7 2.89

  13  0.036  0.388  0.250-   6 1.89   4 1.90   4 1.90   9 2.69   9 2.69   7 2.82   7 2.82   8 2.89

  14  0.649  0.036  0.750-   5 1.89   6 1.90   6 1.90  10 2.69  10 2.69   8 2.82   8 2.82   7 2.89

 
  LATTYP: Found a hexagonal cell.
 ALAT       =     8.3601584405
 C/A-ratio  =     0.3517300815
  
  Lattice vectors:
  
 A1 = (   4.1800792257,  -7.2401095860,   0.0000000000)
 A2 = (   4.1800792148,   7.2401095923,   0.0000000000)
 A3 = (   0.0000000000,   0.0000000000,   2.9405192092)


Analysis of symmetry for initial positions (statically):
=====================================================================
 Subroutine PRICEL returns:
 Original cell was already a primitive cell.
 

 Routine SETGRP: Setting up the symmetry group for a 
 hexagonal supercell.


 Subroutine GETGRP returns: Found 12 space group operations
 (whereof  6 operations were pure point group operations)
 out of a pool of 24 trial point group operations.


The static configuration has the point symmetry S_6 .
 The point group associated with its full space group is C_6h.


Analysis of symmetry for dynamics (positions and initial velocities):
=====================================================================
 Subroutine PRICEL returns:
 Original cell was already a primitive cell.
 

 Routine SETGRP: Setting up the symmetry group for a 
 hexagonal supercell.


 Subroutine GETGRP returns: Found 12 space group operations
 (whereof  6 operations were pure point group operations)
 out of a pool of 24 trial point group operations.


The dynamic configuration has the point symmetry S_6 .
 The point group associated with its full space group is C_6h.


 Subroutine INISYM returns: Found 12 space group operations
 (whereof  6 operations are pure point group operations),
 and found     1 'primitive' translations

 
 
 KPOINTS: Automatic mesh                          

Automatic generation of k-mesh.
 generate k-points for:    6    6   15
Space group operators:
 irot       det(A)        alpha          n_x          n_y          n_z        tau_x        tau_y        tau_z
    1     1.000000     0.000000     1.000000     0.000000     0.000000     0.000000     0.000000     0.000000
    2    -1.000000     0.000000     1.000000     0.000000     0.000000     0.000000     0.000000     0.000000
    3     1.000000   120.000000     0.000000     0.000000    -1.000000     0.000000     0.000000     0.000000
    4    -1.000000   120.000000     0.000000     0.000000    -1.000000     0.000000     0.000000     0.000000
    5     1.000000   120.000000     0.000000     0.000000     1.000000     0.000000     0.000000     0.000000
    6    -1.000000   120.000000     0.000000     0.000000     1.000000     0.000000     0.000000     0.000000
    7     1.000000    60.000000     0.000000     0.000000    -1.000000     0.000000     0.000000     0.500000
    8    -1.000000    60.000000     0.000000     0.000000    -1.000000     0.000000     0.000000     0.500000
    9     1.000000   180.000000     0.000000     0.000000     1.000000    -0.000000     0.000000     0.500000
   10    -1.000000   180.000000     0.000000     0.000000     1.000000     0.000000     0.000000     0.500000
   11     1.000000    60.000000     0.000000     0.000000     1.000000    -0.000000     0.000000     0.500000
   12    -1.000000    60.000000     0.000000     0.000000     1.000000    -0.000000     0.000000     0.500000
 
 Subroutine IBZKPT returns following result:
 ===========================================
 
 Found     64 irreducible k-points:
 
 Following reciprocal coordinates:
            Coordinates               Weight
  0.000000  0.000000  0.000000      1.000000
  0.166667  0.000000  0.000000      6.000000
  0.333333  0.000000  0.000000      6.000000
  0.500000  0.000000  0.000000      3.000000
  0.166667  0.166667  0.000000      6.000000
  0.333333  0.166667  0.000000      6.000000
  0.500000  0.166667  0.000000      6.000000
  0.333333  0.333333  0.000000      2.000000
  0.000000  0.000000  0.066667      2.000000
  0.166667  0.000000  0.066667     12.000000
  0.333333  0.000000  0.066667     12.000000
  0.500000  0.000000  0.066667      6.000000
  0.166667  0.166667  0.066667     12.000000
  0.333333  0.166667  0.066667     12.000000
  0.500000  0.166667  0.066667     12.000000
  0.333333  0.333333  0.066667      4.000000
  0.000000  0.000000  0.133333      2.000000
  0.166667  0.000000  0.133333     12.000000
  0.333333  0.000000  0.133333     12.000000
  0.500000  0.000000  0.133333      6.000000
  0.166667  0.166667  0.133333     12.000000
  0.333333  0.166667  0.133333     12.000000
  0.500000  0.166667  0.133333     12.000000
  0.333333  0.333333  0.133333      4.000000
  0.000000  0.000000  0.200000      2.000000
  0.166667  0.000000  0.200000     12.000000
  0.333333  0.000000  0.200000     12.000000
  0.500000  0.000000  0.200000      6.000000
  0.166667  0.166667  0.200000     12.000000
  0.333333  0.166667  0.200000     12.000000
  0.500000  0.166667  0.200000     12.000000
  0.333333  0.333333  0.200000      4.000000
  0.000000  0.000000  0.266667      2.000000
  0.166667  0.000000  0.266667     12.000000
  0.333333  0.000000  0.266667     12.000000
  0.500000  0.000000  0.266667      6.000000
  0.166667  0.166667  0.266667     12.000000
  0.333333  0.166667  0.266667     12.000000
  0.500000  0.166667  0.266667     12.000000
  0.333333  0.333333  0.266667      4.000000
  0.000000  0.000000  0.333333      2.000000
  0.166667  0.000000  0.333333     12.000000
  0.333333  0.000000  0.333333     12.000000
  0.500000  0.000000  0.333333      6.000000
  0.166667  0.166667  0.333333     12.000000
  0.333333  0.166667  0.333333     12.000000
  0.500000  0.166667  0.333333     12.000000
  0.333333  0.333333  0.333333      4.000000
  0.000000  0.000000  0.400000      2.000000
  0.166667  0.000000  0.400000     12.000000
  0.333333  0.000000  0.400000     12.000000
  0.500000  0.000000  0.400000      6.000000
  0.166667  0.166667  0.400000     12.000000
  0.333333  0.166667  0.400000     12.000000
  0.500000  0.166667  0.400000     12.000000
  0.333333  0.333333  0.400000      4.000000
  0.000000  0.000000  0.466667      2.000000
  0.166667  0.000000  0.466667     12.000000
  0.333333  0.000000  0.466667     12.000000
  0.500000  0.000000  0.466667      6.000000
  0.166667  0.166667  0.466667     12.000000
  0.333333  0.166667  0.466667     12.000000
  0.500000  0.166667  0.466667     12.000000
  0.333333  0.333333  0.466667      4.000000
 
 Following cartesian coordinates:
            Coordinates               Weight
  0.000000  0.000000  0.000000      1.000000
  0.019936 -0.011510  0.000000      6.000000
  0.039872 -0.023020  0.000000      6.000000
  0.059807 -0.034530  0.000000      3.000000
  0.039872  0.000000  0.000000      6.000000
  0.059807 -0.011510  0.000000      6.000000
  0.079743 -0.023020  0.000000      6.000000
  0.079743  0.000000  0.000000      2.000000
  0.000000  0.000000  0.022672      2.000000
  0.019936 -0.011510  0.022672     12.000000
  0.039872 -0.023020  0.022672     12.000000
  0.059807 -0.034530  0.022672      6.000000
  0.039872  0.000000  0.022672     12.000000
  0.059807 -0.011510  0.022672     12.000000
  0.079743 -0.023020  0.022672     12.000000
  0.079743  0.000000  0.022672      4.000000
  0.000000  0.000000  0.045343      2.000000
  0.019936 -0.011510  0.045343     12.000000
  0.039872 -0.023020  0.045343     12.000000
  0.059807 -0.034530  0.045343      6.000000
  0.039872  0.000000  0.045343     12.000000
  0.059807 -0.011510  0.045343     12.000000
  0.079743 -0.023020  0.045343     12.000000
  0.079743  0.000000  0.045343      4.000000
  0.000000  0.000000  0.068015      2.000000
  0.019936 -0.011510  0.068015     12.000000
  0.039872 -0.023020  0.068015     12.000000
  0.059807 -0.034530  0.068015      6.000000
  0.039872  0.000000  0.068015     12.000000
  0.059807 -0.011510  0.068015     12.000000
  0.079743 -0.023020  0.068015     12.000000
  0.079743  0.000000  0.068015      4.000000
  0.000000  0.000000  0.090687      2.000000
  0.019936 -0.011510  0.090687     12.000000
  0.039872 -0.023020  0.090687     12.000000
  0.059807 -0.034530  0.090687      6.000000
  0.039872  0.000000  0.090687     12.000000
  0.059807 -0.011510  0.090687     12.000000
  0.079743 -0.023020  0.090687     12.000000
  0.079743  0.000000  0.090687      4.000000
  0.000000  0.000000  0.113359      2.000000
  0.019936 -0.011510  0.113359     12.000000
  0.039872 -0.023020  0.113359     12.000000
  0.059807 -0.034530  0.113359      6.000000
  0.039872  0.000000  0.113359     12.000000
  0.059807 -0.011510  0.113359     12.000000
  0.079743 -0.023020  0.113359     12.000000
  0.079743  0.000000  0.113359      4.000000
  0.000000  0.000000  0.136030      2.000000
  0.019936 -0.011510  0.136030     12.000000
  0.039872 -0.023020  0.136030     12.000000
  0.059807 -0.034530  0.136030      6.000000
  0.039872  0.000000  0.136030     12.000000
  0.059807 -0.011510  0.136030     12.000000
  0.079743 -0.023020  0.136030     12.000000
  0.079743  0.000000  0.136030      4.000000
  0.000000  0.000000  0.158702      2.000000
  0.019936 -0.011510  0.158702     12.000000
  0.039872 -0.023020  0.158702     12.000000
  0.059807 -0.034530  0.158702      6.000000
  0.039872  0.000000  0.158702     12.000000
  0.059807 -0.011510  0.158702     12.000000
  0.079743 -0.023020  0.158702     12.000000
  0.079743  0.000000  0.158702      4.000000
 


--------------------------------------------------------------------------------------------------------




 Dimension of arrays:
   k-points           NKPTS =     64   k-points in BZ     NKDIM =     64   number of bands    NBANDS=     40
   number of dos      NEDOS =    301   number of ions     NIONS =     14
   non local maximal  LDIM  =      4   non local SUM 2l+1 LMDIM =      8
   total plane-waves  NPLWV =  62720
   max r-space proj   IRMAX =   7274   max aug-charges    IRDMAX=  11980
   dimension x,y,z NGX =    56 NGY =   56 NGZ =   20
   dimension x,y,z NGXF=   112 NGYF=  112 NGZF=   40
   support grid    NGXF=   112 NGYF=  112 NGZF=   40
   ions per type =               6   8
   NGX,Y,Z   is equivalent  to a cutoff of  11.14, 11.14, 11.31 a.u.
   NGXF,Y,Z  is equivalent  to a cutoff of  22.27, 22.27, 22.61 a.u.

 SYSTEM =  unknown system                          
 POSCAR =  Si6 N8                                  

 Startparameter for this run:
   NWRITE =      2    write-flag & timer
   PREC   = accura    normal or accurate (medium, high low for compatibility)
   ISTART =      0    job   : 0-new  1-cont  2-samecut
   ICHARG =      2    charge: 1-file 2-atom 10-const
   ISPIN  =      1    spin polarized calculation?
   LNONCOLLINEAR =      F non collinear calculations
   LSORBIT =      F    spin-orbit coupling
   INIWAV =      1    electr: 0-lowe 1-rand  2-diag
   LASPH  =      F    aspherical Exc in radial PAW
   METAGGA=      F    non-selfconsistent MetaGGA calc.

 Electronic Relaxation 1
   ENCUT  =  400.0 eV  29.40 Ry    5.42 a.u.  13.63 13.63  4.80*2*pi/ulx,y,z
   ENINI  =  400.0     initial cutoff
   ENAUG  =  627.1 eV  augmentation charge cutoff
   NELM   =     60;   NELMIN=  2; NELMDL= -5     # of ELM steps 
   EDIFF  = 0.1E-03   stopping-criterion for ELM
   LREAL  =      T    real-space projection
   NLSPLINE    = F    spline interpolate recip. space projectors
   LCOMPAT=      F    compatible to vasp.4.4
   GGA_COMPAT  = T    GGA compatible to vasp.4.4-vasp.4.6
   LMAXPAW     = -100 max onsite density
   LMAXMIX     =    2 max onsite mixed and CHGCAR
   VOSKOWN=      0    Vosko Wilk Nusair interpolation
   ROPT   =   -0.00025  -0.00025
 Ionic relaxation
   EDIFFG = 0.1E-02   stopping-criterion for IOM
   NSW    =    100    number of steps for IOM
   NBLOCK =      1;   KBLOCK =    100    inner block; outer block 
   IBRION =      2    ionic relax: 0-MD 1-quasi-New 2-CG
   NFREE  =      1    steps in history (QN), initial steepest desc. (CG)
   ISIF   =      2    stress and relaxation
   IWAVPR =     11    prediction:  0-non 1-charg 2-wave 3-comb
   ISYM   =      2    0-nonsym 1-usesym 2-fastsym
   LCORR  =      T    Harris-Foulkes like correction to forces

   POTIM  = 0.5000    time-step for ionic-motion
   TEIN   =    0.0    initial temperature
   TEBEG  =    0.0;   TEEND  =   0.0 temperature during run
   SMASS  =  -3.00    Nose mass-parameter (am)
   estimated Nose-frequenzy (Omega)   =  0.10E-29 period in steps =****** mass=  -0.160E-26a.u.
   SCALEE = 1.0000    scale energy and forces
   NPACO  =    256;   APACO  = 16.0  distance and # of slots for P.C.
   PSTRESS=    0.0 pullay stress

  Mass of Ions in am
   POMASS =  14.00 28.09
  Ionic Valenz
   ZVAL   =   5.00  4.00
  Atomic Wigner-Seitz radii
   RWIGS  =  -1.00 -1.00
  virtual crystal weights 
   VCA    =   1.00  1.00
   NELECT =      62.0000    total number of electrons
   NUPDOWN=      -1.0000    fix difference up-down

 DOS related values:
   EMIN   =  10.00;   EMAX   =-10.00  energy-range for DOS
   EFERMI =   0.00
   ISMEAR =     2;   SIGMA  =   0.10  broadening in eV -4-tet -1-fermi 0-gaus

 Electronic relaxation 2 (details)
   IALGO  =     68    algorithm
   LDIAG  =      T    sub-space diagonalisation (order eigenvalues)
   LSUBROT=      F    optimize rotation matrix (better conditioning)
   TURBO    =      0    0=normal 1=particle mesh
   IRESTART =      0    0=no restart 2=restart with 2 vectors
   NREBOOT  =      0    no. of reboots
   NMIN     =      0    reboot dimension
   EREF     =   0.00    reference energy to select bands
   IMIX   =      4    mixing-type and parameters
     AMIX     =   0.40;   BMIX     =  1.00
     AMIX_MAG =   1.60;   BMIX_MAG =  1.00
     AMIN     =   0.10
     WC   =   100.;   INIMIX=   1;  MIXPRE=   1;  MAXMIX= -45

 Intra band minimization:
   WEIMIN = 0.0010     energy-eigenvalue tresh-hold
   EBREAK =  0.63E-06  absolut break condition
   DEPER  =   0.30     relativ break condition  

   TIME   =   0.40     timestep for ELM

  volume/ion in A,a.u.               =      12.71        85.79
  Fermi-wavevector in a.u.,A,eV,Ry     =   1.151890  2.176756 18.052884  1.326850
  Thomas-Fermi vector in A             =   2.288544
 
 Write flags
   LWAVE        =      F    write WAVECAR
   LDOWNSAMPLE  =      F    k-point downsampling of WAVECAR
   LCHARG       =      F    write CHGCAR
   LVTOT        =      F    write LOCPOT, total local potential
   LVHAR        =      F    write LOCPOT, Hartree potential only
   LELF         =      F    write electronic localiz. function (ELF)
   LORBIT       =      0    0 simple, 1 ext, 2 COOP (PROOUT), +10 PAW based schemes


 Dipole corrections
   LMONO  =      F    monopole corrections only (constant potential shift)
   LDIPOL =      F    correct potential (dipole corrections)
   IDIPOL =      0    1-x, 2-y, 3-z, 4-all directions 
   EPSILON=  1.0000000 bulk dielectric constant

 Exchange correlation treatment:
   GGA     =    --    GGA type
   LEXCH   =     8    internal setting for exchange type
   VOSKOWN=      0    Vosko Wilk Nusair interpolation
   LHFCALC =     F    Hartree Fock is set to
   LHFONE  =     F    Hartree Fock one center treatment
   AEXX    =    0.0000 exact exchange contribution

 Linear response parameters
   LEPSILON=     F    determine dielectric tensor
   LRPA    =     F    only Hartree local field effects (RPA)
   LNABLA  =     F    use nabla operator in PAW spheres
   LVEL    =     F    velocity operator in full k-point grid
   LINTERFAST=   F  fast interpolation
   KINTER  =     0    interpolate to denser k-point grid
   CSHIFT  =0.1000    complex shift for real part using Kramers Kronig
   OMEGAMAX=  -1.0    maximum frequency
   DEG_THRESHOLD= 0.2000000E-02 threshold for treating states as degnerate
   RTIME   =   -0.100 relaxation time in fs
  (WPLASMAI=    0.000 imaginary part of plasma frequency in eV, 0.658/RTIME)
   DFIELD  = 0.0000000 0.0000000 0.0000000 field for delta impulse in time
 
 Orbital magnetization related:
   ORBITALMAG=     F  switch on orbital magnetization
   LCHIMAG   =     F  perturbation theory with respect to B field
   DQ        =  0.001000  dq finite difference perturbation B field
   LLRAUG    =     F  two centre corrections for induced B field



--------------------------------------------------------------------------------------------------------


 conjugate gradient relaxation of ions
 charge density and potential will be updated during run
 non-spin polarized calculation
 RMM-DIIS sequential band-by-band and
  variant of blocked Davidson during initial phase
 perform sub-space diagonalisation
    before iterative eigenvector-optimisation
 modified Broyden-mixing scheme, WC =      100.0
 initial mixing is a Kerker type mixing with AMIX =  0.4000 and BMIX =      1.0000
 Hartree-type preconditioning will be used
 using additional bands            9
 real space projection scheme for non local part
 use partial core corrections
 calculate Harris-corrections to forces 
   (improved forces if not selfconsistent)
 use gradient corrections 
 use of overlap-Matrix (Vanderbilt PP)
 Methfessel and Paxton  Order N= 2 SIGMA  =   0.10


--------------------------------------------------------------------------------------------------------


  energy-cutoff  :      400.00
  volume of cell :      177.99
      direct lattice vectors                 reciprocal lattice vectors
     4.180079226 -7.240109586  0.000000000     0.119614958 -0.069059728  0.000000000
     4.180079215  7.240109592  0.000000000     0.119614958  0.069059728  0.000000000
     0.000000000  0.000000000  2.940519209     0.000000000  0.000000000  0.340075996

  length of vectors
     8.360158440  8.360158440  2.940519209     0.138119456  0.138119456  0.340075996


 
 k-points in units of 2pi/SCALE and weight: Automatic mesh                          
   0.00000000  0.00000000  0.00000000       0.002
   0.01993583 -0.01150995  0.00000000       0.011
   0.03987165 -0.02301991  0.00000000       0.011
   0.05980748 -0.03452986  0.00000000       0.006
   0.03987165  0.00000000  0.00000000       0.011
   0.05980748 -0.01150995  0.00000000       0.011
   0.07974331 -0.02301991  0.00000000       0.011
   0.07974331  0.00000000  0.00000000       0.004
   0.00000000  0.00000000  0.02267173       0.004
   0.01993583 -0.01150995  0.02267173       0.022
   0.03987165 -0.02301991  0.02267173       0.022
   0.05980748 -0.03452986  0.02267173       0.011
   0.03987165  0.00000000  0.02267173       0.022
   0.05980748 -0.01150995  0.02267173       0.022
   0.07974331 -0.02301991  0.02267173       0.022
   0.07974331  0.00000000  0.02267173       0.007
   0.00000000  0.00000000  0.04534347       0.004
   0.01993583 -0.01150995  0.04534347       0.022
   0.03987165 -0.02301991  0.04534347       0.022
   0.05980748 -0.03452986  0.04534347       0.011
   0.03987165  0.00000000  0.04534347       0.022
   0.05980748 -0.01150995  0.04534347       0.022
   0.07974331 -0.02301991  0.04534347       0.022
   0.07974331  0.00000000  0.04534347       0.007
   0.00000000  0.00000000  0.06801520       0.004
   0.01993583 -0.01150995  0.06801520       0.022
   0.03987165 -0.02301991  0.06801520       0.022
   0.05980748 -0.03452986  0.06801520       0.011
   0.03987165  0.00000000  0.06801520       0.022
   0.05980748 -0.01150995  0.06801520       0.022
   0.07974331 -0.02301991  0.06801520       0.022
   0.07974331  0.00000000  0.06801520       0.007
   0.00000000  0.00000000  0.09068693       0.004
   0.01993583 -0.01150995  0.09068693       0.022
   0.03987165 -0.02301991  0.09068693       0.022
   0.05980748 -0.03452986  0.09068693       0.011
   0.03987165  0.00000000  0.09068693       0.022
   0.05980748 -0.01150995  0.09068693       0.022
   0.07974331 -0.02301991  0.09068693       0.022
   0.07974331  0.00000000  0.09068693       0.007
   0.00000000  0.00000000  0.11335867       0.004
   0.01993583 -0.01150995  0.11335867       0.022
   0.03987165 -0.02301991  0.11335867       0.022
   0.05980748 -0.03452986  0.11335867       0.011
   0.03987165  0.00000000  0.11335867       0.022
   0.05980748 -0.01150995  0.11335867       0.022
   0.07974331 -0.02301991  0.11335867       0.022
   0.07974331  0.00000000  0.11335867       0.007
   0.00000000  0.00000000  0.13603040       0.004
   0.01993583 -0.01150995  0.13603040       0.022
   0.03987165 -0.02301991  0.13603040       0.022
   0.05980748 -0.03452986  0.13603040       0.011
   0.03987165  0.00000000  0.13603040       0.022
   0.05980748 -0.01150995  0.13603040       0.022
   0.07974331 -0.02301991  0.13603040       0.022
   0.07974331  0.00000000  0.13603040       0.007
   0.00000000  0.00000000  0.15870213       0.004
   0.01993583 -0.01150995  0.15870213       0.022
   0.03987165 -0.02301991  0.15870213       0.022
   0.05980748 -0.03452986  0.15870213       0.011
   0.03987165  0.00000000  0.15870213       0.022
   0.05980748 -0.01150995  0.15870213       0.022
   0.07974331 -0.02301991  0.15870213       0.022
   0.07974331  0.00000000  0.15870213       0.007
 
 k-points in reciprocal lattice and weights: Automatic mesh                          
   0.00000000  0.00000000  0.00000000       0.002
   0.16666667  0.00000000  0.00000000       0.011
   0.33333333  0.00000000  0.00000000       0.011
   0.50000000  0.00000000  0.00000000       0.006
   0.16666667  0.16666667  0.00000000       0.011
   0.33333333  0.16666667  0.00000000       0.011
   0.50000000  0.16666667  0.00000000       0.011
   0.33333333  0.33333333  0.00000000       0.004
   0.00000000  0.00000000  0.06666667       0.004
   0.16666667  0.00000000  0.06666667       0.022
   0.33333333  0.00000000  0.06666667       0.022
   0.50000000  0.00000000  0.06666667       0.011
   0.16666667  0.16666667  0.06666667       0.022
   0.33333333  0.16666667  0.06666667       0.022
   0.50000000  0.16666667  0.06666667       0.022
   0.33333333  0.33333333  0.06666667       0.007
   0.00000000  0.00000000  0.13333333       0.004
   0.16666667  0.00000000  0.13333333       0.022
   0.33333333  0.00000000  0.13333333       0.022
   0.50000000  0.00000000  0.13333333       0.011
   0.16666667  0.16666667  0.13333333       0.022
   0.33333333  0.16666667  0.13333333       0.022
   0.50000000  0.16666667  0.13333333       0.022
   0.33333333  0.33333333  0.13333333       0.007
   0.00000000  0.00000000  0.20000000       0.004
   0.16666667  0.00000000  0.20000000       0.022
   0.33333333  0.00000000  0.20000000       0.022
   0.50000000  0.00000000  0.20000000       0.011
   0.16666667  0.16666667  0.20000000       0.022
   0.33333333  0.16666667  0.20000000       0.022
   0.50000000  0.16666667  0.20000000       0.022
   0.33333333  0.33333333  0.20000000       0.007
   0.00000000  0.00000000  0.26666667       0.004
   0.16666667  0.00000000  0.26666667       0.022
   0.33333333  0.00000000  0.26666667       0.022
   0.50000000  0.00000000  0.26666667       0.011
   0.16666667  0.16666667  0.26666667       0.022
   0.33333333  0.16666667  0.26666667       0.022
   0.50000000  0.16666667  0.26666667       0.022
   0.33333333  0.33333333  0.26666667       0.007
   0.00000000  0.00000000  0.33333333       0.004
   0.16666667  0.00000000  0.33333333       0.022
   0.33333333  0.00000000  0.33333333       0.022
   0.50000000  0.00000000  0.33333333       0.011
   0.16666667  0.16666667  0.33333333       0.022
   0.33333333  0.16666667  0.33333333       0.022
   0.50000000  0.16666667  0.33333333       0.022
   0.33333333  0.33333333  0.33333333       0.007
   0.00000000  0.00000000  0.40000000       0.004
   0.16666667  0.00000000  0.40000000       0.022
   0.33333333  0.00000000  0.40000000       0.022
   0.50000000  0.00000000  0.40000000       0.011
   0.16666667  0.16666667  0.40000000       0.022
   0.33333333  0.16666667  0.40000000       0.022
   0.50000000  0.16666667  0.40000000       0.022
   0.33333333  0.33333333  0.40000000       0.007
   0.00000000  0.00000000  0.46666667       0.004
   0.16666667  0.00000000  0.46666667       0.022
   0.33333333  0.00000000  0.46666667       0.022
   0.50000000  0.00000000  0.46666667       0.011
   0.16666667  0.16666667  0.46666667       0.022
   0.33333333  0.16666667  0.46666667       0.022
   0.50000000  0.16666667  0.46666667       0.022
   0.33333333  0.33333333  0.46666667       0.007
 
 position of ions in fractional coordinates (direct lattice) 
   0.19708959  0.83151770  0.75000000
   0.36557189  0.19708959  0.25000000
   0.83151770  0.63442811  0.25000000
   0.16848230  0.36557189  0.75000000
   0.63442811  0.80291041  0.75000000
   0.80291041  0.16848230  0.25000000
   0.33333333  0.66666667  0.75000000
   0.66666667  0.33333333  0.25000000
   0.96358754  0.61246345  0.75000000
   0.35112409  0.96358754  0.25000000
   0.61246345  0.64887591  0.25000000
   0.38753655  0.35112409  0.75000000
   0.03641246  0.38753655  0.25000000
   0.64887591  0.03641246  0.75000000
 
 position of ions in cartesian coordinates  (Angst):
   4.29965998  4.59332905  2.20538941
   2.35196957 -1.21983029  0.73512980
   6.12776963 -1.42695024  0.73512980
   2.23238881  1.42695025  2.20538941
   6.00818887  1.21983030  2.20538941
   4.06049846 -4.59332904  0.73512980
   4.18007922  2.41336987  2.20538941
   4.18007922 -2.41336986  0.73512980
   6.58801800 -2.54217689  2.20538941
   5.49559877  4.43430250  0.73512980
   5.27249844  0.26363020  0.73512980
   3.08766000 -0.26363019  2.20538941
   1.77214044  2.54217690  0.73512980
   2.86455967 -4.43430249  2.20538941
 


--------------------------------------------------------------------------------------------------------


 k-point  1 :   0.0000 0.0000 0.0000  plane waves:    3279
 k-point  2 :   0.1667 0.0000 0.0000  plane waves:    3253
 k-point  3 :   0.3333 0.0000 0.0000  plane waves:    3232
 k-point  4 :   0.5000 0.0000 0.0000  plane waves:    3222
 k-point  5 :   0.1667 0.1667 0.0000  plane waves:    3225
 k-point  6 :   0.3333 0.1667 0.0000  plane waves:    3224
 k-point  7 :   0.5000 0.1667 0.0000  plane waves:    3224
 k-point  8 :   0.3333 0.3333 0.0000  plane waves:    3228
 k-point  9 :   0.0000 0.0000 0.0667  plane waves:    3255
 k-point 10 :   0.1667 0.0000 0.0667  plane waves:    3244
 k-point 11 :   0.3333 0.0000 0.0667  plane waves:    3228
 k-point 12 :   0.5000 0.0000 0.0667  plane waves:    3216
 k-point 13 :   0.1667 0.1667 0.0667  plane waves:    3235
 k-point 14 :   0.3333 0.1667 0.0667  plane waves:    3220
 k-point 15 :   0.5000 0.1667 0.0667  plane waves:    3220
 k-point 16 :   0.3333 0.3333 0.0667  plane waves:    3231
 k-point 17 :   0.0000 0.0000 0.1333  plane waves:    3225
 k-point 18 :   0.1667 0.0000 0.1333  plane waves:    3231
 k-point 19 :   0.3333 0.0000 0.1333  plane waves:    3230
 k-point 20 :   0.5000 0.0000 0.1333  plane waves:    3224
 k-point 21 :   0.1667 0.1667 0.1333  plane waves:    3236
 k-point 22 :   0.3333 0.1667 0.1333  plane waves:    3230
 k-point 23 :   0.5000 0.1667 0.1333  plane waves:    3230
 k-point 24 :   0.3333 0.3333 0.1333  plane waves:    3207
 k-point 25 :   0.0000 0.0000 0.2000  plane waves:    3243
 k-point 26 :   0.1667 0.0000 0.2000  plane waves:    3236
 k-point 27 :   0.3333 0.0000 0.2000  plane waves:    3224
 k-point 28 :   0.5000 0.0000 0.2000  plane waves:    3222
 k-point 29 :   0.1667 0.1667 0.2000  plane waves:    3222
 k-point 30 :   0.3333 0.1667 0.2000  plane waves:    3221
 k-point 31 :   0.5000 0.1667 0.2000  plane waves:    3221
 k-point 32 :   0.3333 0.3333 0.2000  plane waves:    3210
 k-point 33 :   0.0000 0.0000 0.2667  plane waves:    3232
 k-point 34 :   0.1667 0.0000 0.2667  plane waves:    3234
 k-point 35 :   0.3333 0.0000 0.2667  plane waves:    3229
 k-point 36 :   0.5000 0.0000 0.2667  plane waves:    3234
 k-point 37 :   0.1667 0.1667 0.2667  plane waves:    3230
 k-point 38 :   0.3333 0.1667 0.2667  plane waves:    3227
 k-point 39 :   0.5000 0.1667 0.2667  plane waves:    3227
 k-point 40 :   0.3333 0.3333 0.2667  plane waves:    3219
 k-point 41 :   0.0000 0.0000 0.3333  plane waves:    3214
 k-point 42 :   0.1667 0.0000 0.3333  plane waves:    3232
 k-point 43 :   0.3333 0.0000 0.3333  plane waves:    3231
 k-point 44 :   0.5000 0.0000 0.3333  plane waves:    3242
 k-point 45 :   0.1667 0.1667 0.3333  plane waves:    3231
 k-point 46 :   0.3333 0.1667 0.3333  plane waves:    3240
 k-point 47 :   0.5000 0.1667 0.3333  plane waves:    3240
 k-point 48 :   0.3333 0.3333 0.3333  plane waves:    3249
 k-point 49 :   0.0000 0.0000 0.4000  plane waves:    3226
 k-point 50 :   0.1667 0.0000 0.4000  plane waves:    3242
 k-point 51 :   0.3333 0.0000 0.4000  plane waves:    3239
 k-point 52 :   0.5000 0.0000 0.4000  plane waves:    3236
 k-point 53 :   0.1667 0.1667 0.4000  plane waves:    3238
 k-point 54 :   0.3333 0.1667 0.4000  plane waves:    3243
 k-point 55 :   0.5000 0.1667 0.4000  plane waves:    3243
 k-point 56 :   0.3333 0.3333 0.4000  plane waves:    3249
 k-point 57 :   0.0000 0.0000 0.4667  plane waves:    3226
 k-point 58 :   0.1667 0.0000 0.4667  plane waves:    3251
 k-point 59 :   0.3333 0.0000 0.4667  plane waves:    3236
 k-point 60 :   0.5000 0.0000 0.4667  plane waves:    3232
 k-point 61 :   0.1667 0.1667 0.4667  plane waves:    3241
 k-point 62 :   0.3333 0.1667 0.4667  plane waves:    3245
 k-point 63 :   0.5000 0.1667 0.4667  plane waves:    3245
 k-point 64 :   0.3333 0.3333 0.4667  plane waves:    3270

 maximum and minimum number of plane-waves per node :       845      766

 maximum number of plane-waves:      3279
 maximum index in each direction: 
   IXMAX=   13   IYMAX=   13   IZMAX=    4
   IXMIN=  -14   IYMIN=  -13   IZMIN=   -5


 real space projection operators:
  total allocation   :       4517.62 KBytes
  max/ min on nodes  :       1130.38       1126.88


 parallel 3D FFT for wavefunctions:
    minimum data exchange during FFTs selected (reduces bandwidth)
 parallel 3D FFT for charge:
    minimum data exchange during FFTs selected (reduces bandwidth)


 total amount of memory used by VASP MPI-rank0    45846. kBytes
=======================================================================

   base      :      30000. kBytes
   nonlr-proj:       3114. kBytes
   fftplans  :       1579. kBytes
   grid      :       2458. kBytes
   one-center:         12. kBytes
   wavefun   :       8683. kBytes
 
     INWAV:  cpu time    0.0000: real time    0.0000
 Broyden mixing: mesh for mixing (old mesh)
   NGX = 27   NGY = 27   NGZ =  9
  (NGX  =112   NGY  =112   NGZ  = 40)
  gives a total of   6561 points

 initial charge density was supplied:
 charge density of overlapping atoms calculated
 number of electron      62.0000000 magnetization 
 keeping initial charge density in first step


--------------------------------------------------------------------------------------------------------


 Maximum index for non-local projection operator         1757
 Maximum index for augmentation-charges          807 (set IRDMAX)


--------------------------------------------------------------------------------------------------------


 First call to EWALD:  gamma=   0.315
 Maximum number of real-space cells 2x 2x 5
 Maximum number of reciprocal cells 4x 4x 2

    FEWALD:  cpu time    0.0020: real time    0.0023


--------------------------------------- Iteration      1(   1)  ---------------------------------------


    POTLOK:  cpu time    0.0328: real time    0.0361
    SETDIJ:  cpu time    0.0051: real time    0.0051
     EDDAV:  cpu time    2.2343: real time    2.2364
       DOS:  cpu time    0.0023: real time    0.0023
    --------------------------------------------
      LOOP:  cpu time    2.2744: real time    2.2799

 eigenvalue-minimisations  :  5144
 total energy-change (2. order) : 0.2225458E+03  (-0.2473635E+04)
 number of electron      62.0000000 magnetization 
 augmentation part       62.0000000 magnetization 

 Free energy of the ion-electron system (eV)
  ---------------------------------------------------
  alpha Z        PSCENC =        68.49184855
  Ewald energy   TEWEN  =     -2139.14785466
  -Hartree energ DENC   =      -542.95288713
  -exchange      EXHF   =         0.00000000
  -V(xc)+E(xc)   XCENC  =        47.83535312
  PAW double counting   =      1934.58678659    -1800.98643654
  entropy T*S    EENTRO =        -0.00220647
  eigenvalues    EBANDS =       243.34518376
  atomic energy  EATOM  =      2411.37598431
  Solvation  Ediel_sol  =         0.00000000
  ---------------------------------------------------
  free energy    TOTEN  =       222.54577153 eV

  energy without entropy =      222.54797800  energy(sigma->0) =      222.54632315


--------------------------------------------------------------------------------------------------------




--------------------------------------- Iteration      1(   2)  ---------------------------------------


     EDDAV:  cpu time    2.7173: real time    2.7234
       DOS:  cpu time    0.0027: real time    0.0027
    --------------------------------------------
      LOOP:  cpu time    2.7200: real time    2.7261

 eigenvalue-minimisations  :  6472
 total energy-change (2. order) :-0.3004282E+03  (-0.2882529E+03)
 number of electron      62.0000000 magnetization 
 augmentation part       62.0000000 magnetization 

 Free energy of the ion-electron system (eV)
  ---------------------------------------------------
  alpha Z        PSCENC =        68.49184855
  Ewald energy   TEWEN  =     -2139.14785466
  -Hartree energ DENC   =      -542.95288713
  -exchange      EXHF   =         0.00000000
  -V(xc)+E(xc)   XCENC  =        47.83535312
  PAW double counting   =      1934.58678659    -1800.98643654
  entropy T*S    EENTRO =        -0.00274919
  eigenvalues    EBANDS =       -57.08243043
  atomic energy  EATOM  =      2411.37598431
  Solvation  Ediel_sol  =         0.00000000
  ---------------------------------------------------
  free energy    TOTEN  =       -77.88238537 eV

  energy without entropy =      -77.87963618  energy(sigma->0) =      -77.88169807


--------------------------------------------------------------------------------------------------------




--------------------------------------- Iteration      1(   3)  ---------------------------------------


     EDDAV:  cpu time    3.1789: real time    3.2055
       DOS:  cpu time    0.0027: real time    0.0027
    --------------------------------------------
      LOOP:  cpu time    3.1815: real time    3.2082

 eigenvalue-minimisations  :  6520
 total energy-change (2. order) :-0.2429001E+02  (-0.2370764E+02)
 number of electron      62.0000000 magnetization 
 augmentation part       62.0000000 magnetization 

 Free energy of the ion-electron system (eV)
  ---------------------------------------------------
  alpha Z        PSCENC =        68.49184855
  Ewald energy   TEWEN  =     -2139.14785466
  -Hartree energ DENC   =      -542.95288713
  -exchange      EXHF   =         0.00000000
  -V(xc)+E(xc)   XCENC  =        47.83535312
  PAW double counting   =      1934.58678659    -1800.98643654
  entropy T*S    EENTRO =         0.00098085
  eigenvalues    EBANDS =       -81.37616767
  atomic energy  EATOM  =      2411.37598431
  Solvation  Ediel_sol  =         0.00000000
  ---------------------------------------------------
  free energy    TOTEN  =      -102.17239258 eV

  energy without entropy =     -102.17337342  energy(sigma->0) =     -102.17263779


--------------------------------------------------------------------------------------------------------




--------------------------------------- Iteration      1(   4)  ---------------------------------------


     EDDAV:  cpu time    2.7263: real time    2.7273
       DOS:  cpu time    0.0027: real time    0.0027
    --------------------------------------------
      LOOP:  cpu time    2.7291: real time    2.7301

 eigenvalue-minimisations  :  6584
 total energy-change (2. order) :-0.6456967E+00  (-0.6415402E+00)
 number of electron      62.0000000 magnetization 
 augmentation part       62.0000000 magnetization 

 Free energy of the ion-electron system (eV)
  ---------------------------------------------------
  alpha Z        PSCENC =        68.49184855
  Ewald energy   TEWEN  =     -2139.14785466
  -Hartree energ DENC   =      -542.95288713
  -exchange      EXHF   =         0.00000000
  -V(xc)+E(xc)   XCENC  =        47.83535312
  PAW double counting   =      1934.58678659    -1800.98643654
  entropy T*S    EENTRO =         0.00190464
  eigenvalues    EBANDS =       -82.02278819
  atomic energy  EATOM  =      2411.37598431
  Solvation  Ediel_sol  =         0.00000000
  ---------------------------------------------------
  free energy    TOTEN  =      -102.81808931 eV

  energy without entropy =     -102.81999394  energy(sigma->0) =     -102.81856547


--------------------------------------------------------------------------------------------------------




--------------------------------------- Iteration      1(   5)  ---------------------------------------


     EDDAV:  cpu time    2.8975: real time    3.0161
       DOS:  cpu time    0.0026: real time    0.0026
    CHARGE:  cpu time    0.1394: real time    0.1395
    MIXING:  cpu time    0.0062: real time    0.0166
    --------------------------------------------
      LOOP:  cpu time    3.0457: real time    3.1748

 eigenvalue-minimisations  :  6544
 total energy-change (2. order) :-0.1696158E-01  (-0.1695064E-01)
 number of electron      61.9999979 magnetization 
 augmentation part        0.2447629 magnetization 

 Broyden mixing:
  rms(total) = 0.20510E+01    rms(broyden)= 0.20503E+01
  rms(prec ) = 0.31210E+01
  weight for this iteration     100.00

 Free energy of the ion-electron system (eV)
  ---------------------------------------------------
  alpha Z        PSCENC =        68.49184855
  Ewald energy   TEWEN  =     -2139.14785466
  -Hartree energ DENC   =      -542.95288713
  -exchange      EXHF   =         0.00000000
  -V(xc)+E(xc)   XCENC  =        47.83535312
  PAW double counting   =      1934.58678659    -1800.98643654
  entropy T*S    EENTRO =         0.00190275
  eigenvalues    EBANDS =       -82.03974788
  atomic energy  EATOM  =      2411.37598431
  Solvation  Ediel_sol  =         0.00000000
  ---------------------------------------------------
  free energy    TOTEN  =      -102.83505089 eV

  energy without entropy =     -102.83695363  energy(sigma->0) =     -102.83552657


--------------------------------------------------------------------------------------------------------




--------------------------------------- Iteration      1(   6)  ---------------------------------------


    POTLOK:  cpu time    0.0271: real time    0.0315
    SETDIJ:  cpu time    0.0022: real time    0.0022
    EDDIAG:  cpu time    0.3804: real time    0.3811
  RMM-DIIS:  cpu time    1.5635: real time    1.5639
    ORTHCH:  cpu time    0.0345: real time    0.0345
       DOS:  cpu time    0.0026: real time    0.0026
    CHARGE:  cpu time    0.1412: real time    0.1412
    MIXING:  cpu time    0.0008: real time    0.0008
    --------------------------------------------
      LOOP:  cpu time    2.1524: real time    2.1579

 eigenvalue-minimisations  :  5120
 total energy-change (2. order) : 0.7952041E+01  (-0.4999495E+01)
 number of electron      61.9999985 magnetization 
 augmentation part       -0.5493821 magnetization 

 Broyden mixing:
  rms(total) = 0.94343E+00    rms(broyden)= 0.94258E+00
  rms(prec ) = 0.11683E+01
  weight for this iteration     100.00

 eigenvalues of (default mixing * dielectric matrix)
  average eigenvalue GAMMA=   0.9147
  0.9147

 Free energy of the ion-electron system (eV)
  ---------------------------------------------------
  alpha Z        PSCENC =        68.49184855
  Ewald energy   TEWEN  =     -2139.14785466
  -Hartree energ DENC   =      -621.20608961
  -exchange      EXHF   =         0.00000000
  -V(xc)+E(xc)   XCENC  =        53.26992606
  PAW double counting   =      3358.77727905    -3225.81653009
  entropy T*S    EENTRO =         0.00110989
  eigenvalues    EBANDS =        -0.62868353
  atomic energy  EATOM  =      2411.37598431
  Solvation  Ediel_sol  =         0.00000000
  ---------------------------------------------------
  free energy    TOTEN  =       -94.88301003 eV

  energy without entropy =      -94.88411992  energy(sigma->0) =      -94.88328750


--------------------------------------------------------------------------------------------------------




--------------------------------------- Iteration      1(   7)  ---------------------------------------


    POTLOK:  cpu time    0.0256: real time    0.0274
    SETDIJ:  cpu time    0.0022: real time    0.0022
    EDDIAG:  cpu time    0.3392: real time    0.3393
  RMM-DIIS:  cpu time    1.5626: real time    1.5628
    ORTHCH:  cpu time    0.0367: real time    0.0367
       DOS:  cpu time    0.0027: real time    0.0027
    CHARGE:  cpu time    0.1418: real time    0.1418
    MIXING:  cpu time    0.0008: real time    0.0008
    --------------------------------------------
      LOOP:  cpu time    2.1117: real time    2.1137

 eigenvalue-minimisations  :  5170
 total energy-change (2. order) : 0.5566457E+00  (-0.1040482E+00)
 number of electron      61.9999985 magnetization 
 augmentation part       -0.5158060 magnetization 

 Broyden mixing:
  rms(total) = 0.53557E+00    rms(broyden)= 0.53555E+00
  rms(prec ) = 0.64009E+00
  weight for this iteration     100.00

 eigenvalues of (default mixing * dielectric matrix)
  average eigenvalue GAMMA=   1.5076
  0.9588  2.0564

 Free energy of the ion-electron system (eV)
  ---------------------------------------------------
  alpha Z        PSCENC =        68.49184855
  Ewald energy   TEWEN  =     -2139.14785466
  -Hartree energ DENC   =      -615.59516906
  -exchange      EXHF   =         0.00000000
  -V(xc)+E(xc)   XCENC  =        53.05059843
  PAW double counting   =      4278.86710030    -4145.98377515
  entropy T*S    EENTRO =         0.00038606
  eigenvalues    EBANDS =        -5.38548307
  atomic energy  EATOM  =      2411.37598431
  Solvation  Ediel_sol  =         0.00000000
  ---------------------------------------------------
  free energy    TOTEN  =       -94.32636428 eV

  energy without entropy =      -94.32675034  energy(sigma->0) =      -94.32646080


--------------------------------------------------------------------------------------------------------




--------------------------------------- Iteration      1(   8)  ---------------------------------------


    POTLOK:  cpu time    0.0208: real time    0.0228
    SETDIJ:  cpu time    0.0023: real time    0.0023
    EDDIAG:  cpu time    0.3411: real time    0.3412
  RMM-DIIS:  cpu time    1.5529: real time    1.5532
    ORTHCH:  cpu time    0.0339: real time    0.0339
       DOS:  cpu time    0.0027: real time    0.0027
    CHARGE:  cpu time    0.1419: real time    0.1420
    MIXING:  cpu time    0.0008: real time    0.0008
    --------------------------------------------
      LOOP:  cpu time    2.0963: real time    2.0988

 eigenvalue-minimisations  :  5126
 total energy-change (2. order) : 0.5652075E-01  (-0.7213971E-01)
 number of electron      61.9999985 magnetization 
 augmentation part       -0.4608412 magnetization 

 Broyden mixing:
  rms(total) = 0.11853E+00    rms(broyden)= 0.11833E+00
  rms(prec ) = 0.21164E+00
  weight for this iteration     100.00

 eigenvalues of (default mixing * dielectric matrix)
  average eigenvalue GAMMA=   1.4582
  2.3324  1.0211  1.0211

 Free energy of the ion-electron system (eV)
  ---------------------------------------------------
  alpha Z        PSCENC =        68.49184855
  Ewald energy   TEWEN  =     -2139.14785466
  -Hartree energ DENC   =      -615.40810547
  -exchange      EXHF   =         0.00000000
  -V(xc)+E(xc)   XCENC  =        53.29671500
  PAW double counting   =      5720.88672219    -5588.15601792
  entropy T*S    EENTRO =         0.00019764
  eigenvalues    EBANDS =        -5.60933318
  atomic energy  EATOM  =      2411.37598431
  Solvation  Ediel_sol  =         0.00000000
  ---------------------------------------------------
  free energy    TOTEN  =       -94.26984353 eV

  energy without entropy =      -94.27004117  energy(sigma->0) =      -94.26989294


--------------------------------------------------------------------------------------------------------




--------------------------------------- Iteration      1(   9)  ---------------------------------------


    POTLOK:  cpu time    0.0321: real time    0.0339
    SETDIJ:  cpu time    0.0026: real time    0.0028
    EDDIAG:  cpu time    0.3423: real time    0.3425
  RMM-DIIS:  cpu time    1.5647: real time    1.5652
    ORTHCH:  cpu time    0.0406: real time    0.0406
       DOS:  cpu time    0.0027: real time    0.0027
    CHARGE:  cpu time    0.1399: real time    0.1399
    MIXING:  cpu time    0.0008: real time    0.0008
    --------------------------------------------
      LOOP:  cpu time    2.1256: real time    2.1284

 eigenvalue-minimisations  :  5157
 total energy-change (2. order) : 0.3490352E-01  (-0.2459083E-01)
 number of electron      61.9999985 magnetization 
 augmentation part       -0.5161195 magnetization 

 Broyden mixing:
  rms(total) = 0.50327E-01    rms(broyden)= 0.50257E-01
  rms(prec ) = 0.71538E-01
  weight for this iteration     100.00

 eigenvalues of (default mixing * dielectric matrix)
  average eigenvalue GAMMA=   1.5466
  2.1439  2.1439  0.9492  0.9492

 Free energy of the ion-electron system (eV)
  ---------------------------------------------------
  alpha Z        PSCENC =        68.49184855
  Ewald energy   TEWEN  =     -2139.14785466
  -Hartree energ DENC   =      -622.74008588
  -exchange      EXHF   =         0.00000000
  -V(xc)+E(xc)   XCENC  =        53.82606444
  PAW double counting   =      5908.26606835    -5775.60130197
  entropy T*S    EENTRO =         0.00047262
  eigenvalues    EBANDS =         1.29386422
  atomic energy  EATOM  =      2411.37598431
  Solvation  Ediel_sol  =         0.00000000
  ---------------------------------------------------
  free energy    TOTEN  =       -94.23494001 eV

  energy without entropy =      -94.23541263  energy(sigma->0) =      -94.23505817


--------------------------------------------------------------------------------------------------------




--------------------------------------- Iteration      1(  10)  ---------------------------------------


    POTLOK:  cpu time    0.1402: real time    0.1460
    SETDIJ:  cpu time    0.0023: real time    0.0023
    EDDIAG:  cpu time    0.3393: real time    0.3394
  RMM-DIIS:  cpu time    1.6509: real time    1.6515
    ORTHCH:  cpu time    0.0352: real time    0.0352
       DOS:  cpu time    0.0027: real time    0.0027
    CHARGE:  cpu time    0.1377: real time    0.1378
    MIXING:  cpu time    0.0008: real time    0.0008
    --------------------------------------------
      LOOP:  cpu time    2.3091: real time    2.3158

 eigenvalue-minimisations  :  5226
 total energy-change (2. order) : 0.1934532E-02  (-0.9445274E-03)
 number of electron      61.9999985 magnetization 
 augmentation part       -0.5116139 magnetization 

 Broyden mixing:
  rms(total) = 0.20881E-01    rms(broyden)= 0.20880E-01
  rms(prec ) = 0.30933E-01
  weight for this iteration     100.00

 eigenvalues of (default mixing * dielectric matrix)
  average eigenvalue GAMMA=   1.5960
  2.5102  2.5102  0.9747  0.9747  1.0103

 Free energy of the ion-electron system (eV)
  ---------------------------------------------------
  alpha Z        PSCENC =        68.49184855
  Ewald energy   TEWEN  =     -2139.14785466
  -Hartree energ DENC   =      -621.90211365
  -exchange      EXHF   =         0.00000000
  -V(xc)+E(xc)   XCENC  =        53.76838010
  PAW double counting   =      5826.86313339    -5694.19474520
  entropy T*S    EENTRO =         0.00055057
  eigenvalues    EBANDS =         0.51181111
  atomic energy  EATOM  =      2411.37598431
  Solvation  Ediel_sol  =         0.00000000
  ---------------------------------------------------
  free energy    TOTEN  =       -94.23300548 eV

  energy without entropy =      -94.23355605  energy(sigma->0) =      -94.23314312


--------------------------------------------------------------------------------------------------------




--------------------------------------- Iteration      1(  11)  ---------------------------------------


    POTLOK:  cpu time    0.0192: real time    0.0213
    SETDIJ:  cpu time    0.0022: real time    0.0022
    EDDIAG:  cpu time    0.3378: real time    0.3379
  RMM-DIIS:  cpu time    1.5540: real time    1.5557
    ORTHCH:  cpu time    0.0328: real time    0.0328
       DOS:  cpu time    0.0026: real time    0.0026
    CHARGE:  cpu time    0.1361: real time    0.1362
    MIXING:  cpu time    0.0007: real time    0.0007
    --------------------------------------------
      LOOP:  cpu time    2.0855: real time    2.0894

 eigenvalue-minimisations  :  5143
 total energy-change (2. order) :-0.7444121E-03  (-0.6798592E-03)
 number of electron      61.9999985 magnetization 
 augmentation part       -0.5038733 magnetization 

 Broyden mixing:
  rms(total) = 0.82273E-02    rms(broyden)= 0.82154E-02
  rms(prec ) = 0.12929E-01
  weight for this iteration     100.00

 eigenvalues of (default mixing * dielectric matrix)
  average eigenvalue GAMMA=   1.6668
  2.6708  2.3211  2.1444  0.9634  0.9634  0.9376

 Free energy of the ion-electron system (eV)
  ---------------------------------------------------
  alpha Z        PSCENC =        68.49184855
  Ewald energy   TEWEN  =     -2139.14785466
  -Hartree energ DENC   =      -621.58093017
  -exchange      EXHF   =         0.00000000
  -V(xc)+E(xc)   XCENC  =        53.74748927
  PAW double counting   =      5787.71544960    -5655.04585646
  entropy T*S    EENTRO =         0.00060868
  eigenvalues    EBANDS =         0.20951098
  atomic energy  EATOM  =      2411.37598431
  Solvation  Ediel_sol  =         0.00000000
  ---------------------------------------------------
  free energy    TOTEN  =       -94.23374989 eV

  energy without entropy =      -94.23435857  energy(sigma->0) =      -94.23390206


--------------------------------------------------------------------------------------------------------




--------------------------------------- Iteration      1(  12)  ---------------------------------------


    POTLOK:  cpu time    0.0189: real time    0.0276
    SETDIJ:  cpu time    0.0023: real time    0.0023
    EDDIAG:  cpu time    0.3363: real time    0.3365
  RMM-DIIS:  cpu time    1.5036: real time    1.5042
    ORTHCH:  cpu time    0.0329: real time    0.0329
       DOS:  cpu time    0.0026: real time    0.0026
    --------------------------------------------
      LOOP:  cpu time    1.8967: real time    1.9061

 eigenvalue-minimisations  :  4863
 total energy-change (2. order) : 0.6084953E-04  (-0.8968914E-04)
 number of electron      61.9999985 magnetization 
 augmentation part       -0.5038733 magnetization 

 Free energy of the ion-electron system (eV)
  ---------------------------------------------------
  alpha Z        PSCENC =        68.49184855
  Ewald energy   TEWEN  =     -2139.14785466
  -Hartree energ DENC   =      -622.06095686
  -exchange      EXHF   =         0.00000000
  -V(xc)+E(xc)   XCENC  =        53.77623356
  PAW double counting   =      5784.59303340    -5651.92284260
  entropy T*S    EENTRO =         0.00061283
  eigenvalues    EBANDS =         0.66025243
  atomic energy  EATOM  =      2411.37598431
  Solvation  Ediel_sol  =         0.00000000
  ---------------------------------------------------
  free energy    TOTEN  =       -94.23368904 eV

  energy without entropy =      -94.23430187  energy(sigma->0) =      -94.23384225


--------------------------------------------------------------------------------------------------------




 average (electrostatic) potential at core
  the test charge radii are     0.7089  0.9892
  (the norm of the test charge is              1.0000)
       1 -61.9155       2 -61.9154       3 -61.9154       4 -61.9154       5 -61.9154
       6 -61.9155       7 -83.1298       8 -83.1298       9 -82.9475      10 -82.9475
      11 -82.9475      12 -82.9475      13 -82.9475      14 -82.9475
 
 
 
 E-fermi :   8.1431     XC(G=0): -10.4268     alpha+bet :-13.7094


 k-point     1 :       0.0000    0.0000    0.0000
  band No.  band energies     occupation 
      1     -10.5866      2.00000
      2      -9.6619      2.00000
      3      -9.6619      2.00000
      4      -9.0999      2.00000
      5      -9.0999      2.00000
      6      -8.9244      2.00000
      7      -2.9730      2.00000
      8      -2.9730      2.00000
      9      -2.6133      2.00000
     10      -2.1023      2.00000
     11      -1.2138      2.00000
     12      -0.0625      2.00000
     13      -0.0625      2.00000
     14       1.6790      2.00000
     15       1.6790      2.00000
     16       2.0227      2.00000
     17       2.6842      2.00000
     18       2.6842      2.00000
     19       2.8550      2.00000
     20       3.2362      2.00000
     21       3.7283      2.00000
     22       3.7283      2.00000
     23       4.1679      2.00000
     24       4.1679      2.00000
     25       4.3556      2.00000
     26       5.3730      2.00000
     27       5.4266      2.00000
     28       5.4266      2.00000
     29       7.1596      2.00000
     30       7.3774      2.00000
     31       7.3774      2.00000
     32      10.2099      0.00000
     33      10.2099      0.00000
     34      10.5336      0.00000
     35      11.2031      0.00000
     36      11.2040      0.00000
     37      12.0105      0.00000
     38      12.0279      0.00000
     39      12.2571      0.00000
     40      12.4508      0.00000

 k-point     2 :       0.1667    0.0000    0.0000
  band No.  band energies     occupation 
      1     -10.5426      2.00000
      2      -9.7481      2.00000
      3      -9.6960      2.00000
      4      -9.2228      2.00000
      5      -9.0483      2.00000
      6      -8.7518      2.00000
      7      -3.2351      2.00000
      8      -2.9351      2.00000
      9      -2.5534      2.00000
     10      -1.8136      2.00000
     11      -1.3065      2.00000
     12      -0.2945      2.00000
     13       0.0433      2.00000
     14       1.5803      2.00000
     15       1.7079      2.00000
     16       2.2270      2.00000
     17       2.4260      2.00000
     18       2.8346      2.00000
     19       3.0957      2.00000
     20       3.2618      2.00000
     21       3.6897      2.00000
     22       3.7159      2.00000
     23       4.1301      2.00000
     24       4.1847      2.00000
     25       4.4033      2.00000
     26       5.1472      2.00000
     27       5.1965      2.00000
     28       5.5109      2.00000
     29       7.0923      2.00000
     30       7.6178      2.00000
     31       7.6745      2.00000
     32       9.9475      0.00000
     33      10.2194      0.00000
     34      10.4037      0.00000
     35      11.0916      0.00000
     36      11.2030      0.00000
     37      11.7935      0.00000
     38      11.9556      0.00000
     39      12.3790      0.00000
     40      12.3835      0.00000

 k-point     3 :       0.3333    0.0000    0.0000
  band No.  band energies     occupation 
      1     -10.4147      2.00000
      2      -9.9664      2.00000
      3      -9.7521      2.00000
      4      -9.2993      2.00000
      5      -8.9561      2.00000
      6      -8.5708      2.00000
      7      -3.5623      2.00000
      8      -2.8486      2.00000
      9      -2.3914      2.00000
     10      -1.6707      2.00000
     11      -1.3102      2.00000
     12      -0.6834      2.00000
     13       0.3843      2.00000
     14       1.4133      2.00000
     15       1.6016      2.00000
     16       2.0880      2.00000
     17       2.6452      2.00000
     18       3.0731      2.00000
     19       3.3378      2.00000
     20       3.4417      2.00000
     21       3.5887      2.00000
     22       3.6940      2.00000
     23       4.0885      2.00000
     24       4.2165      2.00000
     25       4.4682      2.00000
     26       4.6170      2.00000
     27       4.8589      2.00000
     28       5.8646      2.00000
     29       6.8706      2.00000
     30       8.0291      2.08595
     31       8.2376     -0.10313
     32       9.3960      0.00000
     33       9.9667      0.00000
     34      10.2360      0.00000
     35      10.9835      0.00000
     36      11.2056      0.00000
     37      11.6378      0.00000
     38      11.9211      0.00000
     39      12.1812      0.00000
     40      12.3856      0.00000

 k-point     4 :       0.5000    0.0000    0.0000
  band No.  band energies     occupation 
      1     -10.2401      2.00000
      2     -10.1844      2.00000
      3      -9.7761      2.00000
      4      -9.3172      2.00000
      5      -8.9134      2.00000
      6      -8.5029      2.00000
      7      -3.6879      2.00000
      8      -2.7981      2.00000
      9      -2.2529      2.00000
     10      -1.8227      2.00000
     11      -1.1946      2.00000
     12      -0.8592      2.00000
     13       0.7588      2.00000
     14       1.2626      2.00000
     15       1.3721      2.00000
     16       1.9859      2.00000
     17       2.8732      2.00000
     18       3.1616      2.00000
     19       3.4245      2.00000
     20       3.4890      2.00000
     21       3.6838      2.00000
     22       3.6843      2.00000
     23       4.0759      2.00000
     24       4.2321      2.00000
     25       4.2650      2.00000
     26       4.4943      2.00000
     27       4.7399      2.00000
     28       6.1757      2.00000
     29       6.6296      2.00000
     30       8.1892      0.16848
     31       8.8215      0.00000
     32       8.8686      0.00000
     33       9.6677      0.00000
     34      10.2281      0.00000
     35      10.9921      0.00000
     36      11.2448      0.00000
     37      11.5549      0.00000
     38      11.9211      0.00000
     39      12.0246      0.00000
     40      12.5108      0.00000

 k-point     5 :       0.1667    0.1667    0.0000
  band No.  band energies     occupation 
      1     -10.4565      2.00000
      2      -9.8464      2.00000
      3      -9.8134      2.00000
      4      -9.2456      2.00000
      5      -9.0051      2.00000
      6      -8.6049      2.00000
      7      -3.5059      2.00000
      8      -2.8327      2.00000
      9      -2.4407      2.00000
     10      -1.6751      2.00000
     11      -1.4125      2.00000
     12      -0.4540      2.00000
     13       0.1984      2.00000
     14       1.3881      2.00000
     15       1.7997      2.00000
     16       2.1294      2.00000
     17       2.4608      2.00000
     18       3.0579      2.00000
     19       3.3141      2.00000
     20       3.3448      2.00000
     21       3.6372      2.00000
     22       3.6791      2.00000
     23       4.1096      2.00000
     24       4.2002      2.00000
     25       4.4559      2.00000
     26       4.8053      2.00000
     27       4.8991      2.00000
     28       5.7546      2.00000
     29       6.9556      2.00000
     30       7.9405      1.99013
     31       8.0627      2.08357
     32       9.5956      0.00000
     33       9.8397      0.00000
     34      10.5034      0.00000
     35      10.9189      0.00000
     36      11.2271      0.00000
     37      11.7031      0.00000
     38      11.8459      0.00000
     39      12.2371      0.00000
     40      12.5208      0.00000

 k-point     6 :       0.3333    0.1667    0.0000
  band No.  band energies     occupation 
      1     -10.2934      2.00000
      2     -10.0647      2.00000
      3      -9.8858      2.00000
      4      -9.2238      2.00000
      5      -8.9717      2.00000
      6      -8.4949      2.00000
      7      -3.7146      2.00000
      8      -2.6700      2.00000
      9      -2.2557      2.00000
     10      -1.8516      2.00000
     11      -1.5811      2.00000
     12      -0.3607      2.00000
     13       0.4958      2.00000
     14       1.1429      2.00000
     15       1.6283      2.00000
     16       2.0674      2.00000
     17       2.5968      2.00000
     18       3.2129      2.00000
     19       3.4041      2.00000
     20       3.5413      2.00000
     21       3.6414      2.00000
     22       3.6933      2.00000
     23       4.1069      2.00000
     24       4.2100      2.00000
     25       4.4627      2.00000
     26       4.4953      2.00000
     27       4.6384      2.00000
     28       6.1313      2.00000
     29       6.6961      2.00000
     30       8.3007     -0.01190
     31       8.4868      0.00006
     32       9.1532      0.00000
     33       9.3288      0.00000
     34      10.6097      0.00000
     35      10.8541      0.00000
     36      11.3049      0.00000
     37      11.6099      0.00000
     38      11.7869      0.00000
     39      11.9928      0.00000
     40      12.3575      0.00000

 k-point     7 :       0.5000    0.1667    0.0000
  band No.  band energies     occupation 
      1     -10.2934      2.00000
      2     -10.0646      2.00000
      3      -9.8859      2.00000
      4      -9.2238      2.00000
      5      -8.9717      2.00000
      6      -8.4949      2.00000
      7      -3.7146      2.00000
      8      -2.6678      2.00000
      9      -2.2665      2.00000
     10      -1.8294      2.00000
     11      -1.5950      2.00000
     12      -0.3647      2.00000
     13       0.5158      2.00000
     14       1.1002      2.00000
     15       1.7253      2.00000
     16       1.9606      2.00000
     17       2.6341      2.00000
     18       3.2373      2.00000
     19       3.4039      2.00000
     20       3.5416      2.00000
     21       3.6413      2.00000
     22       3.6790      2.00000
     23       4.1077      2.00000
     24       4.2085      2.00000
     25       4.3916      2.00000
     26       4.4961      2.00000
     27       4.7000      2.00000
     28       6.1361      2.00000
     29       6.6927      2.00000
     30       8.2423     -0.10252
     31       8.5749      0.00000
     32       9.0560      0.00000
     33       9.4094      0.00000
     34      10.5777      0.00000
     35      10.8532      0.00000
     36      11.3142      0.00000
     37      11.5845      0.00000
     38      11.8562      0.00000
     39      11.9823      0.00000
     40      12.4140      0.00000

 k-point     8 :       0.3333    0.3333    0.0000
  band No.  band energies     occupation 
      1     -10.1156      2.00000
      2     -10.1156      2.00000
      3     -10.0776      2.00000
      4      -9.0777      2.00000
      5      -9.0777      2.00000
      6      -8.4576      2.00000
      7      -3.7934      2.00000
      8      -2.3019      2.00000
      9      -2.3019      2.00000
     10      -1.9458      2.00000
     11      -1.9458      2.00000
     12       0.2496      2.00000
     13       0.2496      2.00000
     14       0.8955      2.00000
     15       1.6666      2.00000
     16       2.2999      2.00000
     17       2.2999      2.00000
     18       3.2796      2.00000
     19       3.4604      2.00000
     20       3.5515      2.00000
     21       3.5515      2.00000
     22       3.8652      2.00000
     23       4.1631      2.00000
     24       4.1631      2.00000
     25       4.4668      2.00000
     26       4.4668      2.00000
     27       4.5093      2.00000
     28       6.4464      2.00000
     29       6.4464      2.00000
     30       8.5500      0.00000
     31       8.7211      0.00000
     32       8.7211      0.00000
     33       9.0954      0.00000
     34      10.5645      0.00000
     35      11.2167      0.00000
     36      11.2175      0.00000
     37      11.7024      0.00000
     38      11.7038      0.00000
     39      11.7281      0.00000
     40      12.2893      0.00000

 k-point     9 :       0.0000    0.0000    0.0667
  band No.  band energies     occupation 
      1     -10.5357      2.00000
      2      -9.6181      2.00000
      3      -9.6181      2.00000
      4      -9.0602      2.00000
      5      -9.0602      2.00000
      6      -8.8900      2.00000
      7      -2.9301      2.00000
      8      -2.9301      2.00000
      9      -2.5527      2.00000
     10      -2.0477      2.00000
     11      -1.1835      2.00000
     12      -0.0354      2.00000
     13      -0.0354      2.00000
     14       1.7280      2.00000
     15       1.7280      2.00000
     16       2.0329      2.00000
     17       2.6821      2.00000
     18       2.6821      2.00000
     19       2.8293      2.00000
     20       2.9580      2.00000
     21       3.4662      2.00000
     22       3.4662      2.00000
     23       3.8913      2.00000
     24       3.8913      2.00000
     25       4.0399      2.00000
     26       5.4428      2.00000
     27       5.4428      2.00000
     28       5.5494      2.00000
     29       7.1201      2.00000
     30       7.5334      2.00000
     31       7.5334      2.00000
     32      10.0687      0.00000
     33      10.0692      0.00000
     34      10.4443      0.00000
     35      11.3551      0.00000
     36      11.3585      0.00000
     37      11.9647      0.00000
     38      12.0342      0.00000
     39      12.1580      0.00000
     40      12.3079      0.00000

 k-point    10 :       0.1667    0.0000    0.0667
  band No.  band energies     occupation 
      1     -10.4921      2.00000
      2      -9.7034      2.00000
      3      -9.6517      2.00000
      4      -9.1833      2.00000
      5      -9.0096      2.00000
      6      -8.7183      2.00000
      7      -3.1859      2.00000
      8      -2.8916      2.00000
      9      -2.4936      2.00000
     10      -1.7643      2.00000
     11      -1.2742      2.00000
     12      -0.2656      2.00000
     13       0.0671      2.00000
     14       1.6281      2.00000
     15       1.7414      2.00000
     16       2.2297      2.00000
     17       2.4156      2.00000
     18       2.8201      2.00000
     19       2.9949      2.00000
     20       3.0672      2.00000
     21       3.4352      2.00000
     22       3.4620      2.00000
     23       3.8410      2.00000
     24       3.9193      2.00000
     25       4.1265      2.00000
     26       5.1839      2.00000
     27       5.2301      2.00000
     28       5.6647      2.00000
     29       7.0606      2.00000
     30       7.7428      2.00000
     31       7.7903      1.99996
     32       9.9009      0.00000
     33      10.1208      0.00000
     34      10.3677      0.00000
     35      11.0999      0.00000
     36      11.2796      0.00000
     37      11.7017      0.00000
     38      11.9337      0.00000
     39      12.0841      0.00000
     40      12.2321      0.00000

 k-point    11 :       0.3333    0.0000    0.0667
  band No.  band energies     occupation 
      1     -10.3650      2.00000
      2      -9.9199      2.00000
      3      -9.7071      2.00000
      4      -9.2596      2.00000
      5      -8.9192      2.00000
      6      -8.5394      2.00000
      7      -3.5078      2.00000
      8      -2.8035      2.00000
      9      -2.3338      2.00000
     10      -1.6170      2.00000
     11      -1.2796      2.00000
     12      -0.6516      2.00000
     13       0.3986      2.00000
     14       1.4606      2.00000
     15       1.6170      2.00000
     16       2.0796      2.00000
     17       2.5966      2.00000
     18       3.0196      2.00000
     19       3.1218      2.00000
     20       3.2372      2.00000
     21       3.4545      2.00000
     22       3.5174      2.00000
     23       3.8192      2.00000
     24       3.9690      2.00000
     25       4.2311      2.00000
     26       4.6795      2.00000
     27       4.8867      2.00000
     28       5.9719      2.00000
     29       6.8681      2.00000
     30       8.0897      1.91387
     31       8.3089     -0.00340
     32       9.4633      0.00000
     33      10.0125      0.00000
     34      10.2119      0.00000
     35      10.8860      0.00000
     36      11.1640      0.00000
     37      11.4296      0.00000
     38      11.7919      0.00000
     39      11.9800      0.00000
     40      12.1870      0.00000

 k-point    12 :       0.5000    0.0000    0.0667
  band No.  band energies     occupation 
      1     -10.1915      2.00000
      2     -10.1362      2.00000
      3      -9.7308      2.00000
      4      -9.2773      2.00000
      5      -8.8773      2.00000
      6      -8.4723      2.00000
      7      -3.6317      2.00000
      8      -2.7518      2.00000
      9      -2.1978      2.00000
     10      -1.7663      2.00000
     11      -1.1630      2.00000
     12      -0.8266      2.00000
     13       0.7578      2.00000
     14       1.2828      2.00000
     15       1.4201      2.00000
     16       1.9841      2.00000
     17       2.7329      2.00000
     18       3.0777      2.00000
     19       3.2097      2.00000
     20       3.2980      2.00000
[...]
     39      10.6767      0.00000
     40      10.6767      0.00000

 k-point    58 :       0.1667    0.0000    0.4667
  band No.  band energies     occupation 
      1      -8.8994      2.00000
      2      -8.6467      2.00000
      3      -8.6280      2.00000
      4      -8.5800      2.00000
      5      -8.4666      2.00000
      6      -8.4634      2.00000
      7      -2.4436      2.00000
      8      -2.3507      2.00000
      9      -2.2252      2.00000
     10      -2.1288      2.00000
     11      -1.8186      2.00000
     12      -1.4732      2.00000
     13      -0.0235      2.00000
     14       0.4301      2.00000
     15       0.5768      2.00000
     16       0.8957      2.00000
     17       1.0884      2.00000
     18       1.1932      2.00000
     19       1.4268      2.00000
     20       1.5190      2.00000
     21       3.2543      2.00000
     22       3.3478      2.00000
     23       3.4243      2.00000
     24       3.5213      2.00000
     25       4.1197      2.00000
     26       4.4635      2.00000
     27       5.6255      2.00000
     28       5.6580      2.00000
     29       5.9418      2.00000
     30       6.0244      2.00000
     31       6.6853      2.00000
     32       7.0728      2.00000
     33       7.5348      2.00000
     34       8.2082      0.00430
     35       9.9686      0.00000
     36      10.1816      0.00000
     37      10.4706      0.00000
     38      10.5631      0.00000
     39      10.7648      0.00000
     40      10.7986      0.00000

 k-point    59 :       0.3333    0.0000    0.4667
  band No.  band energies     occupation 
      1      -8.8531      2.00000
      2      -8.7058      2.00000
      3      -8.6331      2.00000
      4      -8.5754      2.00000
      5      -8.4631      2.00000
      6      -8.4579      2.00000
      7      -2.5248      2.00000
      8      -2.3290      2.00000
      9      -2.2580      2.00000
     10      -2.0677      2.00000
     11      -1.7405      2.00000
     12      -1.3744      2.00000
     13      -0.1108      2.00000
     14       0.4421      2.00000
     15       0.5469      2.00000
     16       0.7911      2.00000
     17       1.0345      2.00000
     18       1.2976      2.00000
     19       1.3523      2.00000
     20       1.6088      2.00000
     21       3.0584      2.00000
     22       3.2822      2.00000
     23       3.3184      2.00000
     24       3.5738      2.00000
     25       4.2271      2.00000
     26       4.4694      2.00000
     27       5.6713      2.00000
     28       5.8114      2.00000
     29       5.9929      2.00000
     30       6.2522      2.00000
     31       6.7891      2.00000
     32       7.0158      2.00000
     33       7.5400      2.00000
     34       7.9077      1.89554
     35       9.7584      0.00000
     36      10.2637      0.00000
     37      10.4154      0.00000
     38      10.6095      0.00000
     39      10.8505      0.00000
     40      10.9571      0.00000

 k-point    60 :       0.5000    0.0000    0.4667
  band No.  band energies     occupation 
      1      -8.8008      2.00000
      2      -8.7644      2.00000
      3      -8.6356      2.00000
      4      -8.5717      2.00000
      5      -8.4614      2.00000
      6      -8.4568      2.00000
      7      -2.5573      2.00000
      8      -2.3716      2.00000
      9      -2.1982      2.00000
     10      -2.0414      2.00000
     11      -1.7212      2.00000
     12      -1.3418      2.00000
     13      -0.1305      2.00000
     14       0.4087      2.00000
     15       0.6355      2.00000
     16       0.6754      2.00000
     17       1.0151      2.00000
     18       1.3087      2.00000
     19       1.3409      2.00000
     20       1.6447      2.00000
     21       2.9864      2.00000
     22       3.2506      2.00000
     23       3.2644      2.00000
     24       3.5894      2.00000
     25       4.2586      2.00000
     26       4.4809      2.00000
     27       5.6914      2.00000
     28       5.9500      2.00000
     29       5.9629      2.00000
     30       6.3678      2.00000
     31       6.8613      2.00000
     32       6.9733      2.00000
     33       7.6483      1.99965
     34       7.6976      1.99717
     35       9.6135      0.00000
     36      10.0856      0.00000
     37      10.4155      0.00000
     38      10.7413      0.00000
     39      10.8617      0.00000
     40      10.9920      0.00000

 k-point    61 :       0.1667    0.1667    0.4667
  band No.  band energies     occupation 
      1      -8.8678      2.00000
      2      -8.6741      2.00000
      3      -8.6544      2.00000
      4      -8.5662      2.00000
      5      -8.4693      2.00000
      6      -8.4556      2.00000
      7      -2.4994      2.00000
      8      -2.3554      2.00000
      9      -2.2359      2.00000
     10      -2.0842      2.00000
     11      -1.7589      2.00000
     12      -1.3963      2.00000
     13      -0.0942      2.00000
     14       0.4553      2.00000
     15       0.5286      2.00000
     16       0.8306      2.00000
     17       1.0603      2.00000
     18       1.2311      2.00000
     19       1.4118      2.00000
     20       1.5728      2.00000
     21       3.1652      2.00000
     22       3.1816      2.00000
     23       3.4212      2.00000
     24       3.5315      2.00000
     25       4.2213      2.00000
     26       4.4586      2.00000
     27       5.6737      2.00000
     28       5.7219      2.00000
     29       5.9963      2.00000
     30       6.2361      2.00000
     31       6.7577      2.00000
     32       7.0339      2.00000
     33       7.5063      2.00000
     34       7.9740      0.69545
     35       9.8266      0.00000
     36      10.3130      0.00000
     37      10.4240      0.00000
     38      10.6556      0.00000
     39      10.7685      0.00000
     40      10.9308      0.00000

 k-point    62 :       0.3333    0.1667    0.4667
  band No.  band energies     occupation 
      1      -8.8130      2.00000
      2      -8.7329      2.00000
      3      -8.6731      2.00000
      4      -8.5455      2.00000
      5      -8.4762      2.00000
      6      -8.4503      2.00000
      7      -2.5387      2.00000
      8      -2.4239      2.00000
      9      -2.1459      2.00000
     10      -2.0440      2.00000
     11      -1.7368      2.00000
     12      -1.3477      2.00000
     13      -0.1279      2.00000
     14       0.4088      2.00000
     15       0.6099      2.00000
     16       0.7147      2.00000
     17       1.0409      2.00000
     18       1.2140      2.00000
     19       1.4306      2.00000
     20       1.6065      2.00000
     21       3.0395      2.00000
     22       3.1798      2.00000
     23       3.2861      2.00000
     24       3.5626      2.00000
     25       4.3032      2.00000
     26       4.4605      2.00000
     27       5.6880      2.00000
     28       5.7708      2.00000
     29       6.1196      2.00000
     30       6.4978      2.00000
     31       6.8566      2.00000
     32       6.9644      2.00000
     33       7.5283      2.00000
     34       7.6940      1.99751
     35       9.6139      0.00000
     36      10.0875      0.00000
     37      10.5431      0.00000
     38      10.7805      0.00000
     39      10.7984      0.00000
     40      10.9209      0.00000

 k-point    63 :       0.5000    0.1667    0.4667
  band No.  band energies     occupation 
      1      -8.8130      2.00000
      2      -8.7329      2.00000
      3      -8.6731      2.00000
      4      -8.5455      2.00000
      5      -8.4761      2.00000
      6      -8.4503      2.00000
      7      -2.5399      2.00000
      8      -2.4211      2.00000
      9      -2.1531      2.00000
     10      -2.0375      2.00000
     11      -1.7378      2.00000
     12      -1.3477      2.00000
     13      -0.1274      2.00000
     14       0.4087      2.00000
     15       0.6023      2.00000
     16       0.7237      2.00000
     17       1.0418      2.00000
     18       1.2102      2.00000
     19       1.4320      2.00000
     20       1.6063      2.00000
     21       3.0407      2.00000
     22       3.1745      2.00000
     23       3.2900      2.00000
     24       3.5647      2.00000
     25       4.2974      2.00000
     26       4.4611      2.00000
     27       5.6883      2.00000
     28       5.8013      2.00000
     29       6.0816      2.00000
     30       6.5003      2.00000
     31       6.8537      2.00000
     32       6.9814      2.00000
     33       7.5232      2.00000
     34       7.6905      1.99781
     35       9.6221      0.00000
     36      10.1419      0.00000
     37      10.4712      0.00000
     38      10.6813      0.00000
     39      10.8587      0.00000
     40      10.9367      0.00000

 k-point    64 :       0.3333    0.3333    0.4667
  band No.  band energies     occupation 
      1      -8.7760      2.00000
      2      -8.7294      2.00000
      3      -8.7294      2.00000
      4      -8.5054      2.00000
      5      -8.5054      2.00000
      6      -8.4471      2.00000
      7      -2.5059      2.00000
      8      -2.5059      2.00000
      9      -2.0527      2.00000
     10      -2.0527      2.00000
     11      -1.7565      2.00000
     12      -1.3433      2.00000
     13      -0.1264      2.00000
     14       0.3945      2.00000
     15       0.6627      2.00000
     16       0.6627      2.00000
     17       1.1035      2.00000
     18       1.1035      2.00000
     19       1.5328      2.00000
     20       1.5328      2.00000
     21       3.0682      2.00000
     22       3.1792      2.00000
     23       3.1792      2.00000
     24       3.5500      2.00000
     25       4.4020      2.00000
     26       4.4020      2.00000
     27       5.7112      2.00000
     28       5.7112      2.00000
     29       6.2154      2.00000
     30       6.7411      2.00000
     31       6.9118      2.00000
     32       6.9118      2.00000
     33       7.4869      2.00000
     34       7.4869      2.00000
     35       9.5442      0.00000
     36      10.0490      0.00000
     37      10.6600      0.00000
     38      10.6600      0.00000
     39      10.8689      0.00000
     40      10.8689      0.00000


--------------------------------------------------------------------------------------------------------


 soft charge-density along one line, spin component           1
         0         1         2         3         4         5         6         7         8         9
 total charge-density along one line
 
 pseudopotential strength for first ion, spin component:           1
 12.490  14.971   0.001   0.000  -0.000   0.003   0.000  -0.001
 14.971  17.946   0.001   0.000  -0.000   0.004   0.000  -0.002
  0.001   0.001  -5.875  -0.000   0.002  -7.835  -0.000   0.002
  0.000   0.000  -0.000  -5.904   0.000  -0.000  -7.882   0.000
 -0.000  -0.000   0.002   0.000  -5.913   0.002   0.000  -7.896
  0.003   0.004  -7.835  -0.000   0.002  -9.736  -0.000   0.004
  0.000   0.000  -0.000  -7.882   0.000  -0.000  -9.809   0.000
 -0.001  -0.002   0.002   0.000  -7.896   0.004   0.000  -9.830
 total augmentation occupancy for first ion, spin component:           1
  6.990  -3.160  -0.148  -0.000   0.076   0.068   0.000  -0.025
 -3.160   1.589   0.156   0.000  -0.066  -0.060   0.000   0.018
 -0.148   0.156   1.931  -0.000  -0.038  -0.229  -0.000   0.014
  0.000   0.000   0.000   2.226   0.000   0.000  -0.385  -0.000
  0.076  -0.066  -0.038  -0.000   2.272   0.014   0.000  -0.416
  0.068  -0.060  -0.229  -0.000   0.014   0.039  -0.000  -0.004
  0.000  -0.000   0.000  -0.385  -0.000  -0.000   0.075  -0.000
 -0.025   0.018   0.014  -0.000  -0.416  -0.004   0.000   0.087


------------------------ aborting loop because EDIFF is reached ----------------------------------------


    CHARGE:  cpu time    0.1404: real time    0.1405
    FORLOC:  cpu time    0.0033: real time    0.0033
    FORNL :  cpu time    0.8388: real time    0.8390
    STRESS:  cpu time    2.5393: real time    2.5400
    FORCOR:  cpu time    0.0224: real time    0.0224
    FORHAR:  cpu time    0.0073: real time    0.0073
    MIXING:  cpu time    0.0006: real time    0.0006
    OFIELD:  cpu time    0.0000: real time    0.0000

  FORCE on cell =-STRESS in cart. coord.  units (eV):
  Direction    XX          YY          ZZ          XY          YZ          ZX
  --------------------------------------------------------------------------------------
  Alpha Z    68.49185    68.49185    68.49185
  Ewald    -866.51059  -866.51059  -407.87637    -0.00000     0.00000     0.00000
  Hartree   135.07068   135.07068   347.43544     0.00000    -0.00000    -0.00000
  E(xc)    -232.74373  -232.74372  -232.78836    -0.00000    -0.00000    -0.00000
  Local    -120.90390  -120.90362  -771.05575     0.00000    -0.00000    -0.00000
  n-local   209.33861   209.07004   225.05191    -0.17683     0.18447     0.02744
  augment   -39.67481   -39.67506   -40.74957     0.00177    -0.00000    -0.00000
  Kinetic   837.51905   838.95944   797.40604     0.14100    -0.20870    -0.70314
  Fock        0.00000     0.00000     0.00000     0.00000     0.00000     0.00000
  -------------------------------------------------------------------------------------
  Total      -8.82691    -8.82691   -14.08480    -0.00000     0.00000     0.00000
  in kB     -79.45765   -79.45765  -126.78786    -0.00000     0.00000     0.00000
  external pressure =      -95.23 kB  Pullay stress =        0.00 kB


 VOLUME and BASIS-vectors are now :
 -----------------------------------------------------------------------------
  energy-cutoff  :      400.00
  volume of cell :      177.99
      direct lattice vectors                 reciprocal lattice vectors
     4.180079226 -7.240109586  0.000000000     0.119614958 -0.069059728  0.000000000
     4.180079215  7.240109592  0.000000000     0.119614958  0.069059728  0.000000000
     0.000000000  0.000000000  2.940519209     0.000000000  0.000000000  0.340075996

  length of vectors
     8.360158440  8.360158440  2.940519209     0.138119456  0.138119456  0.340075996


 FORCES acting on ions
    electron-ion (+dipol)            ewald-force                    non-local-force                 convergence-correction
 -----------------------------------------------------------------------------------------------
   0.467E+01 -.538E+01 -.527E-07   -.636E+01 0.104E+02 0.113E-14   0.170E+01 -.508E+01 -.516E-18   -.190E-02 0.431E-01 -.568E-12
   0.700E+01 0.136E+01 -.151E-07   -.122E+02 -.322E+00 0.271E-14   0.525E+01 -.107E+01 0.888E-18   -.383E-01 0.199E-01 0.527E-12
   -.232E+01 -.674E+01 -.145E-07   0.581E+01 0.107E+02 -.355E-14   -.355E+01 -.401E+01 0.134E-17   0.364E-01 0.232E-01 0.198E-12
   0.232E+01 0.674E+01 0.145E-07   -.581E+01 -.107E+02 0.107E-14   0.355E+01 0.401E+01 -.221E-18   -.364E-01 -.232E-01 -.198E-12
   -.700E+01 -.136E+01 0.151E-07   0.122E+02 0.322E+00 0.637E-14   -.525E+01 0.107E+01 -.592E-18   0.383E-01 -.199E-01 -.434E-12
   -.467E+01 0.538E+01 0.527E-07   0.636E+01 -.104E+02 -.448E-14   -.170E+01 0.508E+01 -.676E-18   0.190E-02 -.431E-01 -.139E-11
   0.247E-07 0.304E-06 -.408E-07   0.320E-13 0.797E-11 -.242E-15   0.761E-18 0.409E-17 0.630E-17   0.296E-07 -.120E-06 0.496E-14
   -.247E-07 -.304E-06 0.408E-07   -.284E-13 -.794E-11 -.207E-15   0.703E-18 -.166E-17 -.325E-17   -.296E-07 0.120E-06 -.111E-13
   0.321E+02 0.578E+02 -.122E-07   -.321E+02 -.574E+02 -.227E-15   -.476E-01 -.462E+00 -.156E-17   0.728E-02 0.102E-01 -.632E-13
   -.340E+02 0.567E+02 -.323E-07   0.337E+02 -.565E+02 0.227E-14   0.376E+00 -.272E+00 0.390E-17   -.521E-02 0.114E-01 0.588E-13
   0.661E+02 0.110E+01 -.445E-07   -.657E+02 -.924E+00 -.447E-14   -.424E+00 -.190E+00 -.233E-17   0.125E-01 -.120E-02 0.727E-13
   -.661E+02 -.110E+01 0.445E-07   0.657E+02 0.924E+00 -.462E-14   0.424E+00 0.190E+00 -.129E-17   -.125E-01 0.120E-02 -.751E-13
   -.321E+02 -.578E+02 0.122E-07   0.321E+02 0.574E+02 -.352E-16   0.476E-01 0.462E+00 -.243E-17   -.728E-02 -.102E-01 -.432E-13
   0.340E+02 -.567E+02 0.323E-07   -.337E+02 0.565E+02 0.156E-14   -.376E+00 0.272E+00 0.391E-18   0.521E-02 -.114E-01 0.170E-12
 -----------------------------------------------------------------------------------------------
   0.206E-10 0.357E-11 0.686E-11   0.213E-13 -.355E-13 -.272E-14   -.444E-15 -.833E-15 -.304E-19   -.145E-11 -.700E-12 -.175E-11
 
 
 POSITION                                       TOTAL-FORCE (eV/Angst)
 -----------------------------------------------------------------------------------
      4.36141      4.81654      2.20539         0.007670     -0.039032      0.000000
      2.18954     -1.05474      0.73513         0.037638     -0.012873     -0.000000
      6.35195     -1.36882      0.73513        -0.029968     -0.026158      0.000000
      2.00820      1.36882      2.20539         0.029968      0.026158      0.000000
      6.17062      1.05474      2.20539        -0.037638      0.012873      0.000000
      3.99875     -4.81654      0.73513        -0.007670      0.039032     -0.000000
      4.18008      2.41337      2.20539         0.000000      0.000000     -0.000000
      4.18008     -2.41337      0.73513         0.000000      0.000000     -0.000000
      6.73341     -2.35152      2.20539        -0.001505     -0.033031      0.000000
      5.40318      4.65555      0.73513         0.027853     -0.017819     -0.000000
      5.51031      0.23305      0.73513        -0.029358     -0.015212      0.000000
      2.84985     -0.23305      2.20539         0.029358      0.015212      0.000000
      1.62675      2.35152      0.73513         0.001505      0.033031     -0.000000
      2.95698     -4.65555      2.20539        -0.027853      0.017819     -0.000000
 -----------------------------------------------------------------------------------
    total drift:                                0.000000      0.000000      0.000000


--------------------------------------------------------------------------------------------------------



  FREE ENERGIE OF THE ION-ELECTRON SYSTEM (eV)
  ---------------------------------------------------
  free  energy   TOTEN  =       -94.93017212 eV

  energy  without entropy=      -94.93057401  energy(sigma->0) =      -94.93027259
 
 d Force = 0.6696256E-03[ 0.618E-03, 0.721E-03]  d Energy = 0.6470631E-03 0.226E-04
 d Force = 0.1453802E+00[ 0.143E+00, 0.148E+00]  d Ewald  = 0.1453803E+00-0.476E-07


--------------------------------------------------------------------------------------------------------


    POTLOK:  cpu time    0.0229: real time    0.0231


--------------------------------------------------------------------------------------------------------




--------------------------------------------------------------------------------------------------------


  
 reached required accuracy - stopping structural energy minimisation
     LOOP+:  cpu time   10.0227: real time   10.3426
    4ORBIT:  cpu time    0.0000: real time    0.0000

 total amount of memory used by VASP MPI-rank0    45846. kBytes
=======================================================================

   base      :      30000. kBytes
   nonlr-proj:       3114. kBytes
   fftplans  :       1579. kBytes
   grid      :       2458. kBytes
   one-center:         12. kBytes
   wavefun   :       8683. kBytes
 
  
  
 General timing and accounting informations for this job:
 ========================================================
  
                  Total CPU time used (sec):      390.974
                            User time (sec):      390.118
                          System time (sec):        0.856
                         Elapsed time (sec):      397.148
  
                   Maximum memory used (kb):       62856.
                   Average memory used (kb):           0.
  
                          Minor page faults:        73362
                          Major page faults:            0
                 Voluntary context switches:         7920
