<?xml version="1.0" encoding="ISO-8859-1"?>
<modeling>
 <generator>
  <i name="program" type="string">vasp </i>
  <i name="version" type="string">5.4.4.18Apr17-6-g9f103f2a35  </i>
  <i name="subversion" type="string">(build Nov 01 2019 12:17:22) complex            parallel </i>
  <i name="platform" type="string">LinuxIFC </i>
  <i name="date" type="string">2023 05 19 </i>
  <i name="time" type="string">18:18:47 </i>
 </generator>
 <incar>
  <i type="string" name="PREC">accurate</i>
  <i type="string" name="ALGO"> Fast</i>
  <i type="int" name="IBRION">     2</i>
  <i type="int" name="NSW">   100</i>
  <i type="int" name="ISIF">     2</i>
  <i type="string" name="LREAL"> Auto</i>
  <i type="int" name="ISMEAR">     2</i>
  <i name="SIGMA">      0.10000000</i>
  <i type="logical" name="LWAVE"> F  </i>
  <i type="logical" name="LCHARG"> F  </i>
  <v type="int" name="KPOINT_BSE">    -1     0     0     0</v>
 </incar>
 <structure name="primitive_cell" >
  <crystal>
   <varray name="basis" >
    <v>       4.18007923      -7.24010959       0.00000000 </v>
    <v>       4.18007921       7.24010959       0.00000000 </v>
    <v>       0.00000000       0.00000000       2.94051921 </v>
   </varray>
   <i name="volume">    177.98510901 </i>
   <varray name="rec_basis" >
    <v>       0.11961496      -0.06905973       0.00000000 </v>
    <v>       0.11961496       0.06905973       0.00000000 </v>
    <v>       0.00000000       0.00000000       0.34007600 </v>
   </varray>
  </crystal>
  <varray name="positions" >
   <v>       0.19708959      -0.16848230      -0.25000000 </v>
   <v>      -0.03641246      -0.38753655      -0.25000000 </v>
   <v>       0.35112409      -0.03641246       0.25000000 </v>
   <v>       0.33333333      -0.33333333      -0.25000000 </v>
   <v>       0.36557189       0.19708959       0.25000000 </v>
   <v>      -0.16848230      -0.36557189       0.25000000 </v>
   <v>      -0.35112409       0.03641246      -0.25000000 </v>
   <v>       0.03641246       0.38753655       0.25000000 </v>
   <v>       0.16848230       0.36557189      -0.25000000 </v>
   <v>      -0.36557189      -0.19708959      -0.25000000 </v>
   <v>       0.38753655       0.35112409      -0.25000000 </v>
   <v>      -0.33333333       0.33333333       0.25000000 </v>
   <v>      -0.38753655      -0.35112409       0.25000000 </v>
   <v>      -0.19708959       0.16848230       0.25000000 </v>
  </varray>
 </structure>
 <varray name="primitive_index" >
  <v type="int" >        1 </v>
  <v type="int" >        9 </v>
  <v type="int" >       10 </v>
  <v type="int" >        7 </v>
  <v type="int" >        2 </v>
  <v type="int" >        3 </v>
  <v type="int" >       14 </v>
  <v type="int" >       13 </v>
  <v type="int" >        4 </v>
  <v type="int" >        5 </v>
  <v type="int" >       12 </v>
  <v type="int" >        8 </v>
  <v type="int" >       11 </v>
  <v type="int" >        6 </v>
 </varray>
 <kpoints>
  <generation param="Auto">
   <i name="subdivisionlength">     45.00000000 </i>
   <v type="int" name="divisions">       6        6       15 </v>
   <v name="usershift">      0.00000000       0.00000000       0.00000000 </v>
   <v name="genvec1">      0.16666667      -0.00000000       0.00000000 </v>
   <v name="genvec2">      0.00000000       0.16666667       0.00000000 </v>
   <v name="genvec3">      0.00000000       0.00000000       0.06666667 </v>
   <v name="shift">      0.00000000       0.00000000       0.00000000 </v>
  </generation>
  <varray name="kpointlist" >
   <v>       0.00000000       0.00000000       0.00000000 </v>
   <v>       0.16666667       0.00000000       0.00000000 </v>
   <v>       0.33333333       0.00000000       0.00000000 </v>
   <v>       0.50000000       0.00000000       0.00000000 </v>
   <v>       0.16666667       0.16666667       0.00000000 </v>
   <v>       0.33333333       0.16666667       0.00000000 </v>
   <v>       0.50000000       0.16666667       0.00000000 </v>
   <v>       0.33333333       0.33333333       0.00000000 </v>
   <v>       0.00000000       0.00000000       0.06666667 </v>
   <v>       0.16666667       0.00000000       0.06666667 </v>
   <v>       0.33333333       0.00000000       0.06666667 </v>
   <v>       0.50000000       0.00000000       0.06666667 </v>
   <v>       0.16666667       0.16666667       0.06666667 </v>
   <v>       0.33333333       0.16666667       0.06666667 </v>
   <v>       0.50000000       0.16666667       0.06666667 </v>
   <v>       0.33333333       0.33333333       0.06666667 </v>
   <v>       0.00000000       0.00000000       0.13333333 </v>
   <v>       0.16666667       0.00000000       0.13333333 </v>
   <v>       0.33333333       0.00000000       0.13333333 </v>
   <v>       0.50000000       0.00000000       0.13333333 </v>
   <v>       0.16666667       0.16666667       0.13333333 </v>
   <v>       0.33333333       0.16666667       0.13333333 </v>
   <v>       0.50000000       0.16666667       0.13333333 </v>
   <v>       0.33333333       0.33333333       0.13333333 </v>
   <v>       0.00000000       0.00000000       0.20000000 </v>
   <v>       0.16666667       0.00000000       0.20000000 </v>
   <v>       0.33333333       0.00000000       0.20000000 </v>
   <v>       0.50000000       0.00000000       0.20000000 </v>
   <v>       0.16666667       0.16666667       0.20000000 </v>
   <v>       0.33333333       0.16666667       0.20000000 </v>
   <v>       0.50000000       0.16666667       0.20000000 </v>
   <v>       0.33333333       0.33333333       0.20000000 </v>
   <v>       0.00000000       0.00000000       0.26666667 </v>
   <v>       0.16666667       0.00000000       0.26666667 </v>
   <v>       0.33333333       0.00000000       0.26666667 </v>
   <v>       0.50000000       0.00000000       0.26666667 </v>
   <v>       0.16666667       0.16666667       0.26666667 </v>
   <v>       0.33333333       0.16666667       0.26666667 </v>
   <v>       0.50000000       0.16666667       0.26666667 </v>
   <v>       0.33333333       0.33333333       0.26666667 </v>
   <v>       0.00000000       0.00000000       0.33333333 </v>
   <v>       0.16666667       0.00000000       0.33333333 </v>
   <v>       0.33333333       0.00000000       0.33333333 </v>
   <v>       0.50000000       0.00000000       0.33333333 </v>
   <v>       0.16666667       0.16666667       0.33333333 </v>
   <v>       0.33333333       0.16666667       0.33333333 </v>
   <v>       0.50000000       0.16666667       0.33333333 </v>
   <v>       0.33333333       0.33333333       0.33333333 </v>
   <v>       0.00000000       0.00000000       0.40000000 </v>
   <v>       0.16666667       0.00000000       0.40000000 </v>
   <v>       0.33333333       0.00000000       0.40000000 </v>
   <v>       0.50000000       0.00000000       0.40000000 </v>
   <v>       0.16666667       0.16666667       0.40000000 </v>
   <v>       0.33333333       0.16666667       0.40000000 </v>
   <v>       0.50000000       0.16666667       0.40000000 </v>
   <v>       0.33333333       0.33333333       0.40000000 </v>
   <v>       0.00000000       0.00000000       0.46666667 </v>
   <v>       0.16666667       0.00000000       0.46666667 </v>
   <v>       0.33333333       0.00000000       0.46666667 </v>
   <v>       0.50000000       0.00000000       0.46666667 </v>
   <v>       0.16666667       0.16666667       0.46666667 </v>
   <v>       0.33333333       0.16666667       0.46666667 </v>
   <v>       0.50000000       0.16666667       0.46666667 </v>
   <v>       0.33333333       0.33333333       0.46666667 </v>
  </varray>
  <varray name="weights" >
   <v>       0.00185185 </v>
   <v>       0.01111111 </v>
   <v>       0.01111111 </v>
   <v>       0.00555556 </v>
   <v>       0.01111111 </v>
   <v>       0.01111111 </v>
   <v>       0.01111111 </v>
   <v>       0.00370370 </v>
   <v>       0.00370370 </v>
   <v>       0.02222222 </v>
   <v>       0.02222222 </v>
   <v>       0.01111111 </v>
   <v>       0.02222222 </v>
   <v>       0.02222222 </v>
   <v>       0.02222222 </v>
   <v>       0.00740741 </v>
   <v>       0.00370370 </v>
   <v>       0.02222222 </v>
   <v>       0.02222222 </v>
   <v>       0.01111111 </v>
   <v>       0.02222222 </v>
   <v>       0.02222222 </v>
   <v>       0.02222222 </v>
   <v>       0.00740741 </v>
   <v>       0.00370370 </v>
   <v>       0.02222222 </v>
   <v>       0.02222222 </v>
   <v>       0.01111111 </v>
   <v>       0.02222222 </v>
   <v>       0.02222222 </v>
   <v>       0.02222222 </v>
   <v>       0.00740741 </v>
   <v>       0.00370370 </v>
   <v>       0.02222222 </v>
   <v>       0.02222222 </v>
   <v>       0.01111111 </v>
   <v>       0.02222222 </v>
   <v>       0.02222222 </v>
   <v>       0.02222222 </v>
   <v>       0.00740741 </v>
   <v>       0.00370370 </v>
   <v>       0.02222222 </v>
   <v>       0.02222222 </v>
   <v>       0.01111111 </v>
   <v>       0.02222222 </v>
   <v>       0.02222222 </v>
   <v>       0.02222222 </v>
   <v>       0.00740741 </v>
   <v>       0.00370370 </v>
   <v>       0.02222222 </v>
   <v>       0.02222222 </v>
   <v>       0.01111111 </v>
   <v>       0.02222222 </v>
   <v>       0.02222222 </v>
   <v>       0.02222222 </v>
   <v>       0.00740741 </v>
   <v>       0.00370370 </v>
   <v>       0.02222222 </v>
   <v>       0.02222222 </v>
   <v>       0.01111111 </v>
   <v>       0.02222222 </v>
   <v>       0.02222222 </v>
   <v>       0.02222222 </v>
   <v>       0.00740741 </v>
  </varray>
 </kpoints>
 <parameters>
  <separator name="general" >
   <i type="string" name="SYSTEM">unknown system</i>
   <i type="logical" name="LCOMPAT"> F  </i>
  </separator>
  <separator name="electronic" >
   <i type="string" name="PREC">accura</i>
   <i name="ENMAX">    400.00000000</i>
   <i name="ENAUG">    627.11200000</i>
   <i name="EDIFF">      0.00010000</i>
   <i type="int" name="IALGO">    68</i>
   <i type="int" name="IWAVPR">    11</i>
   <i type="int" name="NBANDS">    40</i>
   <i name="NELECT">     62.00000000</i>
   <i type="int" name="TURBO">     0</i>
   <i type="int" name="IRESTART">     0</i>
   <i type="int" name="NREBOOT">     0</i>
   <i type="int" name="NMIN">     0</i>
   <i name="EREF">      0.00000000</i>
   <separator name="electronic smearing" >
    <i type="int" name="ISMEAR">     2</i>
    <i name="SIGMA">      0.10000000</i>
    <i name="KSPACING">      0.50000000</i>
    <i type="logical" name="KGAMMA"> T  </i>
   </separator>
   <separator name="electronic projectors" >
    <i type="logical" name="LREAL"> T  </i>
    <v name="ROPT">     -0.00025000     -0.00025000</v>
    <i type="int" name="LMAXPAW">  -100</i>
    <i type="int" name="LMAXMIX">     2</i>
    <i type="logical" name="NLSPLINE"> F  </i>
   </separator>
   <separator name="electronic startup" >
    <i type="int" name="ISTART">     0</i>
    <i type="int" name="ICHARG">     2</i>
    <i type="int" name="INIWAV">     1</i>
   </separator>
   <separator name="electronic spin" >
    <i type="int" name="ISPIN">     1</i>
    <i type="logical" name="LNONCOLLINEAR"> F  </i>
    <v name="MAGMOM">      1.00000000      1.00000000      1.00000000      1.00000000      1.00000000      1.00000000      1.00000000      1.00000000      1.00000000      1.00000000      1.00000000      1.00000000      1.00000000      1.00000000</v>
    <i name="NUPDOWN">     -1.00000000</i>
    <i type="logical" name="LSORBIT"> F  </i>
    <v name="SAXIS">      0.00000000      0.00000000      1.00000000</v>
    <i type="logical" name="LSPIRAL"> F  </i>
    <v name="QSPIRAL">      0.00000000      0.00000000      0.00000000</v>
    <i type="logical" name="LZEROZ"> F  </i>
   </separator>
   <separator name="electronic exchange-correlation" >
    <i type="logical" name="LASPH"> F  </i>
    <i type="logical" name="LMETAGGA"> F  </i>
   </separator>
   <separator name="electronic convergence" >
    <i type="int" name="NELM">    60</i>
    <i type="int" name="NELMDL">    -5</i>
    <i type="int" name="NELMIN">     2</i>
    <i name="ENINI">    400.00000000</i>
    <separator name="electronic convergence detail" >
     <i type="logical" name="LDIAG"> T  </i>
     <i type="logical" name="LSUBROT"> F  </i>
     <i name="WEIMIN">      0.00100000</i>
     <i name="EBREAK">      0.00000063</i>
     <i name="DEPER">      0.30000000</i>
     <i type="int" name="NRMM">     4</i>
     <i name="TIME">      0.40000000</i>
    </separator>
   </separator>
   <separator name="electronic mixer" >
    <i name="AMIX">      0.40000000</i>
    <i name="BMIX">      1.00000000</i>
    <i name="AMIN">      0.10000000</i>
    <i name="AMIX_MAG">      1.60000000</i>
    <i name="BMIX_MAG">      1.00000000</i>
    <separator name="electronic mixer details" >
     <i type="int" name="IMIX">     4</i>
     <i type="logical" name="MIXFIRST"> F  </i>
     <i type="int" name="MAXMIX">   -45</i>
     <i name="WC">    100.00000000</i>
     <i type="int" name="INIMIX">     1</i>
     <i type="int" name="MIXPRE">     1</i>
     <i type="int" name="MREMOVE">     5</i>
    </separator>
   </separator>
   <separator name="electronic dipolcorrection" >
    <i type="logical" name="LDIPOL"> F  </i>
    <i type="logical" name="LMONO"> F  </i>
    <i type="int" name="IDIPOL">     0</i>
    <i name="EPSILON">      1.00000000</i>
    <v name="DIPOL">   -100.00000000   -100.00000000   -100.00000000</v>
    <i name="EFIELD">      0.00000000</i>
   </separator>
  </separator>
  <separator name="grids" >
   <i type="int" name="NGX">    56</i>
   <i type="int" name="NGY">    56</i>
   <i type="int" name="NGZ">    20</i>
   <i type="int" name="NGXF">   112</i>
   <i type="int" name="NGYF">   112</i>
   <i type="int" name="NGZF">    40</i>
   <i type="logical" name="ADDGRID"> F  </i>
  </separator>
  <separator name="ionic" >
   <i type="int" name="NSW">   100</i>
   <i type="int" name="IBRION">     2</i>
   <i type="int" name="MDALGO">     0</i>
   <i type="int" name="ISIF">     2</i>
   <i name="PSTRESS">      0.00000000</i>
   <i name="EDIFFG">      0.00100000</i>
   <i type="int" name="NFREE">     1</i>
   <i name="POTIM">      0.50000000</i>
   <i name="SMASS">     -3.00000000</i>
   <i name="SCALEE">      1.00000000</i>
  </separator>
  <separator name="ionic md" >
   <i name="TEBEG">      0.00010000</i>
   <i name="TEEND">      0.00010000</i>
   <i type="int" name="NBLOCK">     1</i>
   <i type="int" name="KBLOCK">   100</i>
   <i type="int" name="NPACO">   256</i>
   <i name="APACO">     16.00000000</i>
  </separator>
  <separator name="symmetry" >
   <i type="int" name="ISYM">     2</i>
   <i name="SYMPREC">      0.00001000</i>
  </separator>
  <separator name="dos" >
   <i type="int" name="LORBIT">     0</i>
   <v name="RWIGS">     -1.00000000     -1.00000000</v>
   <i type="int" name="NEDOS">   301</i>
   <i name="EMIN">     10.00000000</i>
   <i name="EMAX">    -10.00000000</i>
   <i name="EFERMI">      0.00000000</i>
  </separator>
  <separator name="writing" >
   <i type="int" name="NWRITE">     2</i>
   <i type="logical" name="LWAVE"> F  </i>
   <i type="logical" name="LDOWNSAMPLE"> F  </i>
   <i type="logical" name="LCHARG"> F  </i>
   <i type="logical" name="LPARD"> F  </i>
   <i type="logical" name="LVTOT"> F  </i>
   <i type="logical" name="LVHAR"> F  </i>
   <i type="logical" name="LELF"> F  </i>
   <i type="logical" name="LOPTICS"> F  </i>
   <v name="STM">      0.00000000      0.00000000      0.00000000      0.00000000      0.00000000      0.00000000      0.00000000</v>
  </separator>
  <separator name="performance" >
   <i type="int" name="NPAR">     4</i>
   <i type="int" name="NSIM">     4</i>
   <i type="int" name="NBLK">    -1</i>
   <i type="logical" name="LPLANE"> T  </i>
   <i type="logical" name="LSCALAPACK"> F  </i>
   <i type="logical" name="LSCAAWARE"> F  </i>
   <i type="logical" name="LSCALU"> F  </i>
   <i type="logical" name="LASYNC"> F  </i>
   <i type="logical" name="LORBITALREAL"> F  </i>
  </separator>
  <separator name="miscellaneous" >
   <i type="int" name="IDIOT">     3</i>
   <i type="int" name="ISPECIAL">     0</i>
   <i type="logical" name="LMUSIC"> F  </i>
   <v name="POMASS">     14.00100000     28.08500000</v>
   <v name="DARWINR">      0.00000000      0.00000000</v>
   <v name="DARWINV">      1.00000000      1.00000000</v>
   <i type="logical" name="LCORR"> T  </i>
  </separator>
  <i type="logical" name="GGA_COMPAT"> T  </i>
  <i type="logical" name="LBERRY"> F  </i>
  <i type="int" name="ICORELEVEL">     0</i>
  <i type="logical" name="LDAU"> F  </i>
  <i type="int" name="I_CONSTRAINED_M">     0</i>
  <separator name="electronic exchange-correlation" >
   <i type="string" name="GGA">--</i>
   <i type="int" name="VOSKOWN">     0</i>
   <i type="logical" name="LHFCALC"> F  </i>
   <i type="string" name="PRECFOCK"></i>
   <i type="logical" name="LSYMGRAD"> F  </i>
   <i type="logical" name="LHFONE"> F  </i>
   <i type="logical" name="LRHFCALC"> F  </i>
   <i type="logical" name="LTHOMAS"> F  </i>
   <i type="logical" name="LMODELHF"> F  </i>
   <i name="ENCUT4O">     -1.00000000</i>
   <i type="int" name="EXXOEP">     0</i>
   <i type="int" name="FOURORBIT">     0</i>
   <i name="AEXX">      0.00000000</i>
   <i name="HFALPHA">      0.00000000</i>
   <i name="MCALPHA">      0.00000000</i>
   <i name="ALDAX">      1.00000000</i>
   <i name="AGGAX">      1.00000000</i>
   <i name="ALDAC">      1.00000000</i>
   <i name="AGGAC">      1.00000000</i>
   <i type="int" name="NKREDX">     1</i>
   <i type="int" name="NKREDY">     1</i>
   <i type="int" name="NKREDZ">     1</i>
   <i type="logical" name="SHIFTRED"> F  </i>
   <i type="logical" name="ODDONLY"> F  </i>
   <i type="logical" name="EVENONLY"> F  </i>
   <i type="int" name="LMAXFOCK">     0</i>
   <i type="int" name="NMAXFOCKAE">     0</i>
   <i type="logical" name="LFOCKAEDFT"> F  </i>
   <i name="HFSCREEN">      0.00000000</i>
   <i name="HFSCREENC">      0.00000000</i>
   <i type="int" name="NBANDSGWLOW">     0</i>
  </separator>
  <separator name="vdW DFT" >
   <i type="logical" name="LUSE_VDW"> F  </i>
   <i name="Zab_VDW">     -0.84910000</i>
   <i name="PARAM1">      0.12340000</i>
   <i name="PARAM2">      1.00000000</i>
   <i name="PARAM3">      0.00000000</i>
  </separator>
  <separator name="model GW" >
   <i type="int" name="MODEL_GW">     0</i>
   <i name="MODEL_EPS0">      7.62793324</i>
   <i name="MODEL_ALPHA">      1.00000000</i>
  </separator>
  <separator name="linear response parameters" >
   <i type="logical" name="LEPSILON"> F  </i>
   <i type="logical" name="LRPA"> F  </i>
   <i type="logical" name="LNABLA"> F  </i>
   <i type="logical" name="LVEL"> F  </i>
   <i type="int" name="KINTER">     0</i>
   <i name="CSHIFT">      0.10000000</i>
   <i name="OMEGAMAX">     -1.00000000</i>
   <i name="DEG_THRESHOLD">      0.00200000</i>
   <i name="RTIME">     -0.10000000</i>
   <i name="WPLASMAI">      0.00000000</i>
   <v name="DFIELD">      0.00000000      0.00000000      0.00000000</v>
   <v name="WPLASMA">      0.00000000      0.00000000      0.00000000      0.00000000      0.00000000      0.00000000      0.00000000      0.00000000      0.00000000</v>
  </separator>
  <separator name="orbital magnetization" >
   <i type="logical" name="NUCIND"> F  </i>
   <v name="MAGPOS">      0.00000000      0.00000000      0.00000000</v>
   <i type="logical" name="LNICSALL"> T  </i>
   <i type="logical" name="ORBITALMAG"> F  </i>
   <i type="logical" name="LMAGBLOCH"> F  </i>
   <i type="logical" name="LCHIMAG"> F  </i>
   <i type="logical" name="LGAUGE"> T  </i>
   <i type="int" name="MAGATOM">     0</i>
   <v name="MAGDIPOL">      0.00000000      0.00000000      0.00000000</v>
   <v name="AVECCONST">      0.00000000      0.00000000      0.00000000</v>
  </separator>
  <separator name="response functions" >
   <i type="logical" name="LADDER"> F  </i>
   <i type="logical" name="LRPAFORCE"> F  </i>
   <i type="logical" name="LFXC"> F  </i>
   <i type="logical" name="LHARTREE"> T  </i>
   <i type="int" name="IBSE">     0</i>
   <v type="int" name="KPOINT">    -1     0     0     0</v>
   <i type="logical" name="LTCTE"> F  </i>
   <i type="logical" name="LTETE"> F  </i>
   <i type="logical" name="LTRIPLET"> F  </i>
   <i type="logical" name="LFXCEPS"> F  </i>
   <i type="logical" name="LFXHEG"> F  </i>
   <i type="int" name="NATURALO">     2</i>
   <i type="logical" name="L2ORDER"> F  </i>
   <i type="logical" name="LMP2LT"> F  </i>
   <i type="logical" name="LUSEW"> F  </i>
   <i name="ENCUTGW">     -2.00000000</i>
   <i name="ENCUTGWSOFT">     -2.00000000</i>
   <i name="ENCUTLF">     -1.00000000</i>
   <i type="int" name="LMAXMP2">    -1</i>
   <i name="SCISSOR">      0.00000000</i>
   <i type="int" name="NOMEGA">     0</i>
   <i type="int" name="NOMEGAR">     0</i>
   <i type="int" name="NBANDSGW">    -1</i>
   <i type="int" name="NBANDSO">    -1</i>
   <i type="int" name="NBANDSV">    -1</i>
   <i type="int" name="NELM">     1</i>
   <i type="int" name="NELMHF">     1</i>
   <i type="int" name="DIM">     3</i>
   <i type="int" name="ANTIRES">     0</i>
   <i name="OMEGAMAX">    -30.00000000</i>
   <i name="OMEGAMIN">    -30.00000000</i>
   <i name="OMEGATL">   -200.00000000</i>
   <i type="int" name="OMEGAGRID">   140</i>
   <i name="CSHIFT">     -0.10000000</i>
   <i type="logical" name="SELFENERGY"> F  </i>
   <i type="logical" name="LSPECTRAL"> F  </i>
   <i type="logical" name="LSPECTRALGW"> F  </i>
   <i type="logical" name="LSINGLES"> F  </i>
   <i type="logical" name="LFERMIGW"> F  </i>
   <i type="logical" name="ODDONLYGW"> F  </i>
   <i type="logical" name="EVENONLYGW"> F  </i>
   <i type="int" name="NKREDLFX">     1</i>
   <i type="int" name="NKREDLFY">     1</i>
   <i type="int" name="NKREDLFZ">     1</i>
   <i type="int" name="MAXMEM">  2800</i>
   <i type="int" name="TELESCOPE">     0</i>
   <i type="int" name="TAUPAR">     1</i>
   <i type="int" name="OMEGAPAR">    -1</i>
   <i name="LAMBDA">      1.00000000</i>
  </separator>
  <separator name="External order field" >
   <i name="OFIELD_KAPPA">      0.00000000</i>
   <v name="OFIELD_K">      0.00000000      0.00000000      0.00000000</v>
   <i name="OFIELD_Q6_NEAR">      0.00000000</i>
   <i name="OFIELD_Q6_FAR">      0.00000000</i>
   <i name="OFIELD_A">      0.00000000</i>
  </separator>
 </parameters>
 <atominfo>
  <atoms>      14 </atoms>
  <types>       2 </types>
  <array name="atoms" >
   <dimension dim="1">ion</dimension>
   <field type="string">element</field>
   <field type="int">atomtype</field>
   <set>
    <rc><c>N </c><c>   1</c></rc>
    <rc><c>N </c><c>   1</c></rc>
    <rc><c>N </c><c>   1</c></rc>
    <rc><c>N </c><c>   1</c></rc>
    <rc><c>N </c><c>   1</c></rc>
    <rc><c>N </c><c>   1</c></rc>
    <rc><c>Si</c><c>   2</c></rc>
    <rc><c>Si</c><c>   2</c></rc>
    <rc><c>Si</c><c>   2</c></rc>
    <rc><c>Si</c><c>   2</c></rc>
    <rc><c>Si</c><c>   2</c></rc>
    <rc><c>Si</c><c>   2</c></rc>
    <rc><c>Si</c><c>   2</c></rc>
    <rc><c>Si</c><c>   2</c></rc>
   </set>
  </array>
  <array name="atomtypes" >
   <dimension dim="1">type</dimension>
   <field type="int">atomspertype</field>
   <field type="string">element</field>
   <field>mass</field>
   <field>valence</field>
   <field type="string">pseudopotential</field>
   <set>
    <rc><c>   6</c><c>N </c><c>     14.00100000</c><c>      5.00000000</c><c>  PAW_PBE N 08Apr2002                   </c></rc>
    <rc><c>   8</c><c>Si</c><c>     28.08500000</c><c>      4.00000000</c><c>  PAW_PBE Si 05Jan2001                  </c></rc>
   </set>
  </array>
 </atominfo>
 <structure name="initialpos" >
  <crystal>
   <varray name="basis" >
    <v>       4.18007923      -7.24010959       0.00000000 </v>
    <v>       4.18007921       7.24010959       0.00000000 </v>
    <v>       0.00000000       0.00000000       2.94051921 </v>
   </varray>
   <i name="volume">    177.98510901 </i>
   <varray name="rec_basis" >
    <v>       0.11961496      -0.06905973       0.00000000 </v>
    <v>       0.11961496       0.06905973       0.00000000 </v>
    <v>       0.00000000       0.00000000       0.34007600 </v>
   </varray>
  </crystal>
  <varray name="positions" >
   <v>       0.19708959       0.83151770       0.75000000 </v>
   <v>       0.36557189       0.19708959       0.25000000 </v>
   <v>       0.83151770       0.63442811       0.25000000 </v>
   <v>       0.16848230       0.36557189       0.75000000 </v>
   <v>       0.63442811       0.80291041       0.75000000 </v>
   <v>       0.80291041       0.16848230       0.25000000 </v>
   <v>       0.33333333       0.66666667       0.75000000 </v>
   <v>       0.66666667       0.33333333       0.25000000 </v>
   <v>       0.96358754       0.61246345       0.75000000 </v>
   <v>       0.35112409       0.96358754       0.25000000 </v>
   <v>       0.61246345       0.64887591       0.25000000 </v>
   <v>       0.38753655       0.35112409       0.75000000 </v>
   <v>       0.03641246       0.38753655       0.25000000 </v>
   <v>       0.64887591       0.03641246       0.75000000 </v>
  </varray>
 </structure>
 <calculation>
  <scstep>
   <time name="dav">    2.23    2.24</time>
   <time name="total">    2.27    2.28</time>
   <energy>
    <i name="alphaZ">     68.49184855 </i>
    <i name="ewald">  -2139.14785466 </i>
    <i name="hartreedc">   -542.95288713 </i>
    <i name="XCdc">     47.83535312 </i>
    <i name="pawpsdc">   1934.58678659 </i>
    <i name="pawaedc">  -1800.98643654 </i>
    <i name="eentropy">     -0.00220647 </i>
    <i name="bandstr">    243.34518376 </i>
    <i name="atom">   2411.37598431 </i>
    <i name="e_fr_energy">    222.54577153 </i>
    <i name="e_wo_entrp">    222.54797800 </i>
    <i name="e_0_energy">    222.54632315 </i>
   </energy>
  </scstep>
  <scstep>
   <time name="dav">    2.72    2.72</time>
   <time name="total">    2.72    2.73</time>
   <energy>
    <i name="e_fr_energy">    -77.88238537 </i>
    <i name="e_wo_entrp">    -77.87963618 </i>
    <i name="e_0_energy">    -77.88169807 </i>
   </energy>
  </scstep>
  <scstep>
   <time name="dav">    3.18    3.21</time>
   <time name="total">    3.18    3.21</time>
   <energy>
    <i name="e_fr_energy">   -102.17239258 </i>
    <i name="e_wo_entrp">   -102.17337342 </i>
    <i name="e_0_energy">   -102.17263779 </i>
   </energy>
  </scstep>
  <scstep>
   <time name="dav">    2.73    2.73</time>
   <time name="total">    2.73    2.73</time>
   <energy>
    <i name="e_fr_energy">   -102.81808931 </i>
    <i name="e_wo_entrp">   -102.81999394 </i>
    <i name="e_0_energy">   -102.81856547 </i>
   </energy>
  </scstep>
  <scstep>
   <time name="dav">    2.90    3.02</time>
   <time name="total">    3.05    3.17</time>
   <energy>
    <i name="e_fr_energy">   -102.83505089 </i>
    <i name="e_wo_entrp">   -102.83695363 </i>
    <i name="e_0_energy">   -102.83552657 </i>
   </energy>
  </scstep>
  <scstep>
   <time name="diag">    0.38    0.38</time>
   <time name="diis">    1.56    1.56</time>
   <time name="orth">    0.03    0.03</time>
   <time name="total">    2.15    2.16</time>
   <energy>
    <i name="e_fr_energy">    -94.88301003 </i>
    <i name="e_wo_entrp">    -94.88411992 </i>
    <i name="e_0_energy">    -94.88328750 </i>
   </energy>
  </scstep>
  <scstep>
   <time name="diag">    0.34    0.34</time>
   <time name="diis">    1.56    1.56</time>
   <time name="orth">    0.04    0.04</time>
   <time name="total">    2.11    2.11</time>
   <energy>
    <i name="e_fr_energy">    -94.32636428 </i>
    <i name="e_wo_entrp">    -94.32675034 </i>
    <i name="e_0_energy">    -94.32646080 </i>
   </energy>
  </scstep>
  <scstep>
   <time name="diag">    0.34    0.34</time>
   <time name="diis">    1.55    1.55</time>
   <time name="orth">    0.03    0.03</time>
   <time name="total">    2.10    2.10</time>
   <energy>
    <i name="e_fr_energy">    -94.26984353 </i>
    <i name="e_wo_entrp">    -94.27004117 </i>
    <i name="e_0_energy">    -94.26989294 </i>
   </energy>
  </scstep>
  <scstep>
   <time name="diag">    0.34    0.34</time>
   <time name="diis">    1.56    1.57</time>
   <time name="orth">    0.04    0.04</time>
   <time name="total">    2.13    2.13</time>
   <energy>
    <i name="e_fr_energy">    -94.23494001 </i>
    <i name="e_wo_entrp">    -94.23541263 </i>
    <i name="e_0_energy">    -94.23505817 </i>
   </energy>
  </scstep>
  <scstep>
   <time name="diag">    0.34    0.34</time>
   <time name="diis">    1.65    1.65</time>
   <time name="orth">    0.04    0.04</time>
   <time name="total">    2.31    2.32</time>
   <energy>
    <i name="e_fr_energy">    -94.23300548 </i>
    <i name="e_wo_entrp">    -94.23355605 </i>
    <i name="e_0_energy">    -94.23314312 </i>
   </energy>
  </scstep>
  <scstep>
   <time name="diag">    0.34    0.34</time>
   <time name="diis">    1.55    1.56</time>
   <time name="orth">    0.03    0.03</time>
   <time name="total">    2.09    2.09</time>
   <energy>
    <i name="e_fr_energy">    -94.23374989 </i>
    <i name="e_wo_entrp">    -94.23435857 </i>
    <i name="e_0_energy">    -94.23390206 </i>
   </energy>
  </scstep>
  <scstep>
   <time name="diag">    0.34    0.34</time>
   <time name="diis">    1.50    1.50</time>
   <time name="orth">    0.03    0.03</time>
   <time name="total">    1.90    1.91</time>
   <energy>
    <i name="alphaZ">     68.49184855 </i>
    <i name="ewald">  -2139.14785466 </i>
    <i name="hartreedc">   -622.06095686 </i>
    <i name="XCdc">     53.77623356 </i>
    <i name="pawpsdc">   5784.59303340 </i>
    <i name="pawaedc">  -5651.92284260 </i>
    <i name="eentropy">      0.00061283 </i>
    <i name="bandstr">      0.66025243 </i>
    <i name="atom">   2411.37598431 </i>
    <i name="e_fr_energy">    -94.23368904 </i>
    <i name="e_wo_entrp">    -94.23430187 </i>
    <i name="e_0_energy">    -94.23384225 </i>
   </energy>
  </scstep>
  <structure>
   <crystal>
    <varray name="basis" >
     <v>       4.18007923      -7.24010959       0.00000000 </v>
     <v>       4.18007921       7.24010959       0.00000000 </v>
     <v>       0.00000000       0.00000000       2.94051921 </v>
    </varray>
    <i name="volume">    177.98510901 </i>
    <varray name="rec_basis" >
     <v>       0.11961496      -0.06905973       0.00000000 </v>
     <v>       0.11961496       0.06905973       0.00000000 </v>
     <v>       0.00000000       0.00000000       0.34007600 </v>
    </varray>
   </crystal>
   <varray name="positions" >
    <v>       0.19708959       0.83151770       0.75000000 </v>
    <v>       0.36557189       0.19708959       0.25000000 </v>
    <v>       0.83151770       0.63442811       0.25000000 </v>
    <v>       0.16848230       0.36557189       0.75000000 </v>
    <v>       0.63442811       0.80291041       0.75000000 </v>
    <v>       0.80291041       0.16848230       0.25000000 </v>
    <v>       0.33333333       0.66666667       0.75000000 </v>
    <v>       0.66666667       0.33333333       0.25000000 </v>
    <v>       0.96358754       0.61246345       0.75000000 </v>
    <v>       0.35112409       0.96358754       0.25000000 </v>
    <v>       0.61246345       0.64887591       0.25000000 </v>
    <v>       0.38753655       0.35112409       0.75000000 </v>
    <v>       0.03641246       0.38753655       0.25000000 </v>
    <v>       0.64887591       0.03641246       0.75000000 </v>
   </varray>
  </structure>
  <varray name="forces" >
   <v>       0.22525641      -0.45291425       0.00000000 </v>
   <v>       0.50486345      -0.03137935      -0.00000000 </v>
   <v>      -0.27960704      -0.42153490      -0.00000000 </v>
   <v>       0.27960704       0.42153490       0.00000000 </v>
   <v>      -0.50486345       0.03137935      -0.00000000 </v>
   <v>      -0.22525641       0.45291425       0.00000000 </v>
   <v>       0.00000000       0.00000000      -0.00000000 </v>
   <v>       0.00000000       0.00000000      -0.00000000 </v>
   <v>       0.30517600       0.88274351      -0.00000000 </v>
   <v>      -0.61189031       0.70566192       0.00000000 </v>
   <v>       0.91706630       0.17708159      -0.00000000 </v>
   <v>      -0.91706630      -0.17708159       0.00000000 </v>
   <v>      -0.30517600      -0.88274351      -0.00000000 </v>
   <v>       0.61189031      -0.70566192      -0.00000000 </v>
  </varray>
  <varray name="stress" >
   <v>    -176.03022065       0.00000030       0.00000000 </v>
   <v>      -0.00000030    -176.03022065       0.00000000 </v>
   <v>      -0.00000000       0.00000000    -186.06282030 </v>
  </varray>
  <energy>
   <i name="e_fr_energy">    -94.23368904 </i>
   <i name="e_wo_entrp">    -94.23384225 </i>
   <i name="e_0_energy">      0.00061283 </i>
  </energy>
  <time name="totalsc">   32.46   32.69</time>
 </calculation>
 <calculation>
  <scstep>
   <time name="dav">    2.34    2.34</time>
   <time name="total">    2.51    2.52</time>
   <energy>
    <i name="alphaZ">     68.49184855 </i>
    <i name="ewald">  -2125.47248518 </i>
    <i name="hartreedc">   -630.29958386 </i>
    <i name="XCdc">     54.03362956 </i>
    <i name="pawpsdc">   5782.57356457 </i>
    <i name="pawaedc">  -5649.90307544 </i>
    <i name="eentropy">     -0.00198501 </i>
    <i name="bandstr">     -5.16682174 </i>
    <i name="atom">   2411.37598431 </i>
    <i name="e_fr_energy">    -94.36892423 </i>
    <i name="e_wo_entrp">    -94.36693922 </i>
    <i name="e_0_energy">    -94.36842798 </i>
   </energy>
  </scstep>
  <scstep>
   <time name="diag">    0.34    0.34</time>
   <time name="diis">    1.58    1.58</time>
   <time name="orth">    0.03    0.03</time>
   <time name="total">    2.15    2.15</time>
   <energy>
    <i name="e_fr_energy">    -94.38804989 </i>
    <i name="e_wo_entrp">    -94.38607602 </i>
    <i name="e_0_energy">    -94.38755642 </i>
   </energy>
  </scstep>
  <scstep>
   <time name="diag">    0.41    0.41</time>
   <time name="diis">    1.61    1.61</time>
   <time name="orth">    0.03    0.03</time>
   <time name="total">    3.08    3.08</time>
   <energy>
    <i name="e_fr_energy">    -94.38276695 </i>
    <i name="e_wo_entrp">    -94.38098086 </i>
    <i name="e_0_energy">    -94.38232043 </i>
   </energy>
  </scstep>
  <scstep>
   <time name="diag">    0.34    0.34</time>
   <time name="diis">    1.61    1.61</time>
   <time name="orth">    0.03    0.03</time>
   <time name="total">    2.16    2.16</time>
   <energy>
    <i name="e_fr_energy">    -94.38247920 </i>
    <i name="e_wo_entrp">    -94.38064690 </i>
    <i name="e_0_energy">    -94.38202112 </i>
   </energy>
  </scstep>
  <scstep>
   <time name="diag">    0.35    0.35</time>
   <time name="diis">    1.44    1.44</time>
   <time name="orth">    0.03    0.03</time>
   <time name="total">    2.12    2.32</time>
   <energy>
    <i name="alphaZ">     68.49184855 </i>
    <i name="ewald">  -2125.47248518 </i>
    <i name="hartreedc">   -634.37240354 </i>
    <i name="XCdc">     54.23950146 </i>
    <i name="pawpsdc">   5959.41873710 </i>
    <i name="pawaedc">  -5826.84082893 </i>
    <i name="eentropy">     -0.00185128 </i>
    <i name="bandstr">     -1.22104075 </i>
    <i name="atom">   2411.37598431 </i>
    <i name="e_fr_energy">    -94.38253825 </i>
    <i name="e_wo_entrp">    -94.38068697 </i>
    <i name="e_0_energy">    -94.38207543 </i>
   </energy>
  </scstep>
  <structure>
   <crystal>
    <varray name="basis" >
     <v>       4.18007923      -7.24010959       0.00000000 </v>
     <v>       4.18007921       7.24010959       0.00000000 </v>
     <v>       0.00000000       0.00000000       2.94051921 </v>
    </varray>
    <i name="volume">    177.98510901 </i>
    <varray name="rec_basis" >
     <v>       0.11961496      -0.06905973       0.00000000 </v>
     <v>       0.11961496       0.06905973       0.00000000 </v>
     <v>       0.00000000       0.00000000       0.34007600 </v>
    </varray>
   </crystal>
   <varray name="positions" >
    <v>       0.19989838       0.83130861       0.75000000 </v>
    <v>       0.36858977       0.19989838       0.25000000 </v>
    <v>       0.83130861       0.63141023       0.25000000 </v>
    <v>       0.16869139       0.36858977       0.75000000 </v>
    <v>       0.63141023       0.80010162       0.75000000 </v>
    <v>       0.80010162       0.16869139       0.25000000 </v>
    <v>       0.33333333       0.66666667       0.75000000 </v>
    <v>       0.66666667       0.33333333       0.25000000 </v>
    <v>       0.96240760       0.61716545       0.75000000 </v>
    <v>       0.34524215       0.96240760       0.25000000 </v>
    <v>       0.61716545       0.65475785       0.25000000 </v>
    <v>       0.38283455       0.34524215       0.75000000 </v>
    <v>       0.03759240       0.38283455       0.25000000 </v>
    <v>       0.65475785       0.03759240       0.75000000 </v>
   </varray>
  </structure>
  <varray name="forces" >
   <v>      -0.12722431       0.30956939      -0.00000000 </v>
   <v>      -0.33170712       0.04460521      -0.00000000 </v>
   <v>       0.20448280       0.26496418      -0.00000000 </v>
   <v>      -0.20448280      -0.26496418       0.00000000 </v>
   <v>       0.33170712      -0.04460521       0.00000000 </v>
   <v>       0.12722431      -0.30956939       0.00000000 </v>
   <v>       0.00000000      -0.00000000      -0.00000000 </v>
   <v>       0.00000000      -0.00000000      -0.00000000 </v>
   <v>       0.12596335       0.04706942       0.00000000 </v>
   <v>       0.02221836       0.13262217      -0.00000000 </v>
   <v>       0.10374499      -0.08555275      -0.00000000 </v>
   <v>      -0.10374499       0.08555275       0.00000000 </v>
   <v>      -0.12596335      -0.04706942      -0.00000000 </v>
   <v>      -0.02221836      -0.13262217       0.00000000 </v>
  </varray>
  <varray name="stress" >
   <v>    -144.96684607       0.00000003       0.00000000 </v>
   <v>      -0.00000003    -144.96684607       0.00000000 </v>
   <v>      -0.00000000       0.00000000    -173.64800543 </v>
  </varray>
  <energy>
   <i name="e_fr_energy">    -94.38253825 </i>
   <i name="e_wo_entrp">    -94.38207543 </i>
   <i name="e_0_energy">     -0.00185128 </i>
  </energy>
  <time name="totalsc">   15.80   16.04</time>
 </calculation>
 <calculation>
  <scstep>
   <time name="dav">    2.56    2.56</time>
   <time name="total">    2.73    2.74</time>
   <energy>
    <i name="alphaZ">     68.49184855 </i>
    <i name="ewald">  -2126.48200693 </i>
    <i name="hartreedc">   -633.93537861 </i>
    <i name="XCdc">     54.22778561 </i>
    <i name="pawpsdc">   5975.72290104 </i>
    <i name="pawaedc">  -5843.14681160 </i>
    <i name="eentropy">     -0.00157998 </i>
    <i name="bandstr">     -0.63623398 </i>
    <i name="atom">   2411.37598431 </i>
    <i name="e_fr_energy">    -94.38349159 </i>
    <i name="e_wo_entrp">    -94.38191160 </i>
    <i name="e_0_energy">    -94.38309659 </i>
   </energy>
  </scstep>
  <scstep>
   <time name="diag">    0.35    0.35</time>
   <time name="diis">    1.61    1.61</time>
   <time name="orth">    0.03    0.03</time>
   <time name="total">    2.17    2.17</time>
   <energy>
    <i name="e_fr_energy">    -94.38356413 </i>
    <i name="e_wo_entrp">    -94.38194627 </i>
    <i name="e_0_energy">    -94.38315966 </i>
   </energy>
  </scstep>
  <scstep>
   <time name="diag">    0.34    0.34</time>
   <time name="diis">    1.07    1.07</time>
   <time name="orth">    0.03    0.03</time>
   <time name="total">    1.48    1.50</time>
   <energy>
    <i name="alphaZ">     68.49184855 </i>
    <i name="ewald">  -2126.48200693 </i>
    <i name="hartreedc">   -633.64831323 </i>
    <i name="XCdc">     54.21197296 </i>
    <i name="pawpsdc">   5971.39195926 </i>
    <i name="pawaedc">  -5838.80889150 </i>
    <i name="eentropy">     -0.00164407 </i>
    <i name="bandstr">     -0.91443894 </i>
    <i name="atom">   2411.37598431 </i>
    <i name="e_fr_energy">    -94.38352959 </i>
    <i name="e_wo_entrp">    -94.38188552 </i>
    <i name="e_0_energy">    -94.38311858 </i>
   </energy>
  </scstep>
  <structure>
   <crystal>
    <varray name="basis" >
     <v>       4.18007923      -7.24010959       0.00000000 </v>
     <v>       4.18007921       7.24010959       0.00000000 </v>
     <v>       0.00000000       0.00000000       2.94051921 </v>
    </varray>
    <i name="volume">    177.98510901 </i>
    <varray name="rec_basis" >
     <v>       0.11961496      -0.06905973       0.00000000 </v>
     <v>       0.11961496       0.06905973       0.00000000 </v>
     <v>       0.00000000       0.00000000       0.34007600 </v>
    </varray>
   </crystal>
   <varray name="positions" >
    <v>       0.19968806       0.83132427       0.75000000 </v>
    <v>       0.36836379       0.19968806       0.25000000 </v>
    <v>       0.83132427       0.63163621       0.25000000 </v>
    <v>       0.16867573       0.36836379       0.75000000 </v>
    <v>       0.63163621       0.80031194       0.75000000 </v>
    <v>       0.80031194       0.16867573       0.25000000 </v>
    <v>       0.33333333       0.66666667       0.75000000 </v>
    <v>       0.66666667       0.33333333       0.25000000 </v>
    <v>       0.96249596       0.61681336       0.75000000 </v>
    <v>       0.34568259       0.96249596       0.25000000 </v>
    <v>       0.61681336       0.65431741       0.25000000 </v>
    <v>       0.38318664       0.34568259       0.75000000 </v>
    <v>       0.03750404       0.38318664       0.25000000 </v>
    <v>       0.65431741       0.03750404       0.75000000 </v>
   </varray>
  </structure>
  <varray name="forces" >
   <v>      -0.10219560       0.25601569      -0.00000000 </v>
   <v>      -0.27281389       0.03950386      -0.00000000 </v>
   <v>       0.17061829       0.21651183      -0.00000000 </v>
   <v>      -0.17061829      -0.21651183      -0.00000000 </v>
   <v>       0.27281389      -0.03950386       0.00000000 </v>
   <v>       0.10219560      -0.25601569       0.00000000 </v>
   <v>      -0.00000000      -0.00000000      -0.00000000 </v>
   <v>      -0.00000000      -0.00000000      -0.00000000 </v>
   <v>       0.13836871       0.10931848      -0.00000000 </v>
   <v>      -0.02548823       0.17449006      -0.00000000 </v>
   <v>       0.16385694      -0.06517158       0.00000000 </v>
   <v>      -0.16385694       0.06517158       0.00000000 </v>
   <v>      -0.13836871      -0.10931848       0.00000000 </v>
   <v>       0.02548823      -0.17449006      -0.00000000 </v>
  </varray>
  <varray name="stress" >
   <v>    -148.59302702      -0.00000006      -0.00000000 </v>
   <v>       0.00000006    -148.59302702       0.00000000 </v>
   <v>      -0.00000000      -0.00000000    -175.50245553 </v>
  </varray>
  <energy>
   <i name="e_fr_energy">    -94.38352959 </i>
   <i name="e_wo_entrp">    -94.38311858 </i>
   <i name="e_0_energy">     -0.00164407 </i>
  </energy>
  <time name="totalsc">   10.12   10.18</time>
 </calculation>
 <calculation>
  <scstep>
   <time name="dav">    2.24    2.24</time>
   <time name="total">    2.50    2.61</time>
   <energy>
    <i name="alphaZ">     68.49184855 </i>
    <i name="ewald">  -2130.38846451 </i>
    <i name="hartreedc">   -629.32991557 </i>
    <i name="XCdc">     54.17852272 </i>
    <i name="pawpsdc">   5968.41966305 </i>
    <i name="pawaedc">  -5835.83570805 </i>
    <i name="eentropy">     -0.00186274 </i>
    <i name="bandstr">     -1.31843677 </i>
    <i name="atom">   2411.37598431 </i>
    <i name="e_fr_energy">    -94.40836900 </i>
    <i name="e_wo_entrp">    -94.40650626 </i>
    <i name="e_0_energy">    -94.40790331 </i>
   </energy>
  </scstep>
  <scstep>
   <time name="diag">    0.34    0.34</time>
   <time name="diis">    1.60    1.60</time>
   <time name="orth">    0.03    0.03</time>
   <time name="total">    2.14    2.15</time>
   <energy>
    <i name="e_fr_energy">    -94.41403453 </i>
    <i name="e_wo_entrp">    -94.41214206 </i>
    <i name="e_0_energy">    -94.41356141 </i>
   </energy>
  </scstep>
  <scstep>
   <time name="diag">    0.34    0.34</time>
   <time name="diis">    1.72    1.72</time>
   <time name="orth">    0.03    0.03</time>
   <time name="total">    2.26    2.27</time>
   <energy>
    <i name="e_fr_energy">    -94.41358936 </i>
    <i name="e_wo_entrp">    -94.41168557 </i>
    <i name="e_0_energy">    -94.41311341 </i>
   </energy>
  </scstep>
  <scstep>
   <time name="diag">    0.34    0.34</time>
   <time name="diis">    1.50    1.50</time>
   <time name="orth">    0.03    0.03</time>
   <time name="total">    1.90    1.90</time>
   <energy>
    <i name="alphaZ">     68.49184855 </i>
    <i name="ewald">  -2130.38846451 </i>
    <i name="hartreedc">   -629.90476607 </i>
    <i name="XCdc">     54.21924511 </i>
    <i name="pawpsdc">   5975.22290317 </i>
    <i name="pawaedc">  -5842.65817396 </i>
    <i name="eentropy">     -0.00190075 </i>
    <i name="bandstr">     -0.77016693 </i>
    <i name="atom">   2411.37598431 </i>
    <i name="e_fr_energy">    -94.41349109 </i>
    <i name="e_wo_entrp">    -94.41159033 </i>
    <i name="e_0_energy">    -94.41301590 </i>
   </energy>
  </scstep>
  <structure>
   <crystal>
    <varray name="basis" >
     <v>       4.18007923      -7.24010959       0.00000000 </v>
     <v>       4.18007921       7.24010959       0.00000000 </v>
     <v>       0.00000000       0.00000000       2.94051921 </v>
    </varray>
    <i name="volume">    177.98510901 </i>
    <varray name="rec_basis" >
     <v>       0.11961496      -0.06905973       0.00000000 </v>
     <v>       0.11961496       0.06905973       0.00000000 </v>
     <v>       0.00000000       0.00000000       0.34007600 </v>
    </varray>
   </crystal>
   <varray name="positions" >
    <v>       0.19853020       0.83156396       0.75000000 </v>
    <v>       0.36696624       0.19853020       0.25000000 </v>
    <v>       0.83156396       0.63303376       0.25000000 </v>
    <v>       0.16843604       0.36696624       0.75000000 </v>
    <v>       0.63303376       0.80146980       0.75000000 </v>
    <v>       0.80146980       0.16843604       0.25000000 </v>
    <v>       0.33333333       0.66666667       0.75000000 </v>
    <v>       0.66666667       0.33333333       0.25000000 </v>
    <v>       0.96281314       0.61839923       0.75000000 </v>
    <v>       0.34441391       0.96281314       0.25000000 </v>
    <v>       0.61839923       0.65558609       0.25000000 </v>
    <v>       0.38160077       0.34441391       0.75000000 </v>
    <v>       0.03718686       0.38160077       0.25000000 </v>
    <v>       0.65558609       0.03718686       0.75000000 </v>
   </varray>
  </structure>
  <varray name="forces" >
   <v>      -0.00192113       0.30289030      -0.00000000 </v>
   <v>      -0.26327126       0.14978140       0.00000000 </v>
   <v>       0.26135013       0.15310890       0.00000000 </v>
   <v>      -0.26135013      -0.15310890      -0.00000000 </v>
   <v>       0.26327126      -0.14978140      -0.00000000 </v>
   <v>       0.00192113      -0.30289030      -0.00000000 </v>
   <v>       0.00000000      -0.00000000      -0.00000000 </v>
   <v>       0.00000000      -0.00000000      -0.00000000 </v>
   <v>       0.07635823       0.14030850       0.00000000 </v>
   <v>      -0.08333161       0.13628242      -0.00000000 </v>
   <v>       0.15968984       0.00402608       0.00000000 </v>
   <v>      -0.15968984      -0.00402608      -0.00000000 </v>
   <v>      -0.07635823      -0.14030850      -0.00000000 </v>
   <v>       0.08333161      -0.13628242      -0.00000000 </v>
  </varray>
  <varray name="stress" >
   <v>    -143.40301111       0.00000043       0.00000000 </v>
   <v>      -0.00000043    -143.40301111      -0.00000000 </v>
   <v>       0.00000000       0.00000000    -173.98178199 </v>
  </varray>
  <energy>
   <i name="e_fr_energy">    -94.41349109 </i>
   <i name="e_wo_entrp">    -94.41301590 </i>
   <i name="e_0_energy">     -0.00190075 </i>
  </energy>
  <time name="totalsc">   12.58   12.72</time>
 </calculation>
 <calculation>
  <scstep>
   <time name="dav">    2.27    2.27</time>
   <time name="total">    2.44    2.47</time>
   <energy>
    <i name="alphaZ">     68.49184855 </i>
    <i name="ewald">  -2139.54960448 </i>
    <i name="hartreedc">   -618.98047377 </i>
    <i name="XCdc">     54.13968159 </i>
    <i name="pawpsdc">   5980.11891795 </i>
    <i name="pawaedc">  -5847.55517612 </i>
    <i name="eentropy">      0.00069290 </i>
    <i name="bandstr">     -2.48027011 </i>
    <i name="atom">   2411.37598431 </i>
    <i name="e_fr_energy">    -94.43839917 </i>
    <i name="e_wo_entrp">    -94.43909207 </i>
    <i name="e_0_energy">    -94.43857240 </i>
   </energy>
  </scstep>
  <scstep>
   <time name="diag">    0.34    0.34</time>
   <time name="diis">    1.60    1.61</time>
   <time name="orth">    0.03    0.03</time>
   <time name="total">    2.15    2.15</time>
   <energy>
    <i name="e_fr_energy">    -94.49836715 </i>
    <i name="e_wo_entrp">    -94.49762452 </i>
    <i name="e_0_energy">    -94.49818149 </i>
   </energy>
  </scstep>
  <scstep>
   <time name="diag">    0.34    0.35</time>
   <time name="diis">    1.68    1.68</time>
   <time name="orth">    0.03    0.03</time>
   <time name="total">    2.22    2.24</time>
   <energy>
    <i name="e_fr_energy">    -94.49288485 </i>
    <i name="e_wo_entrp">    -94.49136269 </i>
    <i name="e_0_energy">    -94.49250431 </i>
   </energy>
  </scstep>
  <scstep>
   <time name="diag">    0.34    0.34</time>
   <time name="diis">    1.66    1.66</time>
   <time name="orth">    0.03    0.03</time>
   <time name="total">    2.20    2.20</time>
   <energy>
    <i name="e_fr_energy">    -94.49191690 </i>
    <i name="e_wo_entrp">    -94.49042977 </i>
    <i name="e_0_energy">    -94.49154512 </i>
   </energy>
  </scstep>
  <scstep>
   <time name="diag">    0.34    0.34</time>
   <time name="diis">    1.55    1.55</time>
   <time name="orth">    0.03    0.03</time>
   <time name="total">    1.95    1.96</time>
   <energy>
    <i name="alphaZ">     68.49184855 </i>
    <i name="ewald">  -2139.54960448 </i>
    <i name="hartreedc">   -621.03758373 </i>
    <i name="XCdc">     54.28115291 </i>
    <i name="pawpsdc">   6055.46565668 </i>
    <i name="pawaedc">  -5922.97469881 </i>
    <i name="eentropy">     -0.00142693 </i>
    <i name="bandstr">     -0.54328083 </i>
    <i name="atom">   2411.37598431 </i>
    <i name="e_fr_energy">    -94.49195233 </i>
    <i name="e_wo_entrp">    -94.49052540 </i>
    <i name="e_0_energy">    -94.49159560 </i>
   </energy>
  </scstep>
  <structure>
   <crystal>
    <varray name="basis" >
     <v>       4.18007923      -7.24010959       0.00000000 </v>
     <v>       4.18007921       7.24010959       0.00000000 </v>
     <v>       0.00000000       0.00000000       2.94051921 </v>
    </varray>
    <i name="volume">    177.98510901 </i>
    <varray name="rec_basis" >
     <v>       0.11961496      -0.06905973       0.00000000 </v>
     <v>       0.11961496       0.06905973       0.00000000 </v>
     <v>       0.00000000       0.00000000       0.34007600 </v>
    </varray>
   </crystal>
   <varray name="positions" >
    <v>       0.19505660       0.83228303       0.75000000 </v>
    <v>       0.36277357       0.19505660       0.25000000 </v>
    <v>       0.83228303       0.63722643       0.25000000 </v>
    <v>       0.16771697       0.36277357       0.75000000 </v>
    <v>       0.63722643       0.80494340       0.75000000 </v>
    <v>       0.80494340       0.16771697       0.25000000 </v>
    <v>       0.33333333       0.66666667       0.75000000 </v>
    <v>       0.66666667       0.33333333       0.25000000 </v>
    <v>       0.96376469       0.62315683       0.75000000 </v>
    <v>       0.34060786       0.96376469       0.25000000 </v>
    <v>       0.62315683       0.65939214       0.25000000 </v>
    <v>       0.37684317       0.34060786       0.75000000 </v>
    <v>       0.03623531       0.37684317       0.25000000 </v>
    <v>       0.65939214       0.03623531       0.75000000 </v>
   </varray>
  </structure>
  <varray name="forces" >
   <v>       0.34543398       0.42191041      -0.00000000 </v>
   <v>      -0.19266814       0.51010981      -0.00000000 </v>
   <v>       0.53810212      -0.08819940       0.00000000 </v>
   <v>      -0.53810212       0.08819940      -0.00000000 </v>
   <v>       0.19266814      -0.51010981       0.00000000 </v>
   <v>      -0.34543398      -0.42191041      -0.00000000 </v>
   <v>      -0.00000000      -0.00000000      -0.00000000 </v>
   <v>      -0.00000000      -0.00000000      -0.00000000 </v>
   <v>      -0.15064544       0.22990454       0.00000000 </v>
   <v>      -0.27442589      -0.01551051      -0.00000000 </v>
   <v>       0.12378045       0.24541505      -0.00000000 </v>
   <v>      -0.12378045      -0.24541505      -0.00000000 </v>
   <v>       0.15064544      -0.22990454      -0.00000000 </v>
   <v>       0.27442589       0.01551051       0.00000000 </v>
  </varray>
  <varray name="stress" >
   <v>    -126.37818633       0.00000028       0.00000000 </v>
   <v>      -0.00000028    -126.37818633       0.00000000 </v>
   <v>      -0.00000000       0.00000000    -168.91024485 </v>
  </varray>
  <energy>
   <i name="e_fr_energy">    -94.49195233 </i>
   <i name="e_wo_entrp">    -94.49159560 </i>
   <i name="e_0_energy">     -0.00142693 </i>
  </energy>
  <time name="totalsc">   14.79   14.87</time>
 </calculation>
 <calculation>
  <scstep>
   <time name="dav">    2.36    2.36</time>
   <time name="total">    2.53    2.53</time>
   <energy>
    <i name="alphaZ">     68.49184855 </i>
    <i name="ewald">  -2146.07013121 </i>
    <i name="hartreedc">   -608.73802228 </i>
    <i name="XCdc">     54.22634856 </i>
    <i name="pawpsdc">   6063.44118349 </i>
    <i name="pawaedc">  -5930.95172956 </i>
    <i name="eentropy">     -0.00078831 </i>
    <i name="bandstr">     -5.98133752 </i>
    <i name="atom">   2411.37598431 </i>
    <i name="e_fr_energy">    -94.20664398 </i>
    <i name="e_wo_entrp">    -94.20585566 </i>
    <i name="e_0_energy">    -94.20644690 </i>
   </energy>
  </scstep>
  <scstep>
   <time name="diag">    0.35    0.35</time>
   <time name="diis">    1.60    1.60</time>
   <time name="orth">    0.03    0.03</time>
   <time name="total">    2.15    2.15</time>
   <energy>
    <i name="e_fr_energy">    -94.54312508 </i>
    <i name="e_wo_entrp">    -94.54217690 </i>
    <i name="e_0_energy">    -94.54288803 </i>
   </energy>
  </scstep>
  <scstep>
   <time name="diag">    0.38    0.38</time>
   <time name="diis">    1.62    1.62</time>
   <time name="orth">    0.03    0.03</time>
   <time name="total">    2.92    3.13</time>
   <energy>
    <i name="e_fr_energy">    -94.50888615 </i>
    <i name="e_wo_entrp">    -94.50812185 </i>
    <i name="e_0_energy">    -94.50869507 </i>
   </energy>
  </scstep>
  <scstep>
   <time name="diag">    0.34    0.34</time>
   <time name="diis">    1.57    1.58</time>
   <time name="orth">    0.03    0.03</time>
   <time name="total">    2.11    2.12</time>
   <energy>
    <i name="e_fr_energy">    -94.49853834 </i>
    <i name="e_wo_entrp">    -94.49803161 </i>
    <i name="e_0_energy">    -94.49841165 </i>
   </energy>
  </scstep>
  <scstep>
   <time name="diag">    0.34    0.34</time>
   <time name="diis">    1.60    1.60</time>
   <time name="orth">    0.03    0.03</time>
   <time name="total">    2.13    2.14</time>
   <energy>
    <i name="e_fr_energy">    -94.49846943 </i>
    <i name="e_wo_entrp">    -94.49775374 </i>
    <i name="e_0_energy">    -94.49829051 </i>
   </energy>
  </scstep>
  <scstep>
   <time name="diag">    0.34    0.34</time>
   <time name="diis">    1.62    1.62</time>
   <time name="orth">    0.03    0.03</time>
   <time name="total">    2.18    2.22</time>
   <energy>
    <i name="e_fr_energy">    -94.49811186 </i>
    <i name="e_wo_entrp">    -94.49745591 </i>
    <i name="e_0_energy">    -94.49794787 </i>
   </energy>
  </scstep>
  <scstep>
   <time name="diag">    0.34    0.34</time>
   <time name="diis">    1.54    1.54</time>
   <time name="orth">    0.03    0.03</time>
   <time name="total">    1.93    1.94</time>
   <energy>
    <i name="alphaZ">     68.49184855 </i>
    <i name="ewald">  -2146.07013121 </i>
    <i name="hartreedc">   -613.55873802 </i>
    <i name="XCdc">     54.54734282 </i>
    <i name="pawpsdc">   6317.76600280 </i>
    <i name="pawaedc">  -6185.42991845 </i>
    <i name="eentropy">     -0.00061827 </i>
    <i name="bandstr">     -1.61994081 </i>
    <i name="atom">   2411.37598431 </i>
    <i name="e_fr_energy">    -94.49816826 </i>
    <i name="e_wo_entrp">    -94.49754999 </i>
    <i name="e_0_energy">    -94.49801369 </i>
   </energy>
  </scstep>
  <structure>
   <crystal>
    <varray name="basis" >
     <v>       4.18007923      -7.24010959       0.00000000 </v>
     <v>       4.18007921       7.24010959       0.00000000 </v>
     <v>       0.00000000       0.00000000       2.94051921 </v>
    </varray>
    <i name="volume">    177.98510901 </i>
    <varray name="rec_basis" >
     <v>       0.11961496      -0.06905973       0.00000000 </v>
     <v>       0.11961496       0.06905973       0.00000000 </v>
     <v>       0.00000000       0.00000000       0.34007600 </v>
    </varray>
   </crystal>
   <varray name="positions" >
    <v>       0.18810941       0.83372116       0.75000000 </v>
    <v>       0.35438825       0.18810941       0.25000000 </v>
    <v>       0.83372116       0.64561175       0.25000000 </v>
    <v>       0.16627884       0.35438825       0.75000000 </v>
    <v>       0.64561175       0.81189059       0.75000000 </v>
    <v>       0.81189059       0.16627884       0.25000000 </v>
    <v>       0.33333333       0.66666667       0.75000000 </v>
    <v>       0.66666667       0.33333333       0.25000000 </v>
    <v>       0.96566779       0.63267203       0.75000000 </v>
    <v>       0.33299576       0.96566779       0.25000000 </v>
    <v>       0.63267203       0.66700424       0.25000000 </v>
    <v>       0.36732797       0.33299576       0.75000000 </v>
    <v>       0.03433221       0.36732797       0.25000000 </v>
    <v>       0.66700424       0.03433221       0.75000000 </v>
   </varray>
  </structure>
  <varray name="forces" >
   <v>       1.16355313       0.45629037      -0.00000000 </v>
   <v>       0.18661752       1.23581175      -0.00000000 </v>
   <v>       0.97693562      -0.77952139      -0.00000000 </v>
   <v>      -0.97693562       0.77952139      -0.00000000 </v>
   <v>      -0.18661752      -1.23581175      -0.00000000 </v>
   <v>      -1.16355313      -0.45629037      -0.00000000 </v>
   <v>       0.00000000       0.00000000       0.00000000 </v>
   <v>       0.00000000      -0.00000000       0.00000000 </v>
   <v>      -0.93960558       0.24735534      -0.00000000 </v>
   <v>      -0.68401880      -0.69004463      -0.00000000 </v>
   <v>      -0.25558678       0.93739997       0.00000000 </v>
   <v>       0.25558678      -0.93739997      -0.00000000 </v>
   <v>       0.93960558      -0.24735534       0.00000000 </v>
   <v>       0.68401880       0.69004463      -0.00000000 </v>
  </varray>
  <varray name="stress" >
   <v>     -95.47840438       0.00000000      -0.00000000 </v>
   <v>      -0.00000000     -95.47840438       0.00000000 </v>
   <v>       0.00000000       0.00000000    -161.22374182 </v>
  </varray>
  <energy>
   <i name="e_fr_energy">    -94.49816826 </i>
   <i name="e_wo_entrp">    -94.49801369 </i>
   <i name="e_0_energy">     -0.00061827 </i>
  </energy>
  <time name="totalsc">   19.72   20.00</time>
 </calculation>
 <calculation>
  <scstep>
   <time name="dav">    2.27    2.27</time>
   <time name="total">    2.44    2.44</time>
   <energy>
    <i name="alphaZ">     68.49184855 </i>
    <i name="ewald">  -2144.33089607 </i>
    <i name="hartreedc">   -618.34707199 </i>
    <i name="XCdc">     54.53687035 </i>
    <i name="pawpsdc">   6317.74892687 </i>
    <i name="pawaedc">  -6185.41205654 </i>
    <i name="eentropy">      0.00217178 </i>
    <i name="bandstr">      1.46798563 </i>
    <i name="atom">   2411.37598431 </i>
    <i name="e_fr_energy">    -94.46623712 </i>
    <i name="e_wo_entrp">    -94.46840889 </i>
    <i name="e_0_energy">    -94.46678006 </i>
   </energy>
  </scstep>
  <scstep>
   <time name="diag">    0.35    0.35</time>
   <time name="diis">    1.62    1.62</time>
   <time name="orth">    0.03    0.03</time>
   <time name="total">    2.17    2.17</time>
   <energy>
    <i name="e_fr_energy">    -94.54138172 </i>
    <i name="e_wo_entrp">    -94.54358573 </i>
    <i name="e_0_energy">    -94.54193272 </i>
   </energy>
  </scstep>
  <scstep>
   <time name="diag">    0.34    0.34</time>
   <time name="diis">    1.68    1.68</time>
   <time name="orth">    0.03    0.03</time>
   <time name="total">    2.22    2.23</time>
   <energy>
    <i name="e_fr_energy">    -94.53638989 </i>
    <i name="e_wo_entrp">    -94.53865182 </i>
    <i name="e_0_energy">    -94.53695537 </i>
   </energy>
  </scstep>
  <scstep>
   <time name="diag">    0.34    0.34</time>
   <time name="diis">    1.68    1.68</time>
   <time name="orth">    0.03    0.03</time>
   <time name="total">    2.22    2.22</time>
   <energy>
    <i name="e_fr_energy">    -94.53405121 </i>
    <i name="e_wo_entrp">    -94.53643888 </i>
    <i name="e_0_energy">    -94.53464813 </i>
   </energy>
  </scstep>
  <scstep>
   <time name="diag">    0.34    0.34</time>
   <time name="diis">    1.32    1.32</time>
   <time name="orth">    0.04    0.04</time>
   <time name="total">    1.90    2.07</time>
   <energy>
    <i name="alphaZ">     68.49184855 </i>
    <i name="ewald">  -2144.33089607 </i>
    <i name="hartreedc">   -616.34359105 </i>
    <i name="XCdc">     54.38529438 </i>
    <i name="pawpsdc">   6186.07762538 </i>
    <i name="pawaedc">  -6053.65886120 </i>
    <i name="eentropy">      0.00239563 </i>
    <i name="bandstr">     -0.53394295 </i>
    <i name="atom">   2411.37598431 </i>
    <i name="e_fr_energy">    -94.53414302 </i>
    <i name="e_wo_entrp">    -94.53653865 </i>
    <i name="e_0_energy">    -94.53474193 </i>
   </energy>
  </scstep>
  <structure>
   <crystal>
    <varray name="basis" >
     <v>       4.18007923      -7.24010959       0.00000000 </v>
     <v>       4.18007921       7.24010959       0.00000000 </v>
     <v>       0.00000000       0.00000000       2.94051921 </v>
    </varray>
    <i name="volume">    177.98510901 </i>
    <varray name="rec_basis" >
     <v>       0.11961496      -0.06905973       0.00000000 </v>
     <v>       0.11961496       0.06905973       0.00000000 </v>
     <v>       0.00000000       0.00000000       0.34007600 </v>
    </varray>
   </crystal>
   <varray name="positions" >
    <v>       0.19204882       0.83290567       0.75000000 </v>
    <v>       0.35914315       0.19204882       0.25000000 </v>
    <v>       0.83290567       0.64085685       0.25000000 </v>
    <v>       0.16709433       0.35914315       0.75000000 </v>
    <v>       0.64085685       0.80795118       0.75000000 </v>
    <v>       0.80795118       0.16709433       0.25000000 </v>
    <v>       0.33333333       0.66666667       0.75000000 </v>
    <v>       0.66666667       0.33333333       0.25000000 </v>
    <v>       0.96458864       0.62727643       0.75000000 </v>
    <v>       0.33731220       0.96458864       0.25000000 </v>
    <v>       0.62727643       0.66268780       0.25000000 </v>
    <v>       0.37272357       0.33731220       0.75000000 </v>
    <v>       0.03541136       0.37272357       0.25000000 </v>
    <v>       0.66268780       0.03541136       0.75000000 </v>
   </varray>
  </structure>
  <varray name="forces" >
   <v>       0.67210850       0.47595176       0.00000000 </v>
   <v>      -0.07613206       0.82003891      -0.00000000 </v>
   <v>       0.74824056      -0.34408716       0.00000000 </v>
   <v>      -0.74824056       0.34408716      -0.00000000 </v>
   <v>       0.07613206      -0.82003891      -0.00000000 </v>
   <v>      -0.67210850      -0.47595176       0.00000000 </v>
   <v>       0.00000000       0.00000000      -0.00000000 </v>
   <v>       0.00000000       0.00000000      -0.00000000 </v>
   <v>      -0.43201900       0.25573349       0.00000000 </v>
   <v>      -0.43748120      -0.24627269      -0.00000000 </v>
   <v>       0.00546220       0.50200617      -0.00000000 </v>
   <v>      -0.00546220      -0.50200617      -0.00000000 </v>
   <v>       0.43201900      -0.25573349       0.00000000 </v>
   <v>       0.43748120       0.24627269      -0.00000000 </v>
  </varray>
  <varray name="stress" >
   <v>    -113.84748327      -0.00000023      -0.00000000 </v>
   <v>       0.00000023    -113.84748327       0.00000000 </v>
   <v>      -0.00000000       0.00000000    -165.35558933 </v>
  </varray>
  <energy>
   <i name="e_fr_energy">    -94.53414302 </i>
   <i name="e_wo_entrp">    -94.53474193 </i>
   <i name="e_0_energy">      0.00239563 </i>
  </energy>
  <time name="totalsc">   14.76   15.00</time>
 </calculation>
 <calculation>
  <scstep>
   <time name="dav">    2.36    2.36</time>
   <time name="total">    2.53    2.54</time>
   <energy>
    <i name="alphaZ">     68.49184855 </i>
    <i name="ewald">  -2145.29223218 </i>
    <i name="hartreedc">   -614.39957102 </i>
    <i name="XCdc">     54.36900860 </i>
    <i name="pawpsdc">   6160.54838151 </i>
    <i name="pawaedc">  -6028.12633029 </i>
    <i name="eentropy">      0.00175053 </i>
    <i name="bandstr">     -1.50044401 </i>
    <i name="atom">   2411.37598431 </i>
    <i name="e_fr_energy">    -94.53160401 </i>
    <i name="e_wo_entrp">    -94.53335453 </i>
    <i name="e_0_energy">    -94.53204164 </i>
   </energy>
  </scstep>
  <scstep>
   <time name="diag">    0.34    0.34</time>
   <time name="diis">    1.58    1.58</time>
   <time name="orth">    0.03    0.03</time>
   <time name="total">    2.12    2.13</time>
   <energy>
    <i name="e_fr_energy">    -94.53729535 </i>
    <i name="e_wo_entrp">    -94.53912059 </i>
    <i name="e_0_energy">    -94.53775166 </i>
   </energy>
  </scstep>
  <scstep>
   <time name="diag">    0.35    0.35</time>
   <time name="diis">    1.63    1.63</time>
   <time name="orth">    0.03    0.03</time>
   <time name="total">    2.19    2.19</time>
   <energy>
    <i name="e_fr_energy">    -94.53677850 </i>
    <i name="e_wo_entrp">    -94.53866140 </i>
    <i name="e_0_energy">    -94.53724922 </i>
   </energy>
  </scstep>
  <scstep>
   <time name="diag">    0.34    0.34</time>
   <time name="diis">    1.49    1.49</time>
   <time name="orth">    0.03    0.03</time>
   <time name="total">    2.03    2.03</time>
   <energy>
    <i name="e_fr_energy">    -94.53663029 </i>
    <i name="e_wo_entrp">    -94.53852960 </i>
    <i name="e_0_energy">    -94.53710512 </i>
   </energy>
  </scstep>
  <scstep>
   <time name="diag">    0.34    0.34</time>
   <time name="diis">    1.06    1.06</time>
   <time name="orth">    0.03    0.03</time>
   <time name="total">    1.46    1.46</time>
   <energy>
    <i name="alphaZ">     68.49184855 </i>
    <i name="ewald">  -2145.29223218 </i>
    <i name="hartreedc">   -614.97321329 </i>
    <i name="XCdc">     54.41024300 </i>
    <i name="pawpsdc">   6193.09714812 </i>
    <i name="pawaedc">  -6060.69620675 </i>
    <i name="eentropy">      0.00188365 </i>
    <i name="bandstr">     -0.95208827 </i>
    <i name="atom">   2411.37598431 </i>
    <i name="e_fr_energy">    -94.53663286 </i>
    <i name="e_wo_entrp">    -94.53851651 </i>
    <i name="e_0_energy">    -94.53710377 </i>
   </energy>
  </scstep>
  <structure>
   <crystal>
    <varray name="basis" >
     <v>       4.18007923      -7.24010959       0.00000000 </v>
     <v>       4.18007921       7.24010959       0.00000000 </v>
     <v>       0.00000000       0.00000000       2.94051921 </v>
    </varray>
    <i name="volume">    177.98510901 </i>
    <varray name="rec_basis" >
     <v>       0.11961496      -0.06905973       0.00000000 </v>
     <v>       0.11961496       0.06905973       0.00000000 </v>
     <v>       0.00000000       0.00000000       0.34007600 </v>
    </varray>
   </crystal>
   <varray name="positions" >
    <v>       0.19100938       0.83312084       0.75000000 </v>
    <v>       0.35788854       0.19100938       0.25000000 </v>
    <v>       0.83312084       0.64211146       0.25000000 </v>
    <v>       0.16687916       0.35788854       0.75000000 </v>
    <v>       0.64211146       0.80899062       0.75000000 </v>
    <v>       0.80899062       0.16687916       0.25000000 </v>
    <v>       0.33333333       0.66666667       0.75000000 </v>
    <v>       0.66666667       0.33333333       0.25000000 </v>
    <v>       0.96487338       0.62870009       0.75000000 </v>
    <v>       0.33617328       0.96487338       0.25000000 </v>
    <v>       0.62870009       0.66382672       0.25000000 </v>
    <v>       0.37129991       0.33617328       0.75000000 </v>
    <v>       0.03512662       0.37129991       0.25000000 </v>
    <v>       0.66382672       0.03512662       0.75000000 </v>
   </varray>
  </structure>
  <varray name="forces" >
   <v>       0.78705684       0.47317639       0.00000000 </v>
   <v>      -0.01625435       0.91819941       0.00000000 </v>
   <v>       0.80331119      -0.44502302      -0.00000000 </v>
   <v>      -0.80331119       0.44502302      -0.00000000 </v>
   <v>       0.01625435      -0.91819941       0.00000000 </v>
   <v>      -0.78705684      -0.47317639       0.00000000 </v>
   <v>       0.00000000      -0.00000000       0.00000000 </v>
   <v>       0.00000000      -0.00000000      -0.00000000 </v>
   <v>      -0.55005567       0.25556631       0.00000000 </v>
   <v>      -0.49635475      -0.34857903       0.00000000 </v>
   <v>      -0.05370092       0.60414534       0.00000000 </v>
   <v>       0.05370092      -0.60414534       0.00000000 </v>
   <v>       0.55005567      -0.25556631      -0.00000000 </v>
   <v>       0.49635475       0.34857903      -0.00000000 </v>
  </varray>
  <varray name="stress" >
   <v>    -108.59332931       0.00000014      -0.00000000 </v>
   <v>      -0.00000014    -108.59332931       0.00000000 </v>
   <v>       0.00000000       0.00000000    -163.30004783 </v>
  </varray>
  <energy>
   <i name="e_fr_energy">    -94.53663286 </i>
   <i name="e_wo_entrp">    -94.53710377 </i>
   <i name="e_0_energy">      0.00188365 </i>
  </energy>
  <time name="totalsc">   14.08   14.10</time>
 </calculation>
 <calculation>
  <scstep>
   <time name="dav">    2.53    2.53</time>
   <time name="total">    2.91    2.93</time>
   <energy>
    <i name="alphaZ">     68.49184855 </i>
    <i name="ewald">  -2145.54087416 </i>
    <i name="hartreedc">   -614.61291899 </i>
    <i name="XCdc">     54.41099793 </i>
    <i name="pawpsdc">   6197.00393030 </i>
    <i name="pawaedc">  -6064.60373273 </i>
    <i name="eentropy">      0.00156345 </i>
    <i name="bandstr">     -1.06852632 </i>
    <i name="atom">   2411.37598431 </i>
    <i name="e_fr_energy">    -94.54172765 </i>
    <i name="e_wo_entrp">    -94.54329111 </i>
    <i name="e_0_energy">    -94.54211852 </i>
   </energy>
  </scstep>
  <scstep>
   <time name="diag">    0.34    0.34</time>
   <time name="diis">    1.66    1.66</time>
   <time name="orth">    0.03    0.03</time>
   <time name="total">    2.20    2.21</time>
   <energy>
    <i name="e_fr_energy">    -94.54198787 </i>
    <i name="e_wo_entrp">    -94.54356413 </i>
    <i name="e_0_energy">    -94.54238194 </i>
   </energy>
  </scstep>
  <scstep>
   <time name="diag">    0.35    0.35</time>
   <time name="diis">    1.06    1.06</time>
   <time name="orth">    0.03    0.03</time>
   <time name="total">    1.47    1.47</time>
   <energy>
    <i name="alphaZ">     68.49184855 </i>
    <i name="ewald">  -2145.54087416 </i>
    <i name="hartreedc">   -614.71139430 </i>
    <i name="XCdc">     54.41770674 </i>
    <i name="pawpsdc">   6198.82597472 </i>
    <i name="pawaedc">  -6066.42885129 </i>
    <i name="eentropy">      0.00158685 </i>
    <i name="bandstr">     -0.97395128 </i>
    <i name="atom">   2411.37598431 </i>
    <i name="e_fr_energy">    -94.54196986 </i>
    <i name="e_wo_entrp">    -94.54355671 </i>
    <i name="e_0_energy">    -94.54236657 </i>
   </energy>
  </scstep>
  <structure>
   <crystal>
    <varray name="basis" >
     <v>       4.18007923      -7.24010959       0.00000000 </v>
     <v>       4.18007921       7.24010959       0.00000000 </v>
     <v>       0.00000000       0.00000000       2.94051921 </v>
    </varray>
    <i name="volume">    177.98510901 </i>
    <varray name="rec_basis" >
     <v>       0.11961496      -0.06905973       0.00000000 </v>
     <v>       0.11961496       0.06905973       0.00000000 </v>
     <v>       0.00000000       0.00000000       0.34007600 </v>
    </varray>
   </crystal>
   <varray name="positions" >
    <v>       0.19083947       0.83326586       0.75000000 </v>
    <v>       0.35757361       0.19083947       0.25000000 </v>
    <v>       0.83326586       0.64242639       0.25000000 </v>
    <v>       0.16673414       0.35757361       0.75000000 </v>
    <v>       0.64242639       0.80916053       0.75000000 </v>
    <v>       0.80916053       0.16673414       0.25000000 </v>
    <v>       0.33333333       0.66666667       0.75000000 </v>
    <v>       0.66666667       0.33333333       0.25000000 </v>
    <v>       0.96486749       0.62896118       0.75000000 </v>
    <v>       0.33590631       0.96486749       0.25000000 </v>
    <v>       0.62896118       0.66409369       0.25000000 </v>
    <v>       0.37103882       0.33590631       0.75000000 </v>
    <v>       0.03513251       0.37103882       0.25000000 </v>
    <v>       0.66409369       0.03513251       0.75000000 </v>
   </varray>
  </structure>
  <varray name="forces" >
   <v>       0.79577899       0.47276238      -0.00000000 </v>
   <v>      -0.01153473       0.92554601      -0.00000000 </v>
   <v>       0.80731372      -0.45278363       0.00000000 </v>
   <v>      -0.80731372       0.45278363      -0.00000000 </v>
   <v>       0.01153473      -0.92554601      -0.00000000 </v>
   <v>      -0.79577899      -0.47276238      -0.00000000 </v>
   <v>       0.00000000      -0.00000000      -0.00000000 </v>
   <v>       0.00000000      -0.00000000      -0.00000000 </v>
   <v>      -0.56046896       0.25059812       0.00000000 </v>
   <v>      -0.49725882      -0.36008130       0.00000000 </v>
   <v>      -0.06321014       0.61067941      -0.00000000 </v>
   <v>       0.06321014      -0.61067941       0.00000000 </v>
   <v>       0.56046896      -0.25059812       0.00000000 </v>
   <v>       0.49725882       0.36008130       0.00000000 </v>
  </varray>
  <varray name="stress" >
   <v>    -107.88433727       0.00000014      -0.00000000 </v>
   <v>      -0.00000014    -107.88433727       0.00000000 </v>
   <v>       0.00000000       0.00000000    -162.88817745 </v>
  </varray>
  <energy>
   <i name="e_fr_energy">    -94.54196986 </i>
   <i name="e_wo_entrp">    -94.54236657 </i>
   <i name="e_0_energy">      0.00158685 </i>
  </energy>
  <time name="totalsc">   10.34   10.39</time>
 </calculation>
 <calculation>
  <scstep>
   <time name="dav">    2.32    2.32</time>
   <time name="total">    2.48    2.49</time>
   <energy>
    <i name="alphaZ">     68.49184855 </i>
    <i name="ewald">  -2146.18918622 </i>
    <i name="hartreedc">   -613.60359923 </i>
    <i name="XCdc">     54.41419558 </i>
    <i name="pawpsdc">   6202.26914547 </i>
    <i name="pawaedc">  -6069.87276117 </i>
    <i name="eentropy">      0.00058399 </i>
    <i name="bandstr">     -1.44111152 </i>
    <i name="atom">   2411.37598431 </i>
    <i name="e_fr_energy">    -94.55490024 </i>
    <i name="e_wo_entrp">    -94.55548422 </i>
    <i name="e_0_energy">    -94.55504623 </i>
   </energy>
  </scstep>
  <scstep>
   <time name="diag">    0.34    0.34</time>
   <time name="diis">    1.61    1.62</time>
   <time name="orth">    0.04    0.04</time>
   <time name="total">    2.16    2.17</time>
   <energy>
    <i name="e_fr_energy">    -94.55721727 </i>
    <i name="e_wo_entrp">    -94.55784169 </i>
    <i name="e_0_energy">    -94.55737337 </i>
   </energy>
  </scstep>
  <scstep>
   <time name="diag">    0.34    0.34</time>
   <time name="diis">    1.60    1.60</time>
   <time name="orth">    0.03    0.03</time>
   <time name="total">    2.14    2.15</time>
   <energy>
    <i name="e_fr_energy">    -94.55703643 </i>
    <i name="e_wo_entrp">    -94.55769931 </i>
    <i name="e_0_energy">    -94.55720215 </i>
   </energy>
  </scstep>
  <scstep>
   <time name="diag">    0.34    0.34</time>
   <time name="diis">    1.18    1.18</time>
   <time name="orth">    0.03    0.03</time>
   <time name="total">    1.75    1.93</time>
   <energy>
    <i name="alphaZ">     68.49184855 </i>
    <i name="ewald">  -2146.18918622 </i>
    <i name="hartreedc">   -613.94362830 </i>
    <i name="XCdc">     54.43917125 </i>
    <i name="pawpsdc">   6219.20183130 </i>
    <i name="pawaedc">  -6086.81767021 </i>
    <i name="eentropy">      0.00068000 </i>
    <i name="bandstr">     -1.11601426 </i>
    <i name="atom">   2411.37598431 </i>
    <i name="e_fr_energy">    -94.55698358 </i>
    <i name="e_wo_entrp">    -94.55766357 </i>
    <i name="e_0_energy">    -94.55715358 </i>
   </energy>
  </scstep>
  <structure>
   <crystal>
    <varray name="basis" >
     <v>       4.18007923      -7.24010959       0.00000000 </v>
     <v>       4.18007921       7.24010959       0.00000000 </v>
     <v>       0.00000000       0.00000000       2.94051921 </v>
    </varray>
    <i name="volume">    177.98510901 </i>
    <varray name="rec_basis" >
     <v>       0.11961496      -0.06905973       0.00000000 </v>
     <v>       0.11961496       0.06905973       0.00000000 </v>
     <v>       0.00000000       0.00000000       0.34007600 </v>
    </varray>
   </crystal>
   <varray name="positions" >
    <v>       0.19032975       0.83370094       0.75000000 </v>
    <v>       0.35662882       0.19032975       0.25000000 </v>
    <v>       0.83370094       0.64337118       0.25000000 </v>
    <v>       0.16629906       0.35662882       0.75000000 </v>
    <v>       0.64337118       0.80967025       0.75000000 </v>
    <v>       0.80967025       0.16629906       0.25000000 </v>
    <v>       0.33333333       0.66666667       0.75000000 </v>
    <v>       0.66666667       0.33333333       0.25000000 </v>
    <v>       0.96484982       0.62974443       0.75000000 </v>
    <v>       0.33510539       0.96484982       0.25000000 </v>
    <v>       0.62974443       0.66489461       0.25000000 </v>
    <v>       0.37025557       0.33510539       0.75000000 </v>
    <v>       0.03515018       0.37025557       0.25000000 </v>
    <v>       0.66489461       0.03515018       0.75000000 </v>
   </varray>
  </structure>
  <varray name="forces" >
   <v>       0.81854593       0.46520381      -0.00000000 </v>
   <v>       0.00639465       0.94148348      -0.00000000 </v>
   <v>       0.81215128      -0.47627967      -0.00000000 </v>
   <v>      -0.81215128       0.47627967      -0.00000000 </v>
   <v>      -0.00639465      -0.94148348      -0.00000000 </v>
   <v>      -0.81854593      -0.46520381       0.00000000 </v>
   <v>       0.00000000       0.00000000      -0.00000000 </v>
   <v>       0.00000000       0.00000000      -0.00000000 </v>
   <v>      -0.59188068       0.23713871       0.00000000 </v>
   <v>      -0.50130848      -0.39401435      -0.00000000 </v>
   <v>      -0.09057220       0.63115306       0.00000000 </v>
   <v>       0.09057220      -0.63115306      -0.00000000 </v>
   <v>       0.59188068      -0.23713871       0.00000000 </v>
   <v>       0.50130848       0.39401435       0.00000000 </v>
  </varray>
  <varray name="stress" >
   <v>    -105.96776376       0.00000028       0.00000000 </v>
   <v>      -0.00000028    -105.96776376       0.00000000 </v>
   <v>      -0.00000000       0.00000000    -161.73230447 </v>
[...]
       <r>   10.0875    0.0000 </r>
       <r>   10.5431    0.0000 </r>
       <r>   10.7805    0.0000 </r>
       <r>   10.7984    0.0000 </r>
       <r>   10.9209    0.0000 </r>
      </set>
      <set comment="kpoint 63">
       <r>   -8.8130    1.0000 </r>
       <r>   -8.7329    1.0000 </r>
       <r>   -8.6731    1.0000 </r>
       <r>   -8.5455    1.0000 </r>
       <r>   -8.4761    1.0000 </r>
       <r>   -8.4503    1.0000 </r>
       <r>   -2.5399    1.0000 </r>
       <r>   -2.4211    1.0000 </r>
       <r>   -2.1531    1.0000 </r>
       <r>   -2.0375    1.0000 </r>
       <r>   -1.7378    1.0000 </r>
       <r>   -1.3477    1.0000 </r>
       <r>   -0.1274    1.0000 </r>
       <r>    0.4087    1.0000 </r>
       <r>    0.6023    1.0000 </r>
       <r>    0.7237    1.0000 </r>
       <r>    1.0418    1.0000 </r>
       <r>    1.2102    1.0000 </r>
       <r>    1.4320    1.0000 </r>
       <r>    1.6063    1.0000 </r>
       <r>    3.0407    1.0000 </r>
       <r>    3.1745    1.0000 </r>
       <r>    3.2900    1.0000 </r>
       <r>    3.5647    1.0000 </r>
       <r>    4.2974    1.0000 </r>
       <r>    4.4611    1.0000 </r>
       <r>    5.6883    1.0000 </r>
       <r>    5.8013    1.0000 </r>
       <r>    6.0816    1.0000 </r>
       <r>    6.5003    1.0000 </r>
       <r>    6.8537    1.0000 </r>
       <r>    6.9814    1.0000 </r>
       <r>    7.5232    1.0000 </r>
       <r>    7.6905    0.9989 </r>
       <r>    9.6221    0.0000 </r>
       <r>   10.1419    0.0000 </r>
       <r>   10.4712    0.0000 </r>
       <r>   10.6813    0.0000 </r>
       <r>   10.8587    0.0000 </r>
       <r>   10.9367    0.0000 </r>
      </set>
      <set comment="kpoint 64">
       <r>   -8.7760    1.0000 </r>
       <r>   -8.7294    1.0000 </r>
       <r>   -8.7294    1.0000 </r>
       <r>   -8.5054    1.0000 </r>
       <r>   -8.5054    1.0000 </r>
       <r>   -8.4471    1.0000 </r>
       <r>   -2.5059    1.0000 </r>
       <r>   -2.5059    1.0000 </r>
       <r>   -2.0527    1.0000 </r>
       <r>   -2.0527    1.0000 </r>
       <r>   -1.7565    1.0000 </r>
       <r>   -1.3433    1.0000 </r>
       <r>   -0.1264    1.0000 </r>
       <r>    0.3945    1.0000 </r>
       <r>    0.6627    1.0000 </r>
       <r>    0.6627    1.0000 </r>
       <r>    1.1035    1.0000 </r>
       <r>    1.1035    1.0000 </r>
       <r>    1.5328    1.0000 </r>
       <r>    1.5328    1.0000 </r>
       <r>    3.0682    1.0000 </r>
       <r>    3.1792    1.0000 </r>
       <r>    3.1792    1.0000 </r>
       <r>    3.5500    1.0000 </r>
       <r>    4.4020    1.0000 </r>
       <r>    4.4020    1.0000 </r>
       <r>    5.7112    1.0000 </r>
       <r>    5.7112    1.0000 </r>
       <r>    6.2154    1.0000 </r>
       <r>    6.7411    1.0000 </r>
       <r>    6.9118    1.0000 </r>
       <r>    6.9118    1.0000 </r>
       <r>    7.4869    1.0000 </r>
       <r>    7.4869    1.0000 </r>
       <r>    9.5442    0.0000 </r>
       <r>   10.0490    0.0000 </r>
       <r>   10.6600    0.0000 </r>
       <r>   10.6600    0.0000 </r>
       <r>   10.8689    0.0000 </r>
       <r>   10.8689    0.0000 </r>
      </set>
     </set>
    </set>
   </array>
  </eigenvalues>
  <separator name="orbital magnetization" >
   <v name="MAGDIPOLOUT">      0.00000000      0.00000000      0.00000000</v>
  </separator>
  <dos>
   <i name="efermi">      7.95937695 </i>
   <total>
    <array>
     <dimension dim="1">gridpoints</dimension>
     <dimension dim="2">spin</dimension>
     <field>energy</field>
     <field>total</field>
     <field>integrated</field>
     <set>
      <set comment="spin 1">
       <r>   -12.0952     0.0000     0.0000 </r>
       <r>   -12.0094     0.0000     0.0000 </r>
       <r>   -11.9237     0.0000     0.0000 </r>
       <r>   -11.8380     0.0000     0.0000 </r>
       <r>   -11.7522     0.0000     0.0000 </r>
       <r>   -11.6665     0.0000     0.0000 </r>
       <r>   -11.5807     0.0000     0.0000 </r>
       <r>   -11.4950     0.0000     0.0000 </r>
       <r>   -11.4092     0.0000     0.0000 </r>
       <r>   -11.3235     0.0000     0.0000 </r>
       <r>   -11.2377     0.0000     0.0000 </r>
       <r>   -11.1520     0.0008     0.0001 </r>
       <r>   -11.0662     0.0031     0.0003 </r>
       <r>   -10.9805    -0.0261    -0.0019 </r>
       <r>   -10.8947     0.1970     0.0150 </r>
       <r>   -10.8090     1.1401     0.1128 </r>
       <r>   -10.7232     2.2220     0.3033 </r>
       <r>   -10.6375     2.1018     0.4835 </r>
       <r>   -10.5517     1.4027     0.6038 </r>
       <r>   -10.4660     1.1971     0.7064 </r>
       <r>   -10.3803     2.8220     0.9484 </r>
       <r>   -10.2945     4.9830     1.3757 </r>
       <r>   -10.2088     5.4033     1.8390 </r>
       <r>   -10.1230     3.1494     2.1091 </r>
       <r>   -10.0373     3.9002     2.4435 </r>
       <r>    -9.9515     3.4419     2.7386 </r>
       <r>    -9.8658     2.8218     2.9806 </r>
       <r>    -9.7800     1.1858     3.0823 </r>
       <r>    -9.6943     2.0444     3.2576 </r>
       <r>    -9.6085     4.3209     3.6281 </r>
       <r>    -9.5228     2.8674     3.8739 </r>
       <r>    -9.4370    -0.1532     3.8608 </r>
       <r>    -9.3513     2.6586     4.0888 </r>
       <r>    -9.2655     7.6878     4.7480 </r>
       <r>    -9.1798     9.1579     5.5332 </r>
       <r>    -9.0940     4.2869     5.9008 </r>
       <r>    -9.0083     4.7282     6.3063 </r>
       <r>    -8.9226     6.1885     6.8369 </r>
       <r>    -8.8368     5.7557     7.3304 </r>
       <r>    -8.7511     4.7020     7.7336 </r>
       <r>    -8.6653     5.9335     8.2424 </r>
       <r>    -8.5796     8.0702     8.9344 </r>
       <r>    -8.4938    11.9959     9.9630 </r>
       <r>    -8.4081    10.9675    10.9035 </r>
       <r>    -8.3223     3.5885    11.2112 </r>
       <r>    -8.2366     5.2697    11.6630 </r>
       <r>    -8.1508     3.8600    11.9940 </r>
       <r>    -8.0651     0.1239    12.0046 </r>
       <r>    -7.9793    -0.0705    11.9986 </r>
       <r>    -7.8936     0.0156    11.9999 </r>
       <r>    -7.8078     0.0010    12.0000 </r>
       <r>    -7.7221     0.0000    12.0000 </r>
       <r>    -7.6363     0.0000    12.0000 </r>
       <r>    -7.5506     0.0000    12.0000 </r>
       <r>    -7.4649     0.0000    12.0000 </r>
       <r>    -7.3791     0.0000    12.0000 </r>
       <r>    -7.2934     0.0000    12.0000 </r>
       <r>    -7.2076     0.0000    12.0000 </r>
       <r>    -7.1219     0.0000    12.0000 </r>
       <r>    -7.0361     0.0000    12.0000 </r>
       <r>    -6.9504     0.0000    12.0000 </r>
       <r>    -6.8646     0.0000    12.0000 </r>
       <r>    -6.7789     0.0000    12.0000 </r>
       <r>    -6.6931     0.0000    12.0000 </r>
       <r>    -6.6074     0.0000    12.0000 </r>
       <r>    -6.5216     0.0000    12.0000 </r>
       <r>    -6.4359     0.0000    12.0000 </r>
       <r>    -6.3501     0.0000    12.0000 </r>
       <r>    -6.2644     0.0000    12.0000 </r>
       <r>    -6.1786     0.0000    12.0000 </r>
       <r>    -6.0929     0.0000    12.0000 </r>
       <r>    -6.0072     0.0000    12.0000 </r>
       <r>    -5.9214     0.0000    12.0000 </r>
       <r>    -5.8357     0.0000    12.0000 </r>
       <r>    -5.7499     0.0000    12.0000 </r>
       <r>    -5.6642     0.0000    12.0000 </r>
       <r>    -5.5784     0.0000    12.0000 </r>
       <r>    -5.4927     0.0000    12.0000 </r>
       <r>    -5.4069     0.0000    12.0000 </r>
       <r>    -5.3212     0.0000    12.0000 </r>
       <r>    -5.2354     0.0000    12.0000 </r>
       <r>    -5.1497     0.0000    12.0000 </r>
       <r>    -5.0639     0.0000    12.0000 </r>
       <r>    -4.9782     0.0000    12.0000 </r>
       <r>    -4.8924     0.0000    12.0000 </r>
       <r>    -4.8067     0.0000    12.0000 </r>
       <r>    -4.7209     0.0000    12.0000 </r>
       <r>    -4.6352     0.0000    12.0000 </r>
       <r>    -4.5495     0.0000    12.0000 </r>
       <r>    -4.4637     0.0000    12.0000 </r>
       <r>    -4.3780     0.0000    12.0000 </r>
       <r>    -4.2922     0.0000    12.0000 </r>
       <r>    -4.2065     0.0000    12.0000 </r>
       <r>    -4.1207     0.0000    12.0000 </r>
       <r>    -4.0350     0.0000    12.0000 </r>
       <r>    -3.9492     0.0000    12.0000 </r>
       <r>    -3.8635     0.0000    12.0000 </r>
       <r>    -3.7777     0.0000    12.0000 </r>
       <r>    -3.6920     0.0000    12.0000 </r>
       <r>    -3.6062     0.0005    12.0000 </r>
       <r>    -3.5205     0.0042    12.0004 </r>
       <r>    -3.4347    -0.0283    11.9980 </r>
       <r>    -3.3490     0.1279    12.0090 </r>
       <r>    -3.2632     1.2328    12.1147 </r>
       <r>    -3.1775     1.2049    12.2180 </r>
       <r>    -3.0918     1.7954    12.3719 </r>
       <r>    -3.0060     1.1138    12.4674 </r>
       <r>    -2.9203     0.7711    12.5336 </r>
       <r>    -2.8345     1.7201    12.6810 </r>
       <r>    -2.7488     1.0461    12.7707 </r>
       <r>    -2.6630     0.8725    12.8456 </r>
       <r>    -2.5773     0.7792    12.9124 </r>
       <r>    -2.4915     3.8495    13.2425 </r>
       <r>    -2.4058     5.5193    13.7157 </r>
       <r>    -2.3200     3.8449    14.0454 </r>
       <r>    -2.2343     7.1584    14.6592 </r>
       <r>    -2.1485     9.5182    15.4754 </r>
       <r>    -2.0628     7.7671    16.1414 </r>
       <r>    -1.9770     9.0554    16.9179 </r>
       <r>    -1.8913     6.3165    17.4595 </r>
       <r>    -1.8055     5.9865    17.9728 </r>
       <r>    -1.7198     7.5808    18.6228 </r>
       <r>    -1.6341     6.1732    19.1522 </r>
       <r>    -1.5483     5.6112    19.6333 </r>
       <r>    -1.4626     3.9280    19.9701 </r>
       <r>    -1.3768     5.3821    20.4316 </r>
       <r>    -1.2911     6.5359    20.9921 </r>
       <r>    -1.2053     3.2586    21.2715 </r>
       <r>    -1.1196     2.7612    21.5082 </r>
       <r>    -1.0338     2.1057    21.6888 </r>
       <r>    -0.9481     3.7661    22.0117 </r>
       <r>    -0.8623     2.8011    22.2519 </r>
       <r>    -0.7766     3.5098    22.5529 </r>
       <r>    -0.6908     2.0610    22.7296 </r>
       <r>    -0.6051     1.2910    22.8403 </r>
       <r>    -0.5193     2.6225    23.0652 </r>
       <r>    -0.4336     3.0275    23.3248 </r>
       <r>    -0.3478     3.1647    23.5961 </r>
       <r>    -0.2621     2.6919    23.8270 </r>
       <r>    -0.1764     1.2294    23.9324 </r>
       <r>    -0.0906     3.1106    24.1991 </r>
       <r>    -0.0049     4.8964    24.6189 </r>
       <r>     0.0809     5.3462    25.0774 </r>
       <r>     0.1666     4.5424    25.4669 </r>
       <r>     0.2524     5.5721    25.9446 </r>
       <r>     0.3381     4.1535    26.3008 </r>
       <r>     0.4239     2.9355    26.5525 </r>
       <r>     0.5096     4.6753    26.9534 </r>
       <r>     0.5954     6.6364    27.5225 </r>
       <r>     0.6811     9.0089    28.2949 </r>
       <r>     0.7669     7.9648    28.9779 </r>
       <r>     0.8526     7.8505    29.6510 </r>
       <r>     0.9384     7.4591    30.2906 </r>
       <r>     1.0241     6.5244    30.8501 </r>
       <r>     1.1099     5.4365    31.3162 </r>
       <r>     1.1956     4.2606    31.6816 </r>
       <r>     1.2814     5.1870    32.1264 </r>
       <r>     1.3671     3.3445    32.4131 </r>
       <r>     1.4528     6.2634    32.9502 </r>
       <r>     1.5386     5.5813    33.4288 </r>
       <r>     1.6243     7.9574    34.1111 </r>
       <r>     1.7101     8.4412    34.8349 </r>
       <r>     1.7958     7.4414    35.4730 </r>
       <r>     1.8816     6.6031    36.0392 </r>
       <r>     1.9673     3.1054    36.3055 </r>
       <r>     2.0531     4.4052    36.6832 </r>
       <r>     2.1388     8.0967    37.3775 </r>
       <r>     2.2246     7.3291    38.0059 </r>
       <r>     2.3103     6.1257    38.5312 </r>
       <r>     2.3961     4.4179    38.9100 </r>
       <r>     2.4818     8.3691    39.6276 </r>
       <r>     2.5676     7.4212    40.2640 </r>
       <r>     2.6533     6.6573    40.8348 </r>
       <r>     2.7391     5.0066    41.2641 </r>
       <r>     2.8248     7.8291    41.9354 </r>
       <r>     2.9105     5.6745    42.4220 </r>
       <r>     2.9963     3.6802    42.7376 </r>
       <r>     3.0820     7.4708    43.3782 </r>
       <r>     3.1678     4.7448    43.7850 </r>
       <r>     3.2535     7.0466    44.3892 </r>
       <r>     3.3393    10.3066    45.2730 </r>
       <r>     3.4250     5.6598    45.7583 </r>
       <r>     3.5108     8.2471    46.4655 </r>
       <r>     3.5965     8.2024    47.1688 </r>
       <r>     3.6823     3.6639    47.4830 </r>
       <r>     3.7680     1.4207    47.6048 </r>
       <r>     3.8538     2.0464    47.7803 </r>
       <r>     3.9395     2.1786    47.9671 </r>
       <r>     4.0253     0.4631    48.0068 </r>
       <r>     4.1110     0.1263    48.0176 </r>
       <r>     4.1968     1.0301    48.1060 </r>
       <r>     4.2825     3.1842    48.3790 </r>
       <r>     4.3682     3.0950    48.6444 </r>
       <r>     4.4540     3.7950    48.9698 </r>
       <r>     4.5397     4.3189    49.3401 </r>
       <r>     4.6255     1.6761    49.4839 </r>
       <r>     4.7112     1.4103    49.6048 </r>
       <r>     4.7970     2.0806    49.7832 </r>
       <r>     4.8827     4.5691    50.1750 </r>
       <r>     4.9685     3.2741    50.4557 </r>
       <r>     5.0542     3.1369    50.7247 </r>
       <r>     5.1400     4.9113    51.1458 </r>
       <r>     5.2257     4.1500    51.5017 </r>
       <r>     5.3115     4.3386    51.8737 </r>
       <r>     5.3972     5.6060    52.3544 </r>
       <r>     5.4830     7.3653    52.9860 </r>
       <r>     5.5687     8.4947    53.7143 </r>
       <r>     5.6545    11.3396    54.6867 </r>
       <r>     5.7402    11.5925    55.6807 </r>
       <r>     5.8259     7.3300    56.3092 </r>
       <r>     5.9117     2.9682    56.5638 </r>
       <r>     5.9974     3.7320    56.8838 </r>
       <r>     6.0832     4.1304    57.2379 </r>
       <r>     6.1689     3.8288    57.5662 </r>
       <r>     6.2547     2.6386    57.7925 </r>
       <r>     6.3404     1.8026    57.9471 </r>
       <r>     6.4262     1.6546    58.0889 </r>
       <r>     6.5119     2.5211    58.3051 </r>
       <r>     6.5977     1.1866    58.4069 </r>
       <r>     6.6834     1.2241    58.5118 </r>
       <r>     6.7692     1.9875    58.6822 </r>
       <r>     6.8549     3.0592    58.9446 </r>
       <r>     6.9407     3.3199    59.2292 </r>
       <r>     7.0264     2.8191    59.4710 </r>
       <r>     7.1122     1.9732    59.6402 </r>
       <r>     7.1979     1.5013    59.7689 </r>
       <r>     7.2836     2.2164    59.9589 </r>
       <r>     7.3694     1.1115    60.0543 </r>
       <r>     7.4551     1.3510    60.1701 </r>
       <r>     7.5409     2.3718    60.3735 </r>
       <r>     7.6266     3.3349    60.6594 </r>
       <r>     7.7124     5.5335    61.1339 </r>
       <r>     7.7981     4.1913    61.4933 </r>
       <r>     7.8839     2.8802    61.7403 </r>
       <r>     7.9696     3.3641    62.0287 </r>
       <r>     8.0554     2.8911    62.2766 </r>
       <r>     8.1411     3.9870    62.6185 </r>
       <r>     8.2269     4.4279    62.9982 </r>
       <r>     8.3126     5.4698    63.4672 </r>
       <r>     8.3984     1.5666    63.6016 </r>
       <r>     8.4841     0.7606    63.6668 </r>
       <r>     8.5699     3.2933    63.9492 </r>
       <r>     8.6556     3.8039    64.2753 </r>
       <r>     8.7413     2.9302    64.5266 </r>
       <r>     8.8271     1.5098    64.6560 </r>
       <r>     8.9128     2.6251    64.8811 </r>
       <r>     8.9986     5.4540    65.3488 </r>
       <r>     9.0843     4.5300    65.7372 </r>
       <r>     9.1701     3.3754    66.0267 </r>
       <r>     9.2558     4.1076    66.3789 </r>
       <r>     9.3416     5.4105    66.8428 </r>
       <r>     9.4273     3.9440    67.1810 </r>
       <r>     9.5131     3.7313    67.5009 </r>
       <r>     9.5988     4.2802    67.8680 </r>
       <r>     9.6846     5.1125    68.3063 </r>
       <r>     9.7703     3.4595    68.6030 </r>
       <r>     9.8561     3.5216    68.9049 </r>
       <r>     9.9418     4.9141    69.3263 </r>
       <r>    10.0276     3.3014    69.6094 </r>
       <r>    10.1133     3.3195    69.8940 </r>
       <r>    10.1990     3.9356    70.2315 </r>
       <r>    10.2848     4.0726    70.5807 </r>
       <r>    10.3705     3.3947    70.8718 </r>
       <r>    10.4563     4.5712    71.2638 </r>
       <r>    10.5420     6.0178    71.7798 </r>
       <r>    10.6278     7.0465    72.3840 </r>
       <r>    10.7135     8.0470    73.0740 </r>
       <r>    10.7993     6.2923    73.6135 </r>
       <r>    10.8850     8.6842    74.3582 </r>
       <r>    10.9708     6.2441    74.8936 </r>
       <r>    11.0565     5.5903    75.3730 </r>
       <r>    11.1423     4.7819    75.7830 </r>
       <r>    11.2280     5.3451    76.2413 </r>
       <r>    11.3138     3.7097    76.5594 </r>
       <r>    11.3995     6.2794    77.0978 </r>
       <r>    11.4853     5.9511    77.6081 </r>
       <r>    11.5710     5.7597    78.1020 </r>
       <r>    11.6567     2.8836    78.3493 </r>
       <r>    11.7425     3.4913    78.6486 </r>
       <r>    11.8282     2.2723    78.8435 </r>
       <r>    11.9140     3.0244    79.1028 </r>
       <r>    11.9997     4.3421    79.4751 </r>
       <r>    12.0855     1.4793    79.6020 </r>
       <r>    12.1712     1.3799    79.7203 </r>
       <r>    12.2570     2.2641    79.9144 </r>
       <r>    12.3427     1.0382    80.0035 </r>
       <r>    12.4285    -0.0782    79.9968 </r>
       <r>    12.5142     0.0327    79.9996 </r>
       <r>    12.6000     0.0059    80.0001 </r>
       <r>    12.6857    -0.0009    80.0000 </r>
       <r>    12.7715     0.0002    80.0000 </r>
       <r>    12.8572     0.0000    80.0000 </r>
       <r>    12.9430     0.0000    80.0000 </r>
       <r>    13.0287     0.0000    80.0000 </r>
       <r>    13.1144     0.0000    80.0000 </r>
       <r>    13.2002     0.0000    80.0000 </r>
       <r>    13.2859     0.0000    80.0000 </r>
       <r>    13.3717     0.0000    80.0000 </r>
       <r>    13.4574     0.0000    80.0000 </r>
       <r>    13.5432     0.0000    80.0000 </r>
       <r>    13.6289     0.0000    80.0000 </r>
      </set>
     </set>
    </array>
   </total>
  </dos>
 </calculation>
 <structure name="finalpos" >
  <crystal>
   <varray name="basis" >
    <v>       4.18007923      -7.24010959       0.00000000 </v>
    <v>       4.18007921       7.24010959       0.00000000 </v>
    <v>       0.00000000       0.00000000       2.94051921 </v>
   </varray>
   <i name="volume">    177.98510901 </i>
   <varray name="rec_basis" >
    <v>       0.11961496      -0.06905973       0.00000000 </v>
    <v>       0.11961496       0.06905973       0.00000000 </v>
    <v>       0.00000000       0.00000000       0.34007600 </v>
   </varray>
  </crystal>
  <varray name="positions" >
   <v>       0.18906111       0.85431937       0.75000000 </v>
   <v>       0.33474173       0.18906111       0.25000000 </v>
   <v>       0.85431937       0.66525827       0.25000000 </v>
   <v>       0.14568063       0.33474173       0.75000000 </v>
   <v>       0.66525827       0.81093889       0.75000000 </v>
   <v>       0.81093889       0.14568063       0.25000000 </v>
   <v>       0.33333333       0.66666667       0.75000000 </v>
   <v>       0.66666667       0.33333333       0.25000000 </v>
   <v>       0.96781179       0.64302161       0.75000000 </v>
   <v>       0.32479018       0.96781179       0.25000000 </v>
   <v>       0.64302161       0.67520982       0.25000000 </v>
   <v>       0.35697839       0.32479018       0.75000000 </v>
   <v>       0.03218821       0.35697839       0.25000000 </v>
   <v>       0.67520982       0.03218821       0.75000000 </v>
  </varray>
 </structure>
</modeling>
