unknown system                          
           1
     4.180079   -7.240110    0.000000
     4.180079    7.240110    0.000000
     0.000000    0.000000    2.940519
   Si   N 
   6   8
Direct configuration=     1
   0.19708959  0.83151770  0.75000000
   0.36557189  0.19708959  0.25000000
   0.83151770  0.63442811  0.25000000
   0.16848230  0.36557189  0.75000000
   0.63442811  0.80291041  0.75000000
   0.80291041  0.16848230  0.25000000
   0.33333333  0.66666667  0.75000000
   0.66666667  0.33333333  0.25000000
   0.96358754  0.61246345  0.75000000
   0.35112409  0.96358754  0.25000000
   0.61246345  0.64887591  0.25000000
   0.38753655  0.35112409  0.75000000
   0.03641246  0.38753655  0.25000000
   0.64887591  0.03641246  0.75000000
Direct configuration=     2
   0.19989838  0.83130861  0.75000000
   0.36858977  0.19989838  0.25000000
   0.83130861  0.63141023  0.25000000
   0.16869139  0.36858977  0.75000000
   0.63141023  0.80010162  0.75000000
   0.80010162  0.16869139  0.25000000
   0.33333333  0.66666667  0.75000000
   0.66666667  0.33333333  0.25000000
   0.96240760  0.61716545  0.75000000
   0.34524215  0.96240760  0.25000000
   0.61716545  0.65475785  0.25000000
   0.38283455  0.34524215  0.75000000
   0.03759240  0.38283455  0.25000000
   0.65475785  0.03759240  0.75000000
Direct configuration=     3
   0.19968806  0.83132427  0.75000000
   0.36836379  0.19968806  0.25000000
   0.83132427  0.63163621  0.25000000
   0.16867573  0.36836379  0.75000000
   0.63163621  0.80031194  0.75000000
   0.80031194  0.16867573  0.25000000
   0.33333333  0.66666667  0.75000000
   0.66666667  0.33333333  0.25000000
   0.96249596  0.61681336  0.75000000
   0.34568259  0.96249596  0.25000000
   0.61681336  0.65431741  0.25000000
   0.38318664  0.34568259  0.75000000
   0.03750404  0.38318664  0.25000000
   0.65431741  0.03750404  0.75000000
Direct configuration=     4
   0.19853020  0.83156396  0.75000000
   0.36696624  0.19853020  0.25000000
   0.83156396  0.63303376  0.25000000
   0.16843604  0.36696624  0.75000000
   0.63303376  0.80146980  0.75000000
   0.80146980  0.16843604  0.25000000
   0.33333333  0.66666667  0.75000000
   0.66666667  0.33333333  0.25000000
   0.96281314  0.61839923  0.75000000
   0.34441391  0.96281314  0.25000000
   0.61839923  0.65558609  0.25000000
   0.38160077  0.34441391  0.75000000
   0.03718686  0.38160077  0.25000000
   0.65558609  0.03718686  0.75000000
Direct configuration=     5
   0.19505660  0.83228303  0.75000000
   0.36277357  0.19505660  0.25000000
   0.83228303  0.63722643  0.25000000
   0.16771697  0.36277357  0.75000000
   0.63722643  0.80494340  0.75000000
   0.80494340  0.16771697  0.25000000
   0.33333333  0.66666667  0.75000000
   0.66666667  0.33333333  0.25000000
   0.96376469  0.62315683  0.75000000
   0.34060786  0.96376469  0.25000000
   0.62315683  0.65939214  0.25000000
   0.37684317  0.34060786  0.75000000
   0.03623531  0.37684317  0.25000000
   0.65939214  0.03623531  0.75000000
Direct configuration=     6
   0.18810941  0.83372116  0.75000000
   0.35438825  0.18810941  0.25000000
   0.83372116  0.64561175  0.25000000
   0.16627884  0.35438825  0.75000000
   0.64561175  0.81189059  0.75000000
   0.81189059  0.16627884  0.25000000
   0.33333333  0.66666667  0.75000000
   0.66666667  0.33333333  0.25000000
   0.96566779  0.63267203  0.75000000
   0.33299576  0.96566779  0.25000000
   0.63267203  0.66700424  0.25000000
   0.36732797  0.33299576  0.75000000
   0.03433221  0.36732797  0.25000000
   0.66700424  0.03433221  0.75000000
Direct configuration=     7
   0.19204882  0.83290567  0.75000000
   0.35914315  0.19204882  0.25000000
   0.83290567  0.64085685  0.25000000
   0.16709433  0.35914315  0.75000000
   0.64085685  0.80795118  0.75000000
   0.80795118  0.16709433  0.25000000
   0.33333333  0.66666667  0.75000000
   0.66666667  0.33333333  0.25000000
   0.96458864  0.62727643  0.75000000
   0.33731220  0.96458864  0.25000000
   0.62727643  0.66268780  0.25000000
   0.37272357  0.33731220  0.75000000
   0.03541136  0.37272357  0.25000000
   0.66268780  0.03541136  0.75000000
Direct configuration=     8
   0.19100938  0.83312084  0.75000000
   0.35788854  0.19100938  0.25000000
   0.83312084  0.64211146  0.25000000
   0.16687916  0.35788854  0.75000000
   0.64211146  0.80899062  0.75000000
   0.80899062  0.16687916  0.25000000
   0.33333333  0.66666667  0.75000000
   0.66666667  0.33333333  0.25000000
   0.96487338  0.62870009  0.75000000
   0.33617328  0.96487338  0.25000000
   0.62870009  0.66382672  0.25000000
   0.37129991  0.33617328  0.75000000
   0.03512662  0.37129991  0.25000000
   0.66382672  0.03512662  0.75000000
Direct configuration=     9
   0.19083947  0.83326586  0.75000000
   0.35757361  0.19083947  0.25000000
   0.83326586  0.64242639  0.25000000
   0.16673414  0.35757361  0.75000000
   0.64242639  0.80916053  0.75000000
   0.80916053  0.16673414  0.25000000
   0.33333333  0.66666667  0.75000000
   0.66666667  0.33333333  0.25000000
   0.96486749  0.62896118  0.75000000
   0.33590631  0.96486749  0.25000000
   0.62896118  0.66409369  0.25000000
   0.37103882  0.33590631  0.75000000
   0.03513251  0.37103882  0.25000000
   0.66409369  0.03513251  0.75000000
Direct configuration=    10
   0.19032975  0.83370094  0.75000000
   0.35662882  0.19032975  0.25000000
   0.83370094  0.64337118  0.25000000
   0.16629906  0.35662882  0.75000000
   0.64337118  0.80967025  0.75000000
   0.80967025  0.16629906  0.25000000
   0.33333333  0.66666667  0.75000000
   0.66666667  0.33333333  0.25000000
   0.96484982  0.62974443  0.75000000
   0.33510539  0.96484982  0.25000000
   0.62974443  0.66489461  0.25000000
   0.37025557  0.33510539  0.75000000
   0.03515018  0.37025557  0.25000000
   0.66489461  0.03515018  0.75000000
Direct configuration=    11
   0.18931031  0.83457108  0.75000000
   0.35473923  0.18931031  0.25000000
   0.83457108  0.64526077  0.25000000
   0.16542892  0.35473923  0.75000000
   0.64526077  0.81068969  0.75000000
   0.81068969  0.16542892  0.25000000
   0.33333333  0.66666667  0.75000000
   0.66666667  0.33333333  0.25000000
   0.96481448  0.63131094  0.75000000
   0.33350354  0.96481448  0.25000000
   0.63131094  0.66649646  0.25000000
   0.36868906  0.33350354  0.75000000
   0.03518552  0.36868906  0.25000000
   0.66649646  0.03518552  0.75000000
Direct configuration=    12
   0.18727143  0.83631138  0.75000000
   0.35096005  0.18727143  0.25000000
   0.83631138  0.64903995  0.25000000
   0.16368862  0.35096005  0.75000000
   0.64903995  0.81272857  0.75000000
   0.81272857  0.16368862  0.25000000
   0.33333333  0.66666667  0.75000000
   0.66666667  0.33333333  0.25000000
   0.96474381  0.63444396  0.75000000
   0.33029985  0.96474381  0.25000000
   0.63444396  0.66970015  0.25000000
   0.36555604  0.33029985  0.75000000
   0.03525619  0.36555604  0.25000000
   0.66970015  0.03525619  0.75000000
Direct configuration=    13
   0.18319367  0.83979196  0.75000000
   0.34340171  0.18319367  0.25000000
   0.83979196  0.65659829  0.25000000
   0.16020804  0.34340171  0.75000000
   0.65659829  0.81680633  0.75000000
   0.81680633  0.16020804  0.25000000
   0.33333333  0.66666667  0.75000000
   0.66666667  0.33333333  0.25000000
   0.96460246  0.64071000  0.75000000
   0.32389246  0.96460246  0.25000000
   0.64071000  0.67610754  0.25000000
   0.35929000  0.32389246  0.75000000
   0.03539754  0.35929000  0.25000000
   0.67610754  0.03539754  0.75000000
Direct configuration=    14
   0.18257967  0.84222562  0.75000000
   0.34035405  0.18257967  0.25000000
   0.84222562  0.65964595  0.25000000
   0.15777438  0.34035405  0.75000000
   0.65964595  0.81742033  0.75000000
   0.81742033  0.15777438  0.25000000
   0.33333333  0.66666667  0.75000000
   0.66666667  0.33333333  0.25000000
   0.96359939  0.64211313  0.75000000
   0.32148626  0.96359939  0.25000000
   0.64211313  0.67851374  0.25000000
   0.35788687  0.32148626  0.75000000
   0.03640061  0.35788687  0.25000000
   0.67851374  0.03640061  0.75000000
Direct configuration=    15
   0.18073768  0.84952658  0.75000000
   0.33121110  0.18073768  0.25000000
   0.84952658  0.66878890  0.25000000
   0.15047342  0.33121110  0.75000000
   0.66878890  0.81926232  0.75000000
   0.81926232  0.15047342  0.25000000
   0.33333333  0.66666667  0.75000000
   0.66666667  0.33333333  0.25000000
   0.96059019  0.64632253  0.75000000
   0.31426766  0.96059019  0.25000000
   0.64632253  0.68573234  0.25000000
   0.35367747  0.31426766  0.75000000
   0.03940981  0.35367747  0.25000000
   0.68573234  0.03940981  0.75000000
Direct configuration=    16
   0.18119290  0.84772226  0.75000000
   0.33347064  0.18119290  0.25000000
   0.84772226  0.66652936  0.25000000
   0.15227774  0.33347064  0.75000000
   0.66652936  0.81880710  0.75000000
   0.81880710  0.15227774  0.25000000
   0.33333333  0.66666667  0.75000000
   0.66666667  0.33333333  0.25000000
   0.96133387  0.64528224  0.75000000
   0.31605163  0.96133387  0.25000000
   0.64528224  0.68394837  0.25000000
   0.35471776  0.31605163  0.75000000
   0.03866613  0.35471776  0.25000000
   0.68394837  0.03866613  0.75000000
Direct configuration=    17
   0.18181417  0.84768474  0.75000000
   0.33412943  0.18181417  0.25000000
   0.84768474  0.66587057  0.25000000
   0.15231526  0.33412943  0.75000000
   0.66587057  0.81818583  0.75000000
   0.81818583  0.15231526  0.25000000
   0.33333333  0.66666667  0.75000000
   0.66666667  0.33333333  0.25000000
   0.96115779  0.64399551  0.75000000
   0.31716228  0.96115779  0.25000000
   0.64399551  0.68283772  0.25000000
   0.35600449  0.31716228  0.75000000
   0.03884221  0.35600449  0.25000000
   0.68283772  0.03884221  0.75000000
Direct configuration=    18
   0.18367800  0.84757217  0.75000000
   0.33610583  0.18367800  0.25000000
   0.84757217  0.66389417  0.25000000
   0.15242783  0.33610583  0.75000000
   0.66389417  0.81632200  0.75000000
   0.81632200  0.15242783  0.25000000
   0.33333333  0.66666667  0.75000000
   0.66666667  0.33333333  0.25000000
   0.96062955  0.64013530  0.75000000
   0.32049426  0.96062955  0.25000000
   0.64013530  0.67950574  0.25000000
   0.35986470  0.32049426  0.75000000
   0.03937045  0.35986470  0.25000000
   0.67950574  0.03937045  0.75000000
Direct configuration=    19
   0.18429645  0.84753482  0.75000000
   0.33676163  0.18429645  0.25000000
   0.84753482  0.66323837  0.25000000
   0.15246518  0.33676163  0.75000000
   0.66323837  0.81570355  0.75000000
   0.81570355  0.15246518  0.25000000
   0.33333333  0.66666667  0.75000000
   0.66666667  0.33333333  0.25000000
   0.96045427  0.63885441  0.75000000
   0.32159986  0.96045427  0.25000000
   0.63885441  0.67840014  0.25000000
   0.36114559  0.32159986  0.75000000
   0.03954573  0.36114559  0.25000000
   0.67840014  0.03954573  0.75000000
Direct configuration=    20
   0.18446360  0.84777576  0.75000000
   0.33668784  0.18446360  0.25000000
   0.84777576  0.66331216  0.25000000
   0.15222424  0.33668784  0.75000000
   0.66331216  0.81553640  0.75000000
   0.81553640  0.15222424  0.25000000
   0.33333333  0.66666667  0.75000000
   0.66666667  0.33333333  0.25000000
   0.96064251  0.63897505  0.75000000
   0.32166746  0.96064251  0.25000000
   0.63897505  0.67833254  0.25000000
   0.36102495  0.32166746  0.75000000
   0.03935749  0.36102495  0.25000000
   0.67833254  0.03935749  0.75000000
Direct configuration=    21
   0.18496505  0.84849856  0.75000000
   0.33646649  0.18496505  0.25000000
   0.84849856  0.66353351  0.25000000
   0.15150144  0.33646649  0.75000000
   0.66353351  0.81503495  0.75000000
   0.81503495  0.15150144  0.25000000
   0.33333333  0.66666667  0.75000000
   0.66666667  0.33333333  0.25000000
   0.96120720  0.63933694  0.75000000
   0.32187026  0.96120720  0.25000000
   0.63933694  0.67812974  0.25000000
   0.36066306  0.32187026  0.75000000
   0.03879280  0.36066306  0.25000000
   0.67812974  0.03879280  0.75000000
Direct configuration=    22
   0.18596795  0.84994418  0.75000000
   0.33602377  0.18596795  0.25000000
   0.84994418  0.66397623  0.25000000
   0.15005582  0.33602377  0.75000000
   0.66397623  0.81403205  0.75000000
   0.81403205  0.15005582  0.25000000
   0.33333333  0.66666667  0.75000000
   0.66666667  0.33333333  0.25000000
   0.96233659  0.64006073  0.75000000
   0.32227585  0.96233659  0.25000000
   0.64006073  0.67772415  0.25000000
   0.35993927  0.32227585  0.75000000
   0.03766341  0.35993927  0.25000000
   0.67772415  0.03766341  0.75000000
Direct configuration=    23
   0.18797374  0.85283540  0.75000000
   0.33513834  0.18797374  0.25000000
   0.85283540  0.66486166  0.25000000
   0.14716460  0.33513834  0.75000000
   0.66486166  0.81202626  0.75000000
   0.81202626  0.14716460  0.25000000
   0.33333333  0.66666667  0.75000000
   0.66666667  0.33333333  0.25000000
   0.96459536  0.64150831  0.75000000
   0.32308705  0.96459536  0.25000000
   0.64150831  0.67691295  0.25000000
   0.35849169  0.32308705  0.75000000
   0.03540464  0.35849169  0.25000000
   0.67691295  0.03540464  0.75000000
Direct configuration=    24
   0.18806283  0.85299909  0.75000000
   0.33506373  0.18806283  0.25000000
   0.85299909  0.66493627  0.25000000
   0.14700091  0.33506373  0.75000000
   0.66493627  0.81193717  0.75000000
   0.81193717  0.14700091  0.25000000
   0.33333333  0.66666667  0.75000000
   0.66666667  0.33333333  0.25000000
   0.96490697  0.64166527  0.75000000
   0.32324170  0.96490697  0.25000000
   0.64166527  0.67675830  0.25000000
   0.35833473  0.32324170  0.75000000
   0.03509303  0.35833473  0.25000000
   0.67675830  0.03509303  0.75000000
Direct configuration=    25
   0.18833007  0.85349017  0.75000000
   0.33483990  0.18833007  0.25000000
   0.85349017  0.66516010  0.25000000
   0.14650983  0.33483990  0.75000000
   0.66516010  0.81166993  0.75000000
   0.81166993  0.14650983  0.25000000
   0.33333333  0.66666667  0.75000000
   0.66666667  0.33333333  0.25000000
   0.96584181  0.64213615  0.75000000
   0.32370565  0.96584181  0.25000000
   0.64213615  0.67629435  0.25000000
   0.35786385  0.32370565  0.75000000
   0.03415819  0.35786385  0.25000000
   0.67629435  0.03415819  0.75000000
Direct configuration=    26
   0.18886456  0.85447233  0.75000000
   0.33439223  0.18886456  0.25000000
   0.85447233  0.66560777  0.25000000
   0.14552767  0.33439223  0.75000000
   0.66560777  0.81113544  0.75000000
   0.81113544  0.14552767  0.25000000
   0.33333333  0.66666667  0.75000000
   0.66666667  0.33333333  0.25000000
   0.96771148  0.64307792  0.75000000
   0.32463356  0.96771148  0.25000000
   0.64307792  0.67536644  0.25000000
   0.35692208  0.32463356  0.75000000
   0.03228852  0.35692208  0.25000000
   0.67536644  0.03228852  0.75000000
Direct configuration=    27
   0.18891370  0.85443409  0.75000000
   0.33447961  0.18891370  0.25000000
   0.85443409  0.66552039  0.25000000
   0.14556591  0.33447961  0.75000000
   0.66552039  0.81108630  0.75000000
   0.81108630  0.14556591  0.25000000
   0.33333333  0.66666667  0.75000000
   0.66666667  0.33333333  0.25000000
   0.96773656  0.64306384  0.75000000
   0.32467272  0.96773656  0.25000000
   0.64306384  0.67532728  0.25000000
   0.35693616  0.32467272  0.75000000
   0.03226344  0.35693616  0.25000000
   0.67532728  0.03226344  0.75000000
Direct configuration=    28
   0.18906111  0.85431937  0.75000000
   0.33474173  0.18906111  0.25000000
   0.85431937  0.66525827  0.25000000
   0.14568063  0.33474173  0.75000000
   0.66525827  0.81093889  0.75000000
   0.81093889  0.14568063  0.25000000
   0.33333333  0.66666667  0.75000000
   0.66666667  0.33333333  0.25000000
   0.96781179  0.64302161  0.75000000
   0.32479018  0.96781179  0.25000000
   0.64302161  0.67520982  0.25000000
   0.35697839  0.32479018  0.75000000
   0.03218821  0.35697839  0.25000000
   0.67520982  0.03218821  0.75000000
