  14  14   0   0
  0.1235344E+02  0.8280538E-09  0.8280538E-09  0.2912514E-09  0.5000000E-15
  1.000000000000000E-004
  CAR 
 unknown system                          
     14.17244758    -11.91946483  301      8.29946782      1.00000000
    -11.919  0.0000E+00  0.0000E+00
    -11.832  0.0000E+00  0.0000E+00
    -11.746  0.0000E+00  0.0000E+00
    -11.659  0.0000E+00  0.0000E+00
    -11.572  0.1066E-31  0.9270E-33
    -11.485  0.7736E-26  0.6728E-27
    -11.398  0.1196E-20  0.1040E-21
    -11.311  0.3925E-16  0.3414E-17
    -11.224  0.2718E-12  0.2364E-13
    -11.137  0.3934E-09  0.3423E-10
    -11.050  0.1154E-06  0.1007E-07
    -10.963  0.6094E-05  0.5401E-06
    -10.876  0.2558E-04  0.2765E-05
    -10.789 -0.2226E-03 -0.1659E-04
    -10.702  0.1778E-02  0.1381E-03
    -10.615  0.9243E-02  0.9420E-03
    -10.528  0.1690E-01  0.2412E-02
    -10.441  0.2318E-01  0.4428E-02
    -10.354  0.1348E-01  0.5601E-02
    -10.267  0.1517E-01  0.6920E-02
    -10.180  0.2538E-01  0.9127E-02
    -10.093  0.3696E-01  0.1234E-01
    -10.006  0.5632E-01  0.1724E-01
     -9.919  0.3427E-01  0.2022E-01
     -9.832  0.3706E-01  0.2344E-01
     -9.745  0.3529E-01  0.2651E-01
     -9.658  0.2689E-01  0.2885E-01
     -9.571  0.2002E-01  0.3059E-01
     -9.484  0.1683E-01  0.3206E-01
     -9.397  0.2933E-01  0.3461E-01
     -9.310  0.3844E-01  0.3795E-01
     -9.223  0.8706E-02  0.3871E-01
     -9.136  0.2542E-01  0.4092E-01
     -9.049  0.5919E-01  0.4607E-01
     -8.962  0.9133E-01  0.5401E-01
     -8.875  0.5462E-01  0.5876E-01
     -8.788  0.4288E-01  0.6249E-01
     -8.701  0.4436E-01  0.6635E-01
     -8.614  0.6658E-01  0.7214E-01
     -8.528  0.4660E-01  0.7619E-01
     -8.441  0.5329E-01  0.8083E-01
     -8.354  0.7758E-01  0.8757E-01
     -8.267  0.1074E+00  0.9691E-01
     -8.180  0.1069E+00  0.1062E+00
     -8.093  0.6670E-01  0.1120E+00
     -8.006  0.3698E-01  0.1152E+00
     -7.919  0.4771E-01  0.1194E+00
     -7.832  0.8451E-02  0.1201E+00
     -7.745 -0.1447E-02  0.1200E+00
     -7.658  0.1672E-03  0.1200E+00
     -7.571  0.2483E-04  0.1200E+00
     -7.484  0.3293E-06  0.1200E+00
     -7.397  0.7507E-09  0.1200E+00
     -7.310  0.3321E-12  0.1200E+00
     -7.223  0.2997E-16  0.1200E+00
     -7.136  0.0000E+00  0.1200E+00
     -7.049  0.0000E+00  0.1200E+00
     -6.962  0.0000E+00  0.1200E+00
     -6.875  0.0000E+00  0.1200E+00
     -6.788  0.0000E+00  0.1200E+00
     -6.701  0.0000E+00  0.1200E+00
     -6.614  0.0000E+00  0.1200E+00
     -6.527  0.0000E+00  0.1200E+00
     -6.440  0.0000E+00  0.1200E+00
     -6.353  0.0000E+00  0.1200E+00
     -6.266  0.0000E+00  0.1200E+00
     -6.179  0.0000E+00  0.1200E+00
     -6.092  0.0000E+00  0.1200E+00
     -6.005  0.0000E+00  0.1200E+00
     -5.918  0.0000E+00  0.1200E+00
     -5.831  0.0000E+00  0.1200E+00
     -5.744  0.0000E+00  0.1200E+00
     -5.657  0.0000E+00  0.1200E+00
     -5.570  0.0000E+00  0.1200E+00
     -5.483  0.0000E+00  0.1200E+00
     -5.396  0.0000E+00  0.1200E+00
     -5.310  0.0000E+00  0.1200E+00
     -5.223  0.0000E+00  0.1200E+00
     -5.136  0.0000E+00  0.1200E+00
     -5.049  0.0000E+00  0.1200E+00
     -4.962  0.0000E+00  0.1200E+00
     -4.875  0.0000E+00  0.1200E+00
     -4.788  0.0000E+00  0.1200E+00
     -4.701  0.0000E+00  0.1200E+00
     -4.614  0.0000E+00  0.1200E+00
     -4.527  0.0000E+00  0.1200E+00
     -4.440  0.0000E+00  0.1200E+00
     -4.353  0.0000E+00  0.1200E+00
     -4.266  0.0000E+00  0.1200E+00
     -4.179  0.0000E+00  0.1200E+00
     -4.092  0.3582E-31  0.1200E+00
     -4.005  0.2419E-25  0.1200E+00
     -3.918  0.3437E-20  0.1200E+00
     -3.831  0.1016E-15  0.1200E+00
     -3.744  0.6120E-12  0.1200E+00
     -3.657  0.7340E-09  0.1200E+00
     -3.570  0.1706E-06  0.1200E+00
     -3.483  0.7369E-05  0.1200E+00
     -3.396  0.3436E-04  0.1200E+00
     -3.309 -0.3132E-03  0.1200E+00
     -3.222  0.2211E-02  0.1202E+00
     -3.135  0.1297E-01  0.1213E+00
     -3.048  0.1028E-01  0.1222E+00
     -2.961  0.1777E-01  0.1237E+00
     -2.874  0.1051E-01  0.1246E+00
     -2.787  0.6276E-02  0.1252E+00
     -2.700  0.1609E-01  0.1266E+00
     -2.613  0.1067E-01  0.1275E+00
     -2.526  0.9332E-02  0.1283E+00
     -2.439  0.4812E-02  0.1288E+00
     -2.352  0.1391E-01  0.1300E+00
     -2.265  0.3832E-01  0.1333E+00
     -2.178  0.4658E-01  0.1373E+00
     -2.092  0.5864E-01  0.1424E+00
     -2.005  0.8820E-01  0.1501E+00
     -1.918  0.9116E-01  0.1580E+00
     -1.831  0.7335E-01  0.1644E+00
     -1.744  0.7809E-01  0.1712E+00
     -1.657  0.5360E-01  0.1759E+00
     -1.570  0.4373E-01  0.1797E+00
     -1.483  0.7698E-01  0.1864E+00
     -1.396  0.6255E-01  0.1918E+00
     -1.309  0.4965E-01  0.1961E+00
     -1.222  0.4829E-01  0.2003E+00
     -1.135  0.5924E-01  0.2055E+00
     -1.048  0.5517E-01  0.2103E+00
     -0.961  0.4749E-01  0.2144E+00
     -0.874  0.1630E-01  0.2158E+00
     -0.787  0.1398E-01  0.2171E+00
     -0.700  0.3302E-01  0.2199E+00
     -0.613  0.4397E-01  0.2237E+00
     -0.526  0.1807E-01  0.2253E+00
     -0.439  0.2196E-01  0.2272E+00
     -0.352  0.2550E-01  0.2294E+00
     -0.265  0.2466E-01  0.2316E+00
     -0.178  0.2763E-01  0.2340E+00
     -0.091  0.2090E-01  0.2358E+00
     -0.004  0.1641E-01  0.2372E+00
      0.083  0.4200E-01  0.2409E+00
      0.170  0.3976E-01  0.2443E+00
      0.257  0.3498E-01  0.2474E+00
      0.344  0.6956E-01  0.2534E+00
      0.431  0.5593E-01  0.2583E+00
      0.518  0.3073E-01  0.2610E+00
      0.605  0.3947E-01  0.2644E+00
      0.692  0.4901E-01  0.2687E+00
      0.779  0.4976E-01  0.2730E+00
      0.866  0.7130E-01  0.2792E+00
      0.953  0.6718E-01  0.2850E+00
      1.040  0.7826E-01  0.2919E+00
      1.126  0.7254E-01  0.2982E+00
      1.213  0.8052E-01  0.3052E+00
      1.300  0.7044E-01  0.3113E+00
      1.387  0.3139E-01  0.3140E+00
      1.474  0.4943E-01  0.3183E+00
      1.561  0.4339E-01  0.3221E+00
      1.648  0.4746E-01  0.3262E+00
      1.735  0.5685E-01  0.3312E+00
      1.822  0.7055E-01  0.3373E+00
      1.909  0.8772E-01  0.3449E+00
      1.996  0.6914E-01  0.3509E+00
      2.083  0.5412E-01  0.3557E+00
      2.170  0.5381E-01  0.3603E+00
      2.257  0.3240E-01  0.3632E+00
      2.344  0.5717E-01  0.3681E+00
      2.431  0.8408E-01  0.3754E+00
      2.518  0.7906E-01  0.3823E+00
      2.605  0.4511E-01  0.3862E+00
      2.692  0.5875E-01  0.3913E+00
      2.779  0.5601E-01  0.3962E+00
      2.866  0.5766E-01  0.4012E+00
      2.953  0.8285E-01  0.4084E+00
      3.040  0.4378E-01  0.4122E+00
      3.127  0.5640E-01  0.4171E+00
      3.214  0.7706E-01  0.4239E+00
      3.301  0.7591E-01  0.4305E+00
      3.388  0.6712E-01  0.4363E+00
      3.475  0.5402E-01  0.4410E+00
      3.562  0.7172E-01  0.4472E+00
      3.649  0.5885E-01  0.4523E+00
      3.736  0.9224E-01  0.4604E+00
      3.823  0.6780E-01  0.4663E+00
      3.910  0.6458E-01  0.4719E+00
      3.997  0.4538E-01  0.4758E+00
      4.084  0.2081E-01  0.4776E+00
      4.171  0.1007E-01  0.4785E+00
      4.258  0.3667E-02  0.4788E+00
      4.344  0.1422E-01  0.4801E+00
      4.431  0.1532E-01  0.4814E+00
      4.518  0.2778E-01  0.4838E+00
      4.605  0.3104E-01  0.4865E+00
      4.692  0.3370E-01  0.4894E+00
      4.779  0.4461E-01  0.4933E+00
      4.866  0.1810E-01  0.4949E+00
      4.953  0.6641E-02  0.4955E+00
      5.040  0.2617E-01  0.4978E+00
      5.127  0.3997E-01  0.5012E+00
      5.214  0.3203E-01  0.5040E+00
      5.301  0.3285E-01  0.5069E+00
      5.388  0.5168E-01  0.5114E+00
      5.475  0.4562E-01  0.5153E+00
      5.562  0.5136E-01  0.5198E+00
      5.649  0.7466E-01  0.5263E+00
      5.736  0.7544E-01  0.5329E+00
      5.823  0.1087E+00  0.5423E+00
      5.910  0.9644E-01  0.5507E+00
      5.997  0.7210E-01  0.5570E+00
      6.084  0.7848E-01  0.5638E+00
      6.171  0.4995E-01  0.5681E+00
      6.258  0.1685E-01  0.5696E+00
      6.345  0.1673E-01  0.5711E+00
      6.432  0.2739E-01  0.5734E+00
      6.519  0.2903E-01  0.5760E+00
      6.606  0.2509E-01  0.5781E+00
      6.693  0.1635E-01  0.5796E+00
      6.780  0.1796E-01  0.5811E+00
      6.867  0.1694E-01  0.5826E+00
      6.954  0.1115E-01  0.5836E+00
      7.041  0.1072E-01  0.5845E+00
      7.128  0.1050E-01  0.5854E+00
      7.215  0.2127E-01  0.5873E+00
      7.302  0.2619E-01  0.5895E+00
      7.389  0.2644E-01  0.5918E+00
      7.476  0.2351E-01  0.5939E+00
      7.562  0.3149E-01  0.5966E+00
      7.649  0.2021E-01  0.5984E+00
      7.736  0.2458E-01  0.6005E+00
      7.823  0.3205E-01  0.6033E+00
      7.910  0.2296E-01  0.6053E+00
      7.997  0.4654E-01  0.6094E+00
      8.084  0.4119E-01  0.6129E+00
      8.171  0.2746E-01  0.6153E+00
      8.258  0.3967E-01  0.6188E+00
      8.345  0.2865E-01  0.6213E+00
      8.432  0.5116E-01  0.6257E+00
      8.519  0.6016E-01  0.6310E+00
      8.606  0.3603E-01  0.6341E+00
      8.693  0.2135E-01  0.6359E+00
      8.780  0.4051E-02  0.6363E+00
      8.867  0.1220E-01  0.6374E+00
      8.954  0.2549E-01  0.6396E+00
      9.041  0.4375E-01  0.6434E+00
      9.128  0.3050E-01  0.6460E+00
      9.215  0.1038E-01  0.6469E+00
      9.302  0.2830E-01  0.6494E+00
      9.389  0.5347E-01  0.6540E+00
      9.476  0.3286E-01  0.6569E+00
      9.563  0.3147E-01  0.6596E+00
      9.650  0.4207E-01  0.6633E+00
      9.737  0.4204E-01  0.6670E+00
      9.824  0.3297E-01  0.6698E+00
      9.911  0.4696E-01  0.6739E+00
      9.998  0.5973E-01  0.6791E+00
     10.085  0.2633E-01  0.6814E+00
     10.172  0.2822E-01  0.6838E+00
     10.259  0.5031E-01  0.6882E+00
     10.346  0.3859E-01  0.6916E+00
     10.433  0.3175E-01  0.6943E+00
     10.520  0.4689E-01  0.6984E+00
     10.607  0.3035E-01  0.7011E+00
     10.694  0.2920E-01  0.7036E+00
     10.780  0.3840E-01  0.7069E+00
     10.867  0.5227E-01  0.7115E+00
     10.954  0.5209E-01  0.7160E+00
     11.041  0.7457E-01  0.7225E+00
     11.128  0.8469E-01  0.7299E+00
     11.215  0.7234E-01  0.7362E+00
     11.302  0.7584E-01  0.7428E+00
     11.389  0.7723E-01  0.7495E+00
     11.476  0.4926E-01  0.7538E+00
     11.563  0.3827E-01  0.7571E+00
     11.650  0.4173E-01  0.7607E+00
     11.737  0.5395E-01  0.7654E+00
     11.824  0.4115E-01  0.7690E+00
     11.911  0.3885E-01  0.7724E+00
     11.998  0.5558E-01  0.7772E+00
     12.085  0.4952E-01  0.7815E+00
     12.172  0.3561E-01  0.7846E+00
     12.259  0.5143E-01  0.7891E+00
     12.346  0.3534E-01  0.7921E+00
     12.433  0.2337E-01  0.7942E+00
     12.520  0.2310E-01  0.7962E+00
     12.607  0.1205E-01  0.7972E+00
     12.694  0.1817E-01  0.7988E+00
     12.781  0.9335E-02  0.7996E+00
     12.868  0.3882E-02  0.8000E+00
     12.955  0.3813E-04  0.8000E+00
     13.042  0.2940E-03  0.8000E+00
     13.129  0.3736E-04  0.8000E+00
     13.216 -0.8266E-05  0.8000E+00
     13.303  0.1457E-05  0.8000E+00
     13.390  0.5732E-07  0.8000E+00
     13.477  0.2704E-09  0.8000E+00
     13.564  0.2221E-12  0.8000E+00
     13.651  0.3527E-16  0.8000E+00
     13.738  0.0000E+00  0.8000E+00
     13.825  0.0000E+00  0.8000E+00
     13.912  0.0000E+00  0.8000E+00
     13.999  0.0000E+00  0.8000E+00
     14.085  0.0000E+00  0.8000E+00
     14.172  0.0000E+00  0.8000E+00
