   14   14  100    1
  0.1235344E+02  0.8280538E-09  0.8280538E-09  0.2912514E-09  0.5000000E-15
  1.000000000000000E-004
  CAR 
 unknown system                          
     62     64     40
 
  0.3742002E-15  0.3742002E-15  0.3742002E-15  0.1851852E-02
    1      -10.733469   1.000000
    2      -10.002095   1.000000
    3      -10.002095   1.000000
    4       -9.082761   1.000000
    5       -9.082761   1.000000
    6       -8.523731   1.000000
    7       -2.401852   1.000000
    8       -2.349320   1.000000
    9       -2.164828   1.000000
   10       -2.164828   1.000000
   11       -0.905875   1.000000
   12        0.561625   1.000000
   13        0.561625   1.000000
   14        1.771485   1.000000
   15        1.771486   1.000000
   16        2.613601   1.000000
   17        2.613602   1.000000
   18        2.805879   1.000000
   19        2.806869   1.000000
   20        3.227093   1.000000
   21        3.227093   1.000000
   22        3.890032   1.000000
   23        3.890032   1.000000
   24        4.259939   1.000000
   25        4.265348   1.000000
   26        4.838965   1.000000
   27        6.090690   1.000000
   28        6.090691   1.000000
   29        6.990999   1.000000
   30        7.745455   1.000000
   31        7.745456   1.000000
   32       10.483338   0.000000
   33       10.483339   0.000000
   34       10.642493   0.000000
   35       11.106521   0.000000
   36       11.106521   0.000000
   37       11.639372   0.000000
   38       12.503884   0.000000
   39       12.503885   0.000000
   40       12.986452   0.000000
 
  0.1666667E+00  0.3692385E-15  0.3742002E-15  0.1111111E-01
    1      -10.698187   1.000000
    2      -10.056720   1.000000
    3      -10.018225   1.000000
    4       -9.122053   1.000000
    5       -9.052780   1.000000
    6       -8.460614   1.000000
    7       -2.738700   1.000000
    8       -2.335598   1.000000
    9       -2.143544   1.000000
   10       -1.747379   1.000000
   11       -1.022871   1.000000
   12        0.445795   1.000000
   13        0.642661   1.000000
   14        1.632135   1.000000
   15        1.765009   1.000000
   16        2.496391   1.000000
   17        2.727636   1.000000
   18        2.822973   1.000000
   19        3.012616   1.000000
   20        3.207607   1.000000
   21        3.222448   1.000000
   22        3.880739   1.000000
   23        3.899680   1.000000
   24        4.274788   1.000000
   25        4.362957   1.000000
   26        5.028871   1.000000
   27        5.782158   1.000000
   28        5.900270   1.000000
   29        6.930462   1.000000
   30        7.931215   0.999993
   31        8.026718   0.999052
   32       10.276741   0.000000
   33       10.500695   0.000000
   34       10.673868   0.000000
   35       10.945399   0.000000
   36       11.106259   0.000000
   37       11.795602   0.000000
   38       12.200459   0.000000
   39       12.417966   0.000000
   40       12.810258   0.000000
 
  0.3333333E+00  0.3650015E-15  0.3742002E-15  0.1111111E-01
    1      -10.602587   1.000000
    2      -10.191583   1.000000
    3      -10.048186   1.000000
    4       -9.177421   1.000000
    5       -8.994545   1.000000
    6       -8.357943   1.000000
    7       -3.065048   1.000000
    8       -2.157062   1.000000
    9       -2.096200   1.000000
   10       -1.465272   1.000000
   11       -1.195201   1.000000
   12        0.232490   1.000000
   13        0.865660   1.000000
   14        1.403580   1.000000
   15        1.607999   1.000000
   16        2.495531   1.000000
   17        2.861792   1.000000
   18        2.970093   1.000000
   19        3.158416   1.000000
   20        3.213213   1.000000
   21        3.282088   1.000000
   22        3.864771   1.000000
   23        3.917271   1.000000
   24        4.302089   1.000000
   25        4.426620   1.000000
   26        5.122862   1.000000
   27        5.586050   1.000000
   28        5.745974   1.000000
   29        6.695264   1.000000
   30        8.174435   1.033021
   31        8.614457   0.000144
   32        9.842473   0.000000
   33       10.423164   0.000000
   34       10.577048   0.000000
   35       10.840571   0.000000
   36       11.100208   0.000000
   37       11.769011   0.000000
   38       12.124992   0.000000
   39       12.216500   0.000000
   40       12.474646   0.000000
 
  0.5000000E+00  0.3451915E-15  0.3742002E-15  0.5555556E-02
    1      -10.519214   1.000000
    2      -10.294778   1.000000
    3      -10.062145   1.000000
    4       -9.197906   1.000000
    5       -8.965962   1.000000
    6       -8.313911   1.000000
    7       -3.181942   1.000000
    8       -2.075949   1.000000
    9       -1.993041   1.000000
   10       -1.594075   1.000000
   11       -1.122318   1.000000
   12        0.131689   1.000000
   13        1.059053   1.000000
   14        1.297365   1.000000
   15        1.445094   1.000000
   16        2.520039   1.000000
   17        2.886486   1.000000
   18        3.103700   1.000000
   19        3.128227   1.000000
   20        3.208863   1.000000
   21        3.414865   1.000000
   22        3.856743   1.000000
   23        3.925618   1.000000
   24        4.313644   1.000000
   25        4.475634   1.000000
   26        4.793621   1.000000
   27        5.590984   1.000000
   28        6.139973   1.000000
   29        6.386063   1.000000
   30        8.240196   0.984304
   31        9.253342   0.000000
   32        9.304825   0.000000
   33       10.198906   0.000000
   34       10.515144   0.000000
   35       10.985197   0.000000
   36       11.062050   0.000000
   37       11.674961   0.000000
   38       12.099453   0.000000
   39       12.267888   0.000000
   40       12.287620   0.000000
 
  0.1666667E+00  0.1666667E+00  0.3742002E-15  0.1111111E-01
    1      -10.632240   1.000000
    2      -10.133962   1.000000
    3      -10.062103   1.000000
    4       -9.148411   1.000000
    5       -9.023885   1.000000
    6       -8.380768   1.000000
    7       -3.003882   1.000000
    8       -2.218394   1.000000
    9       -2.066206   1.000000
   10       -1.520744   1.000000
   11       -1.188539   1.000000
   12        0.350517   1.000000
   13        0.725648   1.000000
   14        1.393483   1.000000
   15        1.830902   1.000000
   16        2.399696   1.000000
   17        2.851305   1.000000
   18        2.859010   1.000000
   19        3.177457   1.000000
   20        3.209626   1.000000
   21        3.264567   1.000000
   22        3.872995   1.000000
   23        3.907965   1.000000
   24        4.294832   1.000000
   25        4.411024   1.000000
   26        5.282860   1.000000
   27        5.509092   1.000000
   28        5.686827   1.000000
   29        6.794924   1.000000
   30        8.195157   1.049458
   31        8.378642  -0.039999
   32        9.952950   0.000000
   33       10.406587   0.000000
   34       10.749577   0.000000
   35       10.792107   0.000000
   36       11.083602   0.000000
   37       11.856163   0.000000
   38       12.041574   0.000000
   39       12.282274   0.000000
   40       12.549283   0.000000
 
  0.3333333E+00  0.1666667E+00  0.3742002E-15  0.1111111E-01
    1      -10.530034   1.000000
    2      -10.245776   1.000000
    3      -10.110366   1.000000
    4       -9.153768   1.000000
    5       -9.002369   1.000000
    6       -8.311944   1.000000
    7       -3.193964   1.000000
    8       -2.049657   1.000000
    9       -1.917333   1.000000
   10       -1.604549   1.000000
   11       -1.277889   1.000000
   12        0.338948   1.000000
   13        0.827335   1.000000
   14        1.167699   1.000000
   15        1.810706   1.000000
   16        2.557482   1.000000
   17        2.775751   1.000000
   18        2.885964   1.000000
   19        3.142782   1.000000
   20        3.192986   1.000000
   21        3.516205   1.000000
   22        3.869589   1.000000
   23        3.914668   1.000000
   24        4.313810   1.000000
   25        4.439952   1.000000
   26        5.062563   1.000000
   27        5.360041   1.000000
   28        6.061577   1.000000
   29        6.523695   1.000000
   30        8.406128  -0.048206
   31        8.872354   0.000000
   32        9.663808   0.000000
   33        9.828737   0.000000
   34       10.733077   0.000000
   35       10.961688   0.000000
   36       11.095027   0.000000
   37       11.716165   0.000000
   38       12.049731   0.000000
   39       12.255641   0.000000
   40       12.339113   0.000000
 
  0.5000000E+00  0.1666667E+00  0.3742002E-15  0.1111111E-01
    1      -10.530023   1.000000
    2      -10.245797   1.000000
    3      -10.110381   1.000000
    4       -9.153761   1.000000
    5       -9.002367   1.000000
    6       -8.311888   1.000000
    7       -3.193934   1.000000
    8       -2.036721   1.000000
    9       -1.938801   1.000000
   10       -1.592013   1.000000
   11       -1.281666   1.000000
   12        0.330479   1.000000
   13        0.895082   1.000000
   14        1.066016   1.000000
   15        1.948586   1.000000
   16        2.345280   1.000000
   17        2.885704   1.000000
   18        2.897996   1.000000
   19        3.143074   1.000000
   20        3.192820   1.000000
   21        3.519898   1.000000
   22        3.869507   1.000000
   23        3.914597   1.000000
   24        4.314089   1.000000
   25        4.456235   1.000000
   26        4.964894   1.000000
   27        5.456498   1.000000
   28        6.019970   1.000000
   29        6.546329   1.000000
   30        8.365130  -0.008126
   31        8.965400   0.000000
   32        9.475064   0.000000
   33        9.993924   0.000000
   34       10.684682   0.000000
   35       10.954089   0.000000
   36       11.126800   0.000000
   37       11.697516   0.000000
   38       12.104708   0.000000
   39       12.187350   0.000000
   40       12.333066   0.000000
 
  0.3333333E+00  0.3333333E+00  0.3742002E-15  0.3703704E-02
    1      -10.483437   1.000000
    2      -10.215056   1.000000
    3      -10.215055   1.000000
    4       -9.071218   1.000000
    5       -9.071218   1.000000
    6       -8.289175   1.000000
    7       -3.257059   1.000000
    8       -1.848471   1.000000
    9       -1.848470   1.000000
   10       -1.585292   1.000000
   11       -1.585291   1.000000
   12        0.719168   1.000000
   13        0.719168   1.000000
   14        0.805705   1.000000
   15        2.398536   1.000000
   16        2.398536   1.000000
   17        2.407580   1.000000
   18        2.899180   1.000000
   19        3.158680   1.000000
   20        3.158680   1.000000
   21        3.619309   1.000000
   22        3.893547   1.000000
   23        3.893547   1.000000
   24        4.320486   1.000000
   25        4.529103   1.000000
   26        5.115462   1.000000
   27        5.115462   1.000000
   28        6.349887   1.000000
   29        6.349888   1.000000
   30        8.591265   0.000432
   31        9.252060   0.000000
   32        9.252060   0.000000
   33        9.517986   0.000000
   34       10.649603   0.000000
   35       11.160684   0.000000
   36       11.160684   0.000000
   37       11.708383   0.000000
   38       12.028479   0.000000
   39       12.028489   0.000000
   40       12.605898   0.000000
 
  0.3742002E-15  0.3742002E-15  0.6666667E-01  0.3703704E-02
    1      -10.680586   1.000000
    2       -9.954357   1.000000
    3       -9.954357   1.000000
    4       -9.042561   1.000000
    5       -9.042561   1.000000
    6       -8.492515   1.000000
    7       -2.335543   1.000000
    8       -2.293788   1.000000
    9       -2.131213   1.000000
   10       -2.131213   1.000000
   11       -0.872295   1.000000
   12        0.576824   1.000000
   13        0.576824   1.000000
   14        1.822926   1.000000
   15        1.822926   1.000000
   16        2.563094   1.000000
   17        2.593595   1.000000
   18        2.593595   1.000000
   19        2.797410   1.000000
   20        2.981456   1.000000
   21        2.981456   1.000000
   22        3.685554   1.000000
   23        3.685554   1.000000
   24        3.762659   1.000000
   25        4.435638   1.000000
   26        5.018146   1.000000
   27        6.118991   1.000000
   28        6.118991   1.000000
   29        6.974695   1.000000
   30        7.857509   1.000000
   31        7.857510   1.000000
   32       10.420030   0.000000
   33       10.420031   0.000000
   34       10.462535   0.000000
   35       11.249333   0.000000
   36       11.249334   0.000000
   37       11.810969   0.000000
   38       12.435362   0.000000
   39       12.688688   0.000000
   40       12.688700   0.000000
 
  0.1666667E+00  0.3692385E-15  0.6666667E-01  0.2222222E-01
    1      -10.645527   1.000000
    2      -10.008546   1.000000
    3       -9.970386   1.000000
    4       -9.081881   1.000000
    5       -9.013238   1.000000
    6       -8.430216   1.000000
    7       -2.687204   1.000000
    8       -2.270022   1.000000
    9       -2.109045   1.000000
   10       -1.710377   1.000000
   11       -0.984042   1.000000
   12        0.461793   1.000000
   13        0.653889   1.000000
   14        1.680210   1.000000
   15        1.787188   1.000000
   16        2.447210   1.000000
   17        2.593364   1.000000
   18        2.710542   1.000000
   19        2.937412   1.000000
   20        2.986220   1.000000
   21        3.054445   1.000000
   22        3.659892   1.000000
   23        3.696593   1.000000
   24        3.849100   1.000000
   25        4.497529   1.000000
   26        5.188684   1.000000
   27        5.820255   1.000000
   28        5.935750   1.000000
   29        6.916599   1.000000
   30        8.016449   0.999371
   31        8.114998   0.996298
   32       10.260846   0.000000
   33       10.442083   0.000000
   34       10.519788   0.000000
   35       11.068111   0.000000
   36       11.221425   0.000000
   37       11.944402   0.000000
   38       12.332471   0.000000
   39       12.412683   0.000000
   40       12.615836   0.000000
 
  0.3333333E+00  0.3650015E-15  0.6666667E-01  0.2222222E-01
    1      -10.550610   1.000000
    2      -10.142346   1.000000
    3      -10.000013   1.000000
    4       -9.137043   1.000000
    5       -8.956184   1.000000
    6       -8.328695   1.000000
    7       -3.010676   1.000000
    8       -2.096264   1.000000
    9       -2.056254   1.000000
   10       -1.416865   1.000000
   11       -1.161230   1.000000
   12        0.248428   1.000000
   13        0.865818   1.000000
   14        1.447772   1.000000
   15        1.615681   1.000000
   16        2.394843   1.000000
   17        2.584327   1.000000
   18        2.892793   1.000000
   19        2.948259   1.000000
   20        3.078068   1.000000
   21        3.332332   1.000000
   22        3.649413   1.000000
   23        3.721637   1.000000
   24        3.935870   1.000000
   25        4.568842   1.000000
   26        5.199413   1.000000
   27        5.634396   1.000000
   28        5.780894   1.000000
   29        6.695727   1.000000
   30        8.224565   1.032439
   31        8.675635   0.000004
   32        9.895965   0.000000
   33       10.431777   0.000000
   34       10.523298   0.000000
   35       10.805599   0.000000
   36       11.151860   0.000000
   37       11.958976   0.000000
   38       12.184997   0.000000
   39       12.247044   0.000000
   40       12.459772   0.000000
 
  0.5000000E+00  0.3451915E-15  0.6666667E-01  0.1111111E-01
    1      -10.467888   1.000000
    2      -10.244659   1.000000
    3      -10.013895   1.000000
    4       -9.157501   1.000000
    5       -8.928242   1.000000
    6       -8.285192   1.000000
    7       -3.126534   1.000000
    8       -2.038142   1.000000
    9       -1.931390   1.000000
   10       -1.533353   1.000000
   11       -1.096182   1.000000
   12        0.146993   1.000000
   13        1.049508   1.000000
   14        1.319870   1.000000
   15        1.477133   1.000000
   16        2.446827   1.000000
   17        2.507743   1.000000
   18        2.906068   1.000000
   19        2.968041   1.000000
   20        3.187520   1.000000
   21        3.492203   1.000000
   22        3.677914   1.000000
   23        3.730813   1.000000
   24        3.944369   1.000000
   25        4.630178   1.000000
   26        4.850862   1.000000
   27        5.615360   1.000000
   28        6.138518   1.000000
   29        6.418331   1.000000
   30        8.283060   0.669987
   31        9.300843   0.000000
   32        9.374209   0.000000
   33       10.255421   0.000000
   34       10.460254   0.000000
   35       10.898508   0.000000
   36       11.106810   0.000000
   37       11.833658   0.000000
   38       12.172202   0.000000
   39       12.273573   0.000000
   40       12.378082   0.000000
 
  0.1666667E+00  0.1666667E+00  0.6666667E-01  0.2222222E-01
    1      -10.580028   1.000000
    2      -10.085164   1.000000
    3      -10.013807   1.000000
    4       -9.108258   1.000000
    5       -8.984999   1.000000
    6       -8.351264   1.000000
    7       -2.950074   1.000000
    8       -2.155054   1.000000
    9       -2.029510   1.000000
   10       -1.479930   1.000000
   11       -1.147351   1.000000
   12        0.363454   1.000000
   13        0.736785   1.000000
   14        1.425399   1.000000
   15        1.835332   1.000000
   16        2.349638   1.000000
   17        2.597276   1.000000
   18        2.791147   1.000000
   19        2.931773   1.000000
   20        3.064018   1.000000
   21        3.289242   1.000000
   22        3.644751   1.000000
   23        3.717316   1.000000
   24        3.919586   1.000000
   25        4.550548   1.000000
   26        5.389324   1.000000
   27        5.550613   1.000000
   28        5.725222   1.000000
   29        6.786961   1.000000
   30        8.252512   0.920895
   31        8.445603  -0.013854
   32        9.988169   0.000000
   33       10.401160   0.000000
   34       10.629823   0.000000
   35       10.853772   0.000000
   36       11.131419   0.000000
   37       12.047931   0.000000
   38       12.111729   0.000000
   39       12.304197   0.000000
   40       12.484711   0.000000
 
  0.3333333E+00  0.1666667E+00  0.6666667E-01  0.2222222E-01
    1      -10.478576   1.000000
    2      -10.196045   1.000000
    3      -10.061656   1.000000
    4       -9.113783   1.000000
    5       -8.964067   1.000000
    6       -8.283277   1.000000
    7       -3.138547   1.000000
    8       -1.997256   1.000000
    9       -1.871798   1.000000
   10       -1.546549   1.000000
   11       -1.245046   1.000000
   12        0.346787   1.000000
   13        0.844561   1.000000
   14        1.177888   1.000000
   15        1.821219   1.000000
   16        2.400300   1.000000
   17        2.596909   1.000000
   18        2.760200   1.000000
   19        2.937758   1.000000
   20        3.097282   1.000000
   21        3.556757   1.000000
   22        3.658431   1.000000
   23        3.720662   1.000000
   24        3.957048   1.000000
   25        4.584110   1.000000
   26        5.125482   1.000000
   27        5.400179   1.000000
   28        6.074950   1.000000
   29        6.530554   1.000000
   30        8.436972  -0.021205
   31        8.943025   0.000000
   32        9.719805   0.000000
   33        9.890195   0.000000
   34       10.713715   0.000000
   35       10.964416   0.000000
   36       10.979321   0.000000
   37       11.936668   0.000000
   38       12.029654   0.000000
   39       12.291453   0.000000
   40       12.441254   0.000000
 
  0.5000000E+00  0.1666667E+00  0.6666667E-01  0.2222222E-01
    1      -10.478592   1.000000
    2      -10.196056   1.000000
    3      -10.061657   1.000000
    4       -9.113821   1.000000
    5       -8.964041   1.000000
    6       -8.283237   1.000000
    7       -3.138600   1.000000
    8       -1.981107   1.000000
    9       -1.896971   1.000000
   10       -1.532181   1.000000
   11       -1.249794   1.000000
   12        0.338659   1.000000
   13        0.904783   1.000000
   14        1.088499   1.000000
   15        1.938057   1.000000
   16        2.306988   1.000000
   17        2.523718   1.000000
   18        2.826160   1.000000
   19        2.945859   1.000000
   20        3.117058   1.000000
   21        3.533985   1.000000
   22        3.672994   1.000000
   23        3.736099   1.000000
   24        3.949211   1.000000
   25        4.605969   1.000000
   26        5.025936   1.000000
   27        5.490360   1.000000
   28        6.044225   1.000000
   29        6.546527   1.000000
   30        8.406879  -0.047757
   31        9.017183   0.000000
   32        9.553283   0.000000
   33       10.035348   0.000000
   34       10.715807   0.000000
   35       10.855988   0.000000
   36       11.063888   0.000000
   37       11.875153   0.000000
   38       12.154735   0.000000
   39       12.228146   0.000000
   40       12.413369   0.000000
 
  0.3333333E+00  0.3333333E+00  0.6666667E-01  0.7407407E-02
    1      -10.432380   1.000000
    2      -10.165500   1.000000
    3      -10.165500   1.000000
    4       -9.032240   1.000000
    5       -9.032240   1.000000
    6       -8.260801   1.000000
    7       -3.201357   1.000000
    8       -1.795790   1.000000
    9       -1.795789   1.000000
   10       -1.541367   1.000000
   11       -1.541367   1.000000
   12        0.709356   1.000000
   13        0.709356   1.000000
   14        0.859832   1.000000
   15        2.325049   1.000000
   16        2.325049   1.000000
   17        2.330702   1.000000
   18        2.675426   1.000000
   19        3.018535   1.000000
   20        3.018535   1.000000
   21        3.657186   1.000000
   22        3.677293   1.000000
   23        3.677293   1.000000
   24        3.982550   1.000000
   25        4.672798   1.000000
   26        5.162429   1.000000
   27        5.162429   1.000000
   28        6.350475   1.000000
   29        6.350475   1.000000
   30        8.613857   0.000149
   31        9.326147   0.000000
   32        9.326147   0.000000
   33        9.587748   0.000000
   34       10.745012   0.000000
   35       10.995629   0.000000
   36       10.995629   0.000000
   37       11.986374   0.000000
   38       12.061042   0.000000
   39       12.061050   0.000000
   40       12.666497   0.000000
 
  0.3742002E-15  0.3742002E-15  0.1333333E+00  0.3703704E-02
    1      -10.524084   1.000000
    2       -9.814094   1.000000
    3       -9.814094   1.000000
    4       -8.926633   1.000000
    5       -8.926633   1.000000
    6       -8.405051   1.000000
    7       -2.138031   1.000000
    8       -2.131993   1.000000
    9       -2.042453   1.000000
   10       -2.042453   1.000000
   11       -0.791206   1.000000
   12        0.585441   1.000000
   13        0.585441   1.000000
   14        1.958173   1.000000
   15        1.958173   1.000000
   16        1.982014   1.000000
   17        2.397468   1.000000
   18        2.397468   1.000000
   19        2.448875   1.000000
   20        2.448875   1.000000
   21        2.747205   1.000000
   22        2.974055   1.000000
   23        3.307579   1.000000
   24        3.307579   1.000000
   25        4.597729   1.000000
   26        5.291012   1.000000
   27        6.163937   1.000000
   28        6.163937   1.000000
   29        6.877106   1.000000
   30        8.114570   0.996231
   31        8.114571   0.996231
   32        9.802127   0.000000
   33       10.149426   0.000000
   34       10.149427   0.000000
   35       11.107951   0.000000
   36       11.535406   0.000000
   37       11.535406   0.000000
   38       12.101645   0.000000
   39       12.469448   0.000000
   40       12.469448   0.000000
 
  0.1666667E+00  0.3692385E-15  0.1333333E+00  0.2222222E-01
    1      -10.489710   1.000000
    2       -9.866727   1.000000
    3       -9.829481   1.000000
    4       -8.965638   1.000000
    5       -8.899041   1.000000
    6       -8.344743   1.000000
    7       -2.538218   1.000000
    8       -2.075125   1.000000
    9       -2.016836   1.000000
   10       -1.609832   1.000000
   11       -0.882639   1.000000
   12        0.474803   1.000000
   13        0.649679   1.000000
   14        1.716135   1.000000
   15        1.812847   1.000000
   16        2.070970   1.000000
   17        2.232907   1.000000
   18        2.324838   1.000000
   19        2.562812   1.000000
   20        2.686492   1.000000
   21        2.918340   1.000000
   22        3.046206   1.000000
   23        3.316761   1.000000
   24        3.348368   1.000000
   25        4.675893   1.000000
   26        5.433431   1.000000
   27        5.895182   1.000000
   28        5.999658   1.000000
   29        6.831135   1.000000
   30        8.214596   1.046899
   31        8.321488   0.275616
   32        9.838862   0.000000
   33       10.110996   0.000000
   34       10.204458   0.000000
   35       11.068839   0.000000
   36       11.303635   0.000000
   37       11.472595   0.000000
   38       12.128097   0.000000
   39       12.370665   0.000000
   40       12.519567   0.000000
 
  0.3333333E+00  0.3650015E-15  0.1333333E+00  0.2222222E-01
    1      -10.396760   1.000000
    2       -9.996997   1.000000
    3       -9.858085   1.000000
    4       -9.020208   1.000000
    5       -8.845296   1.000000
    6       -8.246901   1.000000
    7       -2.851208   1.000000
    8       -1.970101   1.000000
    9       -1.895489   1.000000
   10       -1.288044   1.000000
   11       -1.064510   1.000000
   12        0.265254   1.000000
   13        0.822245   1.000000
   14        1.496389   1.000000
   15        1.634298   1.000000
   16        1.855417   1.000000
   17        2.126233   1.000000
   18        2.376028   1.000000
   19        2.706384   1.000000
   20        2.848160   1.000000
   21        3.136587   1.000000
   22        3.165801   1.000000
   23        3.445997   1.000000
   24        3.496154   1.000000
   25        4.777454   1.000000
   26        5.339168   1.000000
   27        5.722960   1.000000
   28        5.848392   1.000000
   29        6.658350   1.000000
   30        8.346712   0.077353
   31        8.821050   0.000000
   32        9.929281   0.000000
   33        9.956160   0.000000
   34       10.220897   0.000000
   35       10.735692   0.000000
   36       11.083590   0.000000
   37       11.380096   0.000000
   38       12.071274   0.000000
   39       12.251307   0.000000
   40       12.654477   0.000000
 
  0.5000000E+00  0.3451915E-15  0.1333333E+00  0.1111111E-01
    1      -10.315790   1.000000
    2      -10.096685   1.000000
    3       -9.871456   1.000000
    4       -9.040380   1.000000
    5       -8.819015   1.000000
    6       -8.205036   1.000000
    7       -2.963212   1.000000
    8       -1.938929   1.000000
    9       -1.749650   1.000000
   10       -1.353781   1.000000
   11       -1.033528   1.000000
   12        0.163946   1.000000
   13        0.962304   1.000000
   14        1.337644   1.000000
   15        1.585534   1.000000
   16        1.802887   1.000000
   17        2.052907   1.000000
   18        2.367910   1.000000
   19        2.759014   1.000000
   20        2.874550   1.000000
   21        3.203428   1.000000
   22        3.242170   1.000000
   23        3.588097   1.000000
   24        3.614081   1.000000
   25        4.833189   1.000000
   26        4.990141   1.000000
   27        5.664642   1.000000
   28        6.125510   1.000000
   29        6.455431   1.000000
   30        8.389927  -0.050559
   31        9.416652   0.000000
   32        9.512579   0.000000
   33       10.028453   0.000000
   34       10.113250   0.000000
   35       10.485888   0.000000
   36       11.082272   0.000000
   37       11.407126   0.000000
   38       11.990304   0.000000
   39       12.206668   0.000000
   40       12.614177   0.000000
 
  0.1666667E+00  0.1666667E+00  0.1333333E+00  0.2222222E-01
    1      -10.425541   1.000000
    2       -9.941288   1.000000
    3       -9.871528   1.000000
    4       -8.992201   1.000000
    5       -8.872716   1.000000
    6       -8.268588   1.000000
    7       -2.793175   1.000000
    8       -1.978239   1.000000
    9       -1.921662   1.000000
   10       -1.372355   1.000000
   11       -1.030388   1.000000
   12        0.369721   1.000000
   13        0.724059   1.000000
   14        1.506885   1.000000
   15        1.674113   1.000000
   16        1.975307   1.000000
   17        2.161814   1.000000
   18        2.462845   1.000000
   19        2.527041   1.000000
   20        2.865430   1.000000
   21        3.080566   1.000000
   22        3.120601   1.000000
   23        3.338997   1.000000
   24        3.509071   1.000000
   25        4.754180   1.000000
   26        5.547074   1.000000
   27        5.653015   1.000000
   28        5.799378   1.000000
   29        6.725981   1.000000
   30        8.378366  -0.039576
   31        8.614549   0.000144
   32        9.879249   0.000000
   33       10.032943   0.000000
   34       10.234486   0.000000
   35       10.900128   0.000000
   36       11.107328   0.000000
   37       11.331761   0.000000
   38       12.089288   0.000000
   39       12.284880   0.000000
   40       12.637810   0.000000
 
  0.3333333E+00  0.1666667E+00  0.1333333E+00  0.2222222E-01
    1      -10.326242   1.000000
    2      -10.049313   1.000000
    3       -9.918029   1.000000
    4       -8.998232   1.000000
    5       -8.853558   1.000000
    6       -8.203123   1.000000
    7       -2.975944   1.000000
    8       -1.866767   1.000000
    9       -1.727670   1.000000
   10       -1.378349   1.000000
   11       -1.155005   1.000000
   12        0.337425   1.000000
   13        0.822786   1.000000
   14        1.225520   1.000000
   15        1.735783   1.000000
   16        1.805446   1.000000
   17        2.084690   1.000000
   18        2.443677   1.000000
   19        2.712188   1.000000
   20        2.908957   1.000000
   21        3.177827   1.000000