       N       E                     dE             d eps       ncg     rms          rms(c)
DAV:   1     0.226755969589E+03    0.22676E+03   -0.24923E+04  5128   0.113E+03
DAV:   2    -0.786307499712E+02   -0.30539E+03   -0.29208E+03  6464   0.234E+02
DAV:   3    -0.102705280522E+03   -0.24075E+02   -0.23536E+02  6504   0.690E+01
DAV:   4    -0.103351708568E+03   -0.64643E+00   -0.64247E+00  6568   0.117E+01
DAV:   5    -0.103368426990E+03   -0.16718E-01   -0.16706E-01  6544   0.182E+00    0.210E+01
RMM:   6    -0.952924779199E+02    0.80759E+01   -0.48921E+01  5120   0.233E+01    0.961E+00
RMM:   7    -0.947751838262E+02    0.51729E+00   -0.10356E+00  5167   0.363E+00    0.548E+00
RMM:   8    -0.947080077217E+02    0.67176E-01   -0.70942E-01  5132   0.287E+00    0.110E+00
RMM:   9    -0.946782416291E+02    0.29766E-01   -0.21768E-01  5158   0.161E+00    0.486E-01
RMM:  10    -0.946773284296E+02    0.91320E-03   -0.94243E-03  5199   0.403E-01    0.178E-01
RMM:  11    -0.946779144004E+02   -0.58597E-03   -0.58746E-03  5138   0.288E-01    0.873E-02
RMM:  12    -0.946778722438E+02    0.42157E-04   -0.76899E-04  4747   0.105E-01
   1 F= -.94677872E+02 E0= -.94677919E+02  d E =-.946779E+02
       N       E                     dE             d eps       ncg     rms          rms(c)
DAV:   1    -0.947532420103E+02   -0.75328E-01   -0.11157E+01  5552   0.182E+01    0.759E-01
RMM:   2    -0.947664933344E+02   -0.13251E-01   -0.25263E-01  5144   0.235E+00    0.479E-01
RMM:   3    -0.947626740533E+02    0.38193E-02   -0.30065E-02  5276   0.630E-01    0.243E-01
RMM:   4    -0.947624367647E+02    0.23729E-03   -0.38968E-03  5314   0.222E-01    0.126E-01
RMM:   5    -0.947624806244E+02   -0.43860E-04   -0.42209E-04  3904   0.821E-02
   2 F= -.94762481E+02 E0= -.94762860E+02  d E =-.846084E-01
       N       E                     dE             d eps       ncg     rms          rms(c)
DAV:   1    -0.947659588912E+02   -0.35221E-02   -0.32469E-01  6112   0.312E+00    0.134E-01
RMM:   2    -0.947662795610E+02   -0.32067E-03   -0.69062E-03  5148   0.388E-01    0.825E-02
RMM:   3    -0.947661759352E+02    0.10363E-03   -0.80851E-04  4869   0.105E-01    0.447E-02
RMM:   4    -0.947661659998E+02    0.99354E-05   -0.79289E-05  2961   0.377E-02
   3 F= -.94766166E+02 E0= -.94766567E+02  d E =-.882938E-01
       N       E                     dE             d eps       ncg     rms          rms(c)
DAV:   1    -0.947737877767E+02   -0.76118E-02   -0.12718E+00  5368   0.605E+00    0.303E-01
RMM:   2    -0.947762957866E+02   -0.25080E-02   -0.31895E-02  5120   0.813E-01    0.106E-01
RMM:   3    -0.947760805458E+02    0.21524E-03   -0.13875E-03  5302   0.154E-01    0.634E-02
RMM:   4    -0.947760174147E+02    0.63131E-04   -0.27026E-04  3172   0.716E-02
   4 F= -.94776017E+02 E0= -.94776405E+02  d E =-.985141E-02
       N       E                     dE             d eps       ncg     rms          rms(c)
DAV:   1    -0.947718127928E+02    0.42678E-02   -0.75467E+00  5136   0.147E+01    0.762E-01
RMM:   2    -0.947866836680E+02   -0.14871E-01   -0.19453E-01  5121   0.201E+00    0.269E-01
RMM:   3    -0.947853056528E+02    0.13780E-02   -0.86170E-03  5328   0.383E-01    0.163E-01
RMM:   4    -0.947849380638E+02    0.36759E-03   -0.17081E-03  5160   0.172E-01    0.660E-02
RMM:   5    -0.947849491312E+02   -0.11067E-04   -0.16124E-04  3141   0.527E-02
   5 F= -.94784949E+02 E0= -.94784999E+02  d E =-.187831E-01
       N       E                     dE             d eps       ncg     rms          rms(c)
DAV:   1    -0.947879487062E+02   -0.30106E-02   -0.14906E-01  6120   0.205E+00    0.926E-02
RMM:   2    -0.947881642554E+02   -0.21555E-03   -0.30788E-03  5122   0.255E-01    0.318E-02
RMM:   3    -0.947881464139E+02    0.17842E-04   -0.11089E-04  3030   0.481E-02
   6 F= -.94788146E+02 E0= -.94788139E+02  d E =-.319728E-02
       N       E                     dE             d eps       ncg     rms          rms(c)
DAV:   1    -0.947964411724E+02   -0.82769E-02   -0.13241E+00  5168   0.612E+00    0.270E-01
RMM:   2    -0.947983403949E+02   -0.18992E-02   -0.26924E-02  5121   0.757E-01    0.953E-02
RMM:   3    -0.947981811539E+02    0.15924E-03   -0.12439E-03  5230   0.145E-01    0.615E-02
RMM:   4    -0.947981468233E+02    0.34331E-04   -0.19218E-04  3127   0.601E-02
   7 F= -.94798147E+02 E0= -.94798013E+02  d E =-.131977E-01
       N       E                     dE             d eps       ncg     rms          rms(c)
DAV:   1    -0.948112883699E+02   -0.13107E-01   -0.53192E+00  5168   0.123E+01    0.543E-01
RMM:   2    -0.948193860852E+02   -0.80977E-02   -0.10957E-01  5120   0.153E+00    0.189E-01
RMM:   3    -0.948187257125E+02    0.66037E-03   -0.48418E-03  5304   0.289E-01    0.123E-01
RMM:   4    -0.948185895694E+02    0.13614E-03   -0.82252E-04  4901   0.116E-01    0.557E-02
RMM:   5    -0.948185987701E+02   -0.92007E-05   -0.10272E-04  3100   0.446E-02
   8 F= -.94818599E+02 E0= -.94818014E+02  d E =-.336496E-01
       N       E                     dE             d eps       ncg     rms          rms(c)
DAV:   1    -0.948335030292E+02   -0.14913E-01   -0.21366E+01  5184   0.246E+01    0.113E+00
RMM:   2    -0.948676058770E+02   -0.34103E-01   -0.46034E-01  5120   0.316E+00    0.408E-01
RMM:   3    -0.948638791590E+02    0.37267E-02   -0.20857E-02  5262   0.605E-01    0.251E-01
RMM:   4    -0.948633232348E+02    0.55592E-03   -0.31607E-03  5272   0.227E-01    0.127E-01
RMM:   5    -0.948633391612E+02   -0.15926E-04   -0.58242E-04  4603   0.934E-02
   9 F= -.94863339E+02 E0= -.94863151E+02  d E =-.783900E-01
       N       E                     dE             d eps       ncg     rms          rms(c)
DAV:   1    -0.947492823265E+02    0.11404E+00   -0.85525E+01  5136   0.492E+01    0.245E+00
RMM:   2    -0.949432935281E+02   -0.19401E+00   -0.21705E+00  5122   0.694E+00    0.979E-01
RMM:   3    -0.949233186223E+02    0.19975E-01   -0.79731E-02  5297   0.121E+00    0.706E-01
RMM:   4    -0.949177834759E+02    0.55351E-02   -0.27456E-02  5145   0.643E-01    0.274E-01
RMM:   5    -0.949177958705E+02   -0.12395E-04   -0.27975E-03  5197   0.195E-01    0.128E-01
RMM:   6    -0.949176853933E+02    0.11048E-03   -0.73087E-04  4660   0.100E-01    0.432E-02
RMM:   7    -0.949177094482E+02   -0.24055E-04   -0.32069E-04  3506   0.711E-02
  10 F= -.94917709E+02 E0= -.94917934E+02  d E =-.132760E+00
       N       E                     dE             d eps       ncg     rms          rms(c)
DAV:   1    -0.949261415440E+02   -0.84562E-02   -0.65525E-01  6104   0.431E+00    0.157E-01
RMM:   2    -0.949272493999E+02   -0.11079E-02   -0.12551E-02  5122   0.510E-01    0.702E-02
RMM:   3    -0.949271523825E+02    0.97017E-04   -0.48483E-04  3841   0.936E-02
  11 F= -.94927152E+02 E0= -.94927317E+02  d E =-.944293E-02
       N       E                     dE             d eps       ncg     rms          rms(c)
DAV:   1    -0.949433998208E+02   -0.16150E-01   -0.58535E+00  5200   0.129E+01    0.474E-01
RMM:   2    -0.949527915742E+02   -0.93918E-02   -0.11004E-01  5120   0.153E+00    0.221E-01
RMM:   3    -0.949519196449E+02    0.87193E-03   -0.46967E-03  5299   0.284E-01    0.150E-01
RMM:   4    -0.949516915963E+02    0.22805E-03   -0.10826E-03  4899   0.131E-01    0.587E-02
RMM:   5    -0.949517015620E+02   -0.99657E-05   -0.10369E-04  3127   0.450E-02
  12 F= -.94951702E+02 E0= -.94951603E+02  d E =-.339921E-01
       N       E                     dE             d eps       ncg     rms          rms(c)
DAV:   1    -0.949529672350E+02   -0.12756E-02   -0.23567E+01  5120   0.258E+01    0.103E+00
RMM:   2    -0.949936332071E+02   -0.40666E-01   -0.47544E-01  5120   0.320E+00    0.450E-01
RMM:   3    -0.949893616631E+02    0.42715E-02   -0.19049E-02  5292   0.581E-01    0.308E-01
RMM:   4    -0.949882813751E+02    0.10803E-02   -0.50104E-03  5158   0.277E-01    0.122E-01
RMM:   5    -0.949883069490E+02   -0.25574E-04   -0.53821E-04  4130   0.890E-02
  13 F= -.94988307E+02 E0= -.94988089E+02  d E =-.705975E-01
       N       E                     dE             d eps       ncg     rms          rms(c)
DAV:   1    -0.948186743267E+02    0.16961E+00   -0.93816E+01  5120   0.516E+01    0.245E+00
RMM:   2    -0.950228624376E+02   -0.20419E+00   -0.22887E+00  5120   0.709E+00    0.105E+00
RMM:   3    -0.950005257332E+02    0.22337E-01   -0.78347E-02  5295   0.121E+00    0.796E-01
RMM:   4    -0.949934872211E+02    0.70385E-02   -0.33912E-02  5131   0.706E-01    0.287E-01
RMM:   5    -0.949934724707E+02    0.14750E-04   -0.28428E-03  5178   0.199E-01    0.141E-01
RMM:   6    -0.949933724862E+02    0.99985E-04   -0.77392E-04  4758   0.105E-01
  14 F= -.94993372E+02 E0= -.94993300E+02  d E =-.756630E-01
       N       E                     dE             d eps       ncg     rms          rms(c)
DAV:   1    -0.949778619939E+02    0.15610E-01   -0.22281E+01  5120   0.251E+01    0.812E-01
RMM:   2    -0.950081404967E+02   -0.30279E-01   -0.36710E-01  5120   0.279E+00    0.427E-01
RMM:   3    -0.950052696339E+02    0.28709E-02   -0.14809E-02  5302   0.510E-01    0.307E-01
RMM:   4    -0.950043691689E+02    0.90046E-03   -0.45452E-03  5146   0.262E-01    0.102E-01
RMM:   5    -0.950044145872E+02   -0.45418E-04   -0.27781E-04  3425   0.652E-02
  15 F= -.95004415E+02 E0= -.95003800E+02  d E =-.867051E-01
       N       E                     dE             d eps       ncg     rms          rms(c)
DAV:   1    -0.950270745573E+02   -0.22705E-01   -0.49405E-01  5536   0.379E+00    0.200E-01
RMM:   2    -0.950282839015E+02   -0.12093E-02   -0.13971E-02  5120   0.530E-01    0.949E-02
RMM:   3    -0.950281063490E+02    0.17755E-03   -0.51280E-04  3958   0.996E-02    0.605E-02
RMM:   4    -0.950280468385E+02    0.59510E-04   -0.30973E-04  3531   0.745E-02
  16 F= -.95028047E+02 E0= -.95027439E+02  d E =-.236323E-01
       N       E                     dE             d eps       ncg     rms          rms(c)
DAV:   1    -0.950610249858E+02   -0.32919E-01   -0.44234E+00  5152   0.113E+01    0.584E-01
RMM:   2    -0.950717149943E+02   -0.10690E-01   -0.12331E-01  5120   0.157E+00    0.285E-01
RMM:   3    -0.950702738591E+02    0.14411E-02   -0.48542E-03  5326   0.296E-01    0.185E-01
RMM:   4    -0.950697315186E+02    0.54234E-03   -0.23271E-03  5121   0.196E-01    0.452E-02
RMM:   5    -0.950697273619E+02    0.41567E-05   -0.54169E-05  3080   0.303E-02
  17 F= -.95069727E+02 E0= -.95069225E+02  d E =-.653128E-01
       N       E                     dE             d eps       ncg     rms          rms(c)
DAV:   1    -0.950730843058E+02   -0.33528E-02   -0.10395E+00  5328   0.549E+00    0.279E-01
RMM:   2    -0.950756308979E+02   -0.25466E-02   -0.28817E-02  5120   0.762E-01    0.130E-01
RMM:   3    -0.950753112539E+02    0.31964E-03   -0.11218E-03  5216   0.142E-01    0.830E-02
RMM:   4    -0.950751913255E+02    0.11993E-03   -0.52094E-04  4429   0.938E-02    0.197E-02
RMM:   5    -0.950751904149E+02    0.91056E-06   -0.20096E-05  2876   0.199E-02
  18 F= -.95075190E+02 E0= -.95074783E+02  d E =-.707758E-01
       N       E                     dE             d eps       ncg     rms          rms(c)
DAV:   1    -0.950775296074E+02   -0.23383E-02   -0.43247E-02  6048   0.114E+00    0.307E-02
RMM:   2    -0.950775639265E+02   -0.34319E-04   -0.71807E-04  4190   0.120E-01
  19 F= -.95077564E+02 E0= -.95077203E+02  d E =-.237351E-02
       N       E                     dE             d eps       ncg     rms          rms(c)
DAV:   1    -0.950824610877E+02   -0.49315E-02   -0.38819E-01  5184   0.342E+00    0.967E-02
RMM:   2    -0.950827724338E+02   -0.31135E-03   -0.67606E-03  5124   0.366E-01    0.808E-02
RMM:   3    -0.950826948743E+02    0.77560E-04   -0.60650E-04  4352   0.967E-02
  20 F= -.95082695E+02 E0= -.95082486E+02  d E =-.750446E-02
       N       E                     dE             d eps       ncg     rms          rms(c)
DAV:   1    -0.950829576232E+02   -0.18519E-03   -0.15490E+00  5120   0.683E+00    0.185E-01
RMM:   2    -0.950842939561E+02   -0.13363E-02   -0.26028E-02  5124   0.719E-01    0.151E-01
RMM:   3    -0.950840442960E+02    0.24966E-03   -0.22312E-03  5246   0.183E-01    0.970E-02
RMM:   4    -0.950840033254E+02    0.40971E-04   -0.46791E-04  4226   0.847E-02
  21 F= -.95084003E+02 E0= -.95084109E+02  d E =-.881291E-02
       N       E                     dE             d eps       ncg     rms          rms(c)
DAV:   1    -0.950896923248E+02   -0.56480E-02   -0.28792E-01  5248   0.299E+00    0.125E-01
RMM:   2    -0.950900402300E+02   -0.34791E-03   -0.58028E-03  5120   0.343E-01    0.604E-02
RMM:   3    -0.950899625441E+02    0.77686E-04   -0.39053E-04  3706   0.798E-02
  22 F= -.95089963E+02 E0= -.95090101E+02  d E =-.595922E-02
       N       E                     dE             d eps       ncg     rms          rms(c)
DAV:   1    -0.950930046965E+02   -0.29645E-02   -0.99435E-01  5136   0.556E+00    0.235E-01
RMM:   2    -0.950942125876E+02   -0.12079E-02   -0.19986E-02  5121   0.638E-01    0.120E-01
RMM:   3    -0.950939623647E+02    0.25022E-03   -0.14983E-03  5196   0.148E-01    0.695E-02
RMM:   4    -0.950939095734E+02    0.52791E-04   -0.35715E-04  3699   0.753E-02
  23 F= -.95093910E+02 E0= -.95094127E+02  d E =-.990625E-02
       N       E                     dE             d eps       ncg     rms          rms(c)
DAV:   1    -0.950970940149E+02   -0.31317E-02   -0.93079E-02  5904   0.169E+00    0.605E-02
RMM:   2    -0.950972414341E+02   -0.14742E-03   -0.15096E-03  5092   0.189E-01    0.404E-02
RMM:   3    -0.950972445390E+02   -0.31049E-05   -0.71611E-05  2837   0.396E-02
  24 F= -.95097245E+02 E0= -.95097565E+02  d E =-.333497E-02
       N       E                     dE             d eps       ncg     rms          rms(c)
DAV:   1    -0.951018423728E+02   -0.46009E-02   -0.83690E-01  5152   0.508E+00    0.172E-01
RMM:   2    -0.951031822854E+02   -0.13399E-02   -0.13736E-02  5122   0.569E-01    0.117E-01
RMM:   3    -0.951032256733E+02   -0.43388E-04   -0.89764E-04  4527   0.116E-01
  25 F= -.95103226E+02 E0= -.95103765E+02  d E =-.931610E-02
       N       E                     dE             d eps       ncg     rms          rms(c)
DAV:   1    -0.951068276404E+02   -0.36454E-02   -0.42893E-01  5248   0.364E+00    0.125E-01
RMM:   2    -0.951074615053E+02   -0.63386E-03   -0.79277E-03  5121   0.396E-01    0.613E-02
RMM:   3    -0.951074157053E+02    0.45800E-04   -0.40173E-04  3807   0.811E-02
  26 F= -.95107416E+02 E0= -.95108002E+02  d E =-.419003E-02
       N       E                     dE             d eps       ncg     rms          rms(c)
DAV:   1    -0.951097254157E+02   -0.22639E-02   -0.38783E+00  5136   0.109E+01    0.378E-01
RMM:   2    -0.951153756710E+02   -0.56503E-02   -0.71350E-02  5121   0.119E+00    0.179E-01
RMM:   3    -0.951149706333E+02    0.40504E-03   -0.38637E-03  5424   0.239E-01    0.117E-01
RMM:   4    -0.951147458288E+02    0.22480E-03   -0.13090E-03  5121   0.148E-01    0.239E-02
RMM:   5    -0.951147455833E+02    0.24547E-06   -0.26973E-05  3055   0.236E-02
  27 F= -.95114746E+02 E0= -.95115339E+02  d E =-.115199E-01
       N       E                     dE             d eps       ncg     rms          rms(c)
DAV:   1    -0.951154390590E+02   -0.69323E-03   -0.17420E-02  6128   0.740E-01    0.267E-02
RMM:   2    -0.951154549638E+02   -0.15905E-04   -0.22877E-04  3028   0.771E-02
  28 F= -.95115455E+02 E0= -.95116033E+02  d E =-.709381E-03
       N       E                     dE             d eps       ncg     rms          rms(c)
DAV:   1    -0.951159974127E+02   -0.55835E-03   -0.72934E-02  5328   0.151E+00    0.621E-02
RMM:   2    -0.951160635495E+02   -0.66137E-04   -0.10861E-03  5065   0.158E-01    0.462E-02
RMM:   3    -0.951160512088E+02    0.12341E-04   -0.13280E-04  3022   0.466E-02
  29 F= -.95116051E+02 E0= -.95116597E+02  d E =-.130563E-02
       N       E                     dE             d eps       ncg     rms          rms(c)
DAV:   1    -0.951165327375E+02   -0.46919E-03   -0.61827E-02  5280   0.138E+00    0.516E-02
RMM:   2    -0.951166329399E+02   -0.10020E-03   -0.11785E-03  4818   0.156E-01    0.233E-02
RMM:   3    -0.951166263119E+02    0.66279E-05   -0.47101E-05  2816   0.319E-02
  30 F= -.95116626E+02 E0= -.95117159E+02  d E =-.575103E-03
       N       E                     dE             d eps       ncg     rms          rms(c)
DAV:   1    -0.951170482755E+02   -0.41534E-03   -0.55142E-01  5152   0.413E+00    0.152E-01
RMM:   2    -0.951179232603E+02   -0.87498E-03   -0.10232E-02  5120   0.458E-01    0.646E-02
RMM:   3    -0.951178732134E+02    0.50047E-04   -0.47686E-04  3981   0.871E-02
  31 F= -.95117873E+02 E0= -.95118383E+02  d E =-.182200E-02
       N       E                     dE             d eps       ncg     rms          rms(c)
DAV:   1    -0.951181397415E+02   -0.21648E-03   -0.26648E-02  5968   0.892E-01    0.275E-02
RMM:   2    -0.951181539558E+02   -0.14214E-04   -0.42323E-04  3416   0.944E-02
  32 F= -.95118154E+02 E0= -.95118669E+02  d E =-.280742E-03
       N       E                     dE             d eps       ncg     rms          rms(c)
DAV:   1    -0.951181891954E+02   -0.49454E-04   -0.84565E-03  5568   0.506E-01    0.210E-02
RMM:   2    -0.951181893396E+02   -0.14417E-06   -0.14771E-04  2906   0.577E-02
  33 F= -.95118189E+02 E0= -.95118708E+02  d E =-.316126E-03
