 vasp.5.4.4.18Apr17-6-g9f103f2a35 (build Nov 01 2019 12:17:22) complex          
  
 executed on             LinuxIFC date 2023.05.19  18:18:47
 running on   16 total cores
 distrk:  each k-point on   16 cores,    1 groups
 distr:  one band on NCORES_PER_BAND=   4 cores,    4 groups


--------------------------------------------------------------------------------------------------------


 INCAR:
 POTCAR:    PAW_PBE N 08Apr2002                   
 POTCAR:    PAW_PBE Si 05Jan2001                  
 POTCAR:    PAW_PBE N 08Apr2002                   
   VRHFIN =N: s2p3                                                              
   LEXCH  = PE                                                                  
   EATOM  =   264.5486 eV,   19.4438 Ry                                         
                                                                                
   TITEL  = PAW_PBE N 08Apr2002                                                 
   LULTRA =        F    use ultrasoft PP ?                                      
   IUNSCR =        1    unscreen: 0-lin 1-nonlin 2-no                           
   RPACOR =    1.200    partial core radius                                     
   POMASS =   14.001; ZVAL   =    5.000    mass and valenz                      
   RCORE  =    1.500    outmost cutoff radius                                   
   RWIGS  =    1.400; RWIGS  =    0.741    wigner-seitz radius (au A)           
   ENMAX  =  400.000; ENMIN  =  300.000 eV                                      
   ICORE  =        2    local potential                                         
   LCOR   =        T    correct aug charges                                     
   LPAW   =        T    paw PP                                                  
   EAUG   =  627.112                                                            
   DEXC   =    0.000                                                            
   RMAX   =    1.529    core radius for proj-oper                               
   RAUG   =    1.300    factor for augmentation sphere                          
   RDEP   =    1.514    radius for radial grids                                 
   RDEPT  =    1.338    core radius for aug-charge                              
                                                                                
   Atomic configuration                                                         
    4 entries                                                                   
     n  l   j            E        occ.                                          
     1  0  0.50      -384.7179   2.0000                                         
     2  0  0.50       -18.5828   2.0000                                         
     2  1  0.50        -7.0898   3.0000                                         
     3  2  1.50        -6.8029   0.0000                                         
   Description                                                                  
     l       E           TYP  RCUT    TYP  RCUT                                 
     0    -18.5828119     23  1.200                                             
     0    -13.5018863     23  1.200                                             
     1     -7.0897853     23  1.500                                             
     1      9.5240782     23  1.500                                             
     2     -6.8029130      7  1.500                                             
  local pseudopotential read in
  partial core-charges read in
  partial kinetic energy density read in
  atomic valenz-charges read in
  non local Contribution for L=           0  read in
    real space projection operators read in
  non local Contribution for L=           0  read in
    real space projection operators read in
  non local Contribution for L=           1  read in
    real space projection operators read in
  non local Contribution for L=           1  read in
    real space projection operators read in
    PAW grid and wavefunctions read in
 
   number of l-projection  operators is LMAX  =           4
   number of lm-projection operators is LMMAX =           8
 
 POTCAR:    PAW_PBE Si 05Jan2001                  
   VRHFIN =Si: s2p2                                                             
   LEXCH  = PE                                                                  
   EATOM  =   103.0669 eV,    7.5752 Ry                                         
                                                                                
   TITEL  = PAW_PBE Si 05Jan2001                                                
   LULTRA =        F    use ultrasoft PP ?                                      
   IUNSCR =        1    unscreen: 0-lin 1-nonlin 2-no                           
   RPACOR =    1.500    partial core radius                                     
   POMASS =   28.085; ZVAL   =    4.000    mass and valenz                      
   RCORE  =    1.900    outmost cutoff radius                                   
   RWIGS  =    2.480; RWIGS  =    1.312    wigner-seitz radius (au A)           
   ENMAX  =  245.345; ENMIN  =  184.009 eV                                      
   ICORE  =        2    local potential                                         
   LCOR   =        T    correct aug charges                                     
   LPAW   =        T    paw PP                                                  
   EAUG   =  322.069                                                            
   DEXC   =    0.000                                                            
   RMAX   =    1.950    core radius for proj-oper                               
   RAUG   =    1.300    factor for augmentation sphere                          
   RDEP   =    1.993    radius for radial grids                                 
   RDEPT  =    1.837    core radius for aug-charge                              
                                                                                
   Atomic configuration                                                         
    6 entries                                                                   
     n  l   j            E        occ.                                          
     1  0  0.50     -1785.8828   2.0000                                         
     2  0  0.50      -139.4969   2.0000                                         
     2  1  1.50       -95.5546   6.0000                                         
     3  0  0.50       -10.8127   2.0000                                         
     3  1  0.50        -4.0811   2.0000                                         
     3  2  1.50        -4.0817   0.0000                                         
   Description                                                                  
     l       E           TYP  RCUT    TYP  RCUT                                 
     0    -10.8127223     23  1.900                                             
     0     -7.6451159     23  1.900                                             
     1     -4.0811372     23  1.900                                             
     1      2.4879257     23  1.900                                             
     2     -4.0817478      7  1.900                                             
  local pseudopotential read in
  partial core-charges read in
  partial kinetic energy density read in
  atomic valenz-charges read in
  non local Contribution for L=           0  read in
    real space projection operators read in
  non local Contribution for L=           0  read in
    real space projection operators read in
  non local Contribution for L=           1  read in
    real space projection operators read in
  non local Contribution for L=           1  read in
    real space projection operators read in
    PAW grid and wavefunctions read in
 
   number of l-projection  operators is LMAX  =           4
   number of lm-projection operators is LMMAX =           8
 
 Optimization of the real space projectors (new method)

 maximal supplied QI-value         = 25.13
 optimisation between [QCUT,QGAM] = [ 10.05, 20.36] = [ 28.30,116.06] Ry 
 Optimized for a Real-space Cutoff    1.70 Angstroem

   l    n(q)    QCUT    max X(q) W(low)/X(q) W(high)/X(q)  e(spline) 
   0     10    10.053    79.467    0.61E-04    0.98E-04    0.61E-06
   0     10    10.053    66.151    0.60E-04    0.98E-04    0.61E-06
   1     10    10.053     8.350    0.17E-03    0.71E-03    0.45E-05
   1     10    10.053     5.531    0.18E-03    0.77E-03    0.49E-05
 Optimization of the real space projectors (new method)

 maximal supplied QI-value         = 19.84
 optimisation between [QCUT,QGAM] = [ 10.12, 20.44] = [ 28.68,116.96] Ry 
 Optimized for a Real-space Cutoff    1.38 Angstroem

   l    n(q)    QCUT    max X(q) W(low)/X(q) W(high)/X(q)  e(spline) 
   0      8    10.119   159.560    0.58E-04    0.11E-03    0.54E-07
   0      8    10.119   115.863    0.56E-04    0.11E-03    0.54E-07
   1      8    10.119    88.339    0.22E-03    0.17E-03    0.19E-06
   1      8    10.119    48.592    0.22E-03    0.17E-03    0.18E-06
  PAW_PBE N 08Apr2002                   :
 energy of atom  1       EATOM= -264.5486
 kinetic energy error for atom=    0.0736 (will be added to EATOM!!)
  PAW_PBE Si 05Jan2001                  :
 energy of atom  2       EATOM= -103.0669
 kinetic energy error for atom=    0.0012 (will be added to EATOM!!)
 
 
 POSCAR: Si6 N8                                  
  positions in direct lattice
  No initial velocities read in
 exchange correlation table for  LEXCH =        8
   RHO(1)=    0.500       N(1)  =     2000
   RHO(2)=  100.500       N(2)  =     4000
 


--------------------------------------------------------------------------------------------------------


 ion  position               nearest neighbor table
   1  0.197  0.832  0.750-   9 1.88  10 1.88  10 1.88   7 2.16
   2  0.366  0.197  0.250-  10 1.88  12 1.88  12 1.88   8 2.16
   3  0.832  0.634  0.250-  11 1.88   9 1.88   9 1.88   8 2.16
   4  0.168  0.366  0.750-  12 1.88  13 1.88  13 1.88   7 2.16
   5  0.634  0.803  0.750-  14 1.88  11 1.88  11 1.88   7 2.16
   6  0.803  0.168  0.250-  13 1.88  14 1.88  14 1.88   8 2.16
   7  0.333  0.667  0.750-   5 2.16   4 2.16   1 2.16  11 2.80  11 2.80  13 2.80  13 2.80  10 2.80
                            10 2.80  12 2.86  14 2.86   9 2.86
   8  0.667  0.333  0.250-   2 2.16   3 2.16   6 2.16  12 2.80  12 2.80   9 2.80   9 2.80  14 2.80
                            14 2.80  11 2.86  10 2.86  13 2.86
   9  0.964  0.612  0.750-   1 1.88   3 1.88   3 1.88  13 2.66  13 2.66   8 2.80   8 2.80   7 2.86

  10  0.351  0.964  0.250-   2 1.88   1 1.88   1 1.88  14 2.66  14 2.66   7 2.80   7 2.80   8 2.86

  11  0.612  0.649  0.250-   3 1.88   5 1.88   5 1.88  12 2.66  12 2.66   7 2.80   7 2.80   8 2.86

  12  0.388  0.351  0.750-   4 1.88   2 1.88   2 1.88  11 2.66  11 2.66   8 2.80   8 2.80   7 2.86

  13  0.036  0.388  0.250-   6 1.88   4 1.88   4 1.88   9 2.66   9 2.66   7 2.80   7 2.80   8 2.86

  14  0.649  0.036  0.750-   5 1.88   6 1.88   6 1.88  10 2.66  10 2.66   8 2.80   8 2.80   7 2.86

 
  LATTYP: Found a hexagonal cell.
 ALAT       =     8.2805378839
 C/A-ratio  =     0.3517300815
  
  Lattice vectors:
  
 A1 = (   4.1402689473,  -7.1711561614,   0.0000000000)
 A2 = (   4.1402689366,   7.1711561676,   0.0000000000)
 A3 = (   0.0000000000,   0.0000000000,   2.9125142644)


Analysis of symmetry for initial positions (statically):
=====================================================================
 Subroutine PRICEL returns:
 Original cell was already a primitive cell.
 

 Routine SETGRP: Setting up the symmetry group for a 
 hexagonal supercell.


 Subroutine GETGRP returns: Found 12 space group operations
 (whereof  6 operations were pure point group operations)
 out of a pool of 24 trial point group operations.


The static configuration has the point symmetry S_6 .
 The point group associated with its full space group is C_6h.


Analysis of symmetry for dynamics (positions and initial velocities):
=====================================================================
 Subroutine PRICEL returns:
 Original cell was already a primitive cell.
 

 Routine SETGRP: Setting up the symmetry group for a 
 hexagonal supercell.


 Subroutine GETGRP returns: Found 12 space group operations
 (whereof  6 operations were pure point group operations)
 out of a pool of 24 trial point group operations.


The dynamic configuration has the point symmetry S_6 .
 The point group associated with its full space group is C_6h.


 Subroutine INISYM returns: Found 12 space group operations
 (whereof  6 operations are pure point group operations),
 and found     1 'primitive' translations

 
 
 KPOINTS: Automatic mesh                          

Automatic generation of k-mesh.
 generate k-points for:    6    6   15
Space group operators:
 irot       det(A)        alpha          n_x          n_y          n_z        tau_x        tau_y        tau_z
    1     1.000000     0.000000     1.000000     0.000000     0.000000     0.000000     0.000000     0.000000
    2    -1.000000     0.000000     1.000000     0.000000     0.000000     0.000000     0.000000     0.000000
    3     1.000000   120.000000     0.000000     0.000000    -1.000000     0.000000     0.000000     0.000000
    4    -1.000000   120.000000     0.000000     0.000000    -1.000000     0.000000     0.000000     0.000000
    5     1.000000   120.000000     0.000000     0.000000     1.000000     0.000000     0.000000     0.000000
    6    -1.000000   120.000000     0.000000     0.000000     1.000000     0.000000     0.000000     0.000000
    7     1.000000    60.000000     0.000000     0.000000    -1.000000     0.000000     0.000000     0.500000
    8    -1.000000    60.000000     0.000000     0.000000    -1.000000     0.000000     0.000000     0.500000
    9     1.000000   180.000000     0.000000     0.000000     1.000000     0.000000     0.000000     0.500000
   10    -1.000000   180.000000     0.000000     0.000000     1.000000     0.000000     0.000000     0.500000
   11     1.000000    60.000000     0.000000     0.000000     1.000000     0.000000     0.000000     0.500000
   12    -1.000000    60.000000     0.000000     0.000000     1.000000     0.000000     0.000000     0.500000
 
 Subroutine IBZKPT returns following result:
 ===========================================
 
 Found     64 irreducible k-points:
 
 Following reciprocal coordinates:
            Coordinates               Weight
  0.000000  0.000000  0.000000      1.000000
  0.166667  0.000000  0.000000      6.000000
  0.333333  0.000000  0.000000      6.000000
  0.500000  0.000000  0.000000      3.000000
  0.166667  0.166667  0.000000      6.000000
  0.333333  0.166667  0.000000      6.000000
  0.500000  0.166667  0.000000      6.000000
  0.333333  0.333333  0.000000      2.000000
  0.000000  0.000000  0.066667      2.000000
  0.166667  0.000000  0.066667     12.000000
  0.333333  0.000000  0.066667     12.000000
  0.500000  0.000000  0.066667      6.000000
  0.166667  0.166667  0.066667     12.000000
  0.333333  0.166667  0.066667     12.000000
  0.500000  0.166667  0.066667     12.000000
  0.333333  0.333333  0.066667      4.000000
  0.000000  0.000000  0.133333      2.000000
  0.166667  0.000000  0.133333     12.000000
  0.333333  0.000000  0.133333     12.000000
  0.500000  0.000000  0.133333      6.000000
  0.166667  0.166667  0.133333     12.000000
  0.333333  0.166667  0.133333     12.000000
  0.500000  0.166667  0.133333     12.000000
  0.333333  0.333333  0.133333      4.000000
  0.000000  0.000000  0.200000      2.000000
  0.166667  0.000000  0.200000     12.000000
  0.333333  0.000000  0.200000     12.000000
  0.500000  0.000000  0.200000      6.000000
  0.166667  0.166667  0.200000     12.000000
  0.333333  0.166667  0.200000     12.000000
  0.500000  0.166667  0.200000     12.000000
  0.333333  0.333333  0.200000      4.000000
  0.000000  0.000000  0.266667      2.000000
  0.166667  0.000000  0.266667     12.000000
  0.333333  0.000000  0.266667     12.000000
  0.500000  0.000000  0.266667      6.000000
  0.166667  0.166667  0.266667     12.000000
  0.333333  0.166667  0.266667     12.000000
  0.500000  0.166667  0.266667     12.000000
  0.333333  0.333333  0.266667      4.000000
  0.000000  0.000000  0.333333      2.000000
  0.166667  0.000000  0.333333     12.000000
  0.333333  0.000000  0.333333     12.000000
  0.500000  0.000000  0.333333      6.000000
  0.166667  0.166667  0.333333     12.000000
  0.333333  0.166667  0.333333     12.000000
  0.500000  0.166667  0.333333     12.000000
  0.333333  0.333333  0.333333      4.000000
  0.000000  0.000000  0.400000      2.000000
  0.166667  0.000000  0.400000     12.000000
  0.333333  0.000000  0.400000     12.000000
  0.500000  0.000000  0.400000      6.000000
  0.166667  0.166667  0.400000     12.000000
  0.333333  0.166667  0.400000     12.000000
  0.500000  0.166667  0.400000     12.000000
  0.333333  0.333333  0.400000      4.000000
  0.000000  0.000000  0.466667      2.000000
  0.166667  0.000000  0.466667     12.000000
  0.333333  0.000000  0.466667     12.000000
  0.500000  0.000000  0.466667      6.000000
  0.166667  0.166667  0.466667     12.000000
  0.333333  0.166667  0.466667     12.000000
  0.500000  0.166667  0.466667     12.000000
  0.333333  0.333333  0.466667      4.000000
 
 Following cartesian coordinates:
            Coordinates               Weight
  0.000000  0.000000  0.000000      1.000000
  0.020128 -0.011621  0.000000      6.000000
  0.040255 -0.023241  0.000000      6.000000
  0.060383 -0.034862  0.000000      3.000000
  0.040255  0.000000  0.000000      6.000000
  0.060383 -0.011621  0.000000      6.000000
  0.080510 -0.023241  0.000000      6.000000
  0.080510  0.000000  0.000000      2.000000
  0.000000  0.000000  0.022890      2.000000
  0.020128 -0.011621  0.022890     12.000000
  0.040255 -0.023241  0.022890     12.000000
  0.060383 -0.034862  0.022890      6.000000
  0.040255  0.000000  0.022890     12.000000
  0.060383 -0.011621  0.022890     12.000000
  0.080510 -0.023241  0.022890     12.000000
  0.080510  0.000000  0.022890      4.000000
  0.000000  0.000000  0.045779      2.000000
  0.020128 -0.011621  0.045779     12.000000
  0.040255 -0.023241  0.045779     12.000000
  0.060383 -0.034862  0.045779      6.000000
  0.040255  0.000000  0.045779     12.000000
  0.060383 -0.011621  0.045779     12.000000
  0.080510 -0.023241  0.045779     12.000000
  0.080510  0.000000  0.045779      4.000000
  0.000000  0.000000  0.068669      2.000000
  0.020128 -0.011621  0.068669     12.000000
  0.040255 -0.023241  0.068669     12.000000
  0.060383 -0.034862  0.068669      6.000000
  0.040255  0.000000  0.068669     12.000000
  0.060383 -0.011621  0.068669     12.000000
  0.080510 -0.023241  0.068669     12.000000
  0.080510  0.000000  0.068669      4.000000
  0.000000  0.000000  0.091559      2.000000
  0.020128 -0.011621  0.091559     12.000000
  0.040255 -0.023241  0.091559     12.000000
  0.060383 -0.034862  0.091559      6.000000
  0.040255  0.000000  0.091559     12.000000
  0.060383 -0.011621  0.091559     12.000000
  0.080510 -0.023241  0.091559     12.000000
  0.080510  0.000000  0.091559      4.000000
  0.000000  0.000000  0.114449      2.000000
  0.020128 -0.011621  0.114449     12.000000
  0.040255 -0.023241  0.114449     12.000000
  0.060383 -0.034862  0.114449      6.000000
  0.040255  0.000000  0.114449     12.000000
  0.060383 -0.011621  0.114449     12.000000
  0.080510 -0.023241  0.114449     12.000000
  0.080510  0.000000  0.114449      4.000000
  0.000000  0.000000  0.137338      2.000000
  0.020128 -0.011621  0.137338     12.000000
  0.040255 -0.023241  0.137338     12.000000
  0.060383 -0.034862  0.137338      6.000000
  0.040255  0.000000  0.137338     12.000000
  0.060383 -0.011621  0.137338     12.000000
  0.080510 -0.023241  0.137338     12.000000
  0.080510  0.000000  0.137338      4.000000
  0.000000  0.000000  0.160228      2.000000
  0.020128 -0.011621  0.160228     12.000000
  0.040255 -0.023241  0.160228     12.000000
  0.060383 -0.034862  0.160228      6.000000
  0.040255  0.000000  0.160228     12.000000
  0.060383 -0.011621  0.160228     12.000000
  0.080510 -0.023241  0.160228     12.000000
  0.080510  0.000000  0.160228      4.000000
 


--------------------------------------------------------------------------------------------------------




 Dimension of arrays:
   k-points           NKPTS =     64   k-points in BZ     NKDIM =     64   number of bands    NBANDS=     40
   number of dos      NEDOS =    301   number of ions     NIONS =     14
   non local maximal  LDIM  =      4   non local SUM 2l+1 LMDIM =      8
   total plane-waves  NPLWV =  58320
   max r-space proj   IRMAX =   6963   max aug-charges    IRDMAX=  11473
   dimension x,y,z NGX =    54 NGY =   54 NGZ =   20
   dimension x,y,z NGXF=   108 NGYF=  108 NGZF=   40
   support grid    NGXF=   108 NGYF=  108 NGZF=   40
   ions per type =               6   8
   NGX,Y,Z   is equivalent  to a cutoff of  10.84, 10.84, 11.42 a.u.
   NGXF,Y,Z  is equivalent  to a cutoff of  21.68, 21.68, 22.83 a.u.

 SYSTEM =  unknown system                          
 POSCAR =  Si6 N8                                  

 Startparameter for this run:
   NWRITE =      2    write-flag & timer
   PREC   = accura    normal or accurate (medium, high low for compatibility)
   ISTART =      0    job   : 0-new  1-cont  2-samecut
   ICHARG =      2    charge: 1-file 2-atom 10-const
   ISPIN  =      1    spin polarized calculation?
   LNONCOLLINEAR =      F non collinear calculations
   LSORBIT =      F    spin-orbit coupling
   INIWAV =      1    electr: 0-lowe 1-rand  2-diag
   LASPH  =      F    aspherical Exc in radial PAW
   METAGGA=      F    non-selfconsistent MetaGGA calc.

 Electronic Relaxation 1
   ENCUT  =  400.0 eV  29.40 Ry    5.42 a.u.  13.50 13.50  4.75*2*pi/ulx,y,z
   ENINI  =  400.0     initial cutoff
   ENAUG  =  627.1 eV  augmentation charge cutoff
   NELM   =     60;   NELMIN=  2; NELMDL= -5     # of ELM steps 
   EDIFF  = 0.1E-03   stopping-criterion for ELM
   LREAL  =      T    real-space projection
   NLSPLINE    = F    spline interpolate recip. space projectors
   LCOMPAT=      F    compatible to vasp.4.4
   GGA_COMPAT  = T    GGA compatible to vasp.4.4-vasp.4.6
   LMAXPAW     = -100 max onsite density
   LMAXMIX     =    2 max onsite mixed and CHGCAR
   VOSKOWN=      0    Vosko Wilk Nusair interpolation
   ROPT   =   -0.00025  -0.00025
 Ionic relaxation
   EDIFFG = 0.1E-02   stopping-criterion for IOM
   NSW    =    100    number of steps for IOM
   NBLOCK =      1;   KBLOCK =    100    inner block; outer block 
   IBRION =      2    ionic relax: 0-MD 1-quasi-New 2-CG
   NFREE  =      1    steps in history (QN), initial steepest desc. (CG)
   ISIF   =      2    stress and relaxation
   IWAVPR =     11    prediction:  0-non 1-charg 2-wave 3-comb
   ISYM   =      2    0-nonsym 1-usesym 2-fastsym
   LCORR  =      T    Harris-Foulkes like correction to forces

   POTIM  = 0.5000    time-step for ionic-motion
   TEIN   =    0.0    initial temperature
   TEBEG  =    0.0;   TEEND  =   0.0 temperature during run
   SMASS  =  -3.00    Nose mass-parameter (am)
   estimated Nose-frequenzy (Omega)   =  0.10E-29 period in steps =****** mass=  -0.157E-26a.u.
   SCALEE = 1.0000    scale energy and forces
   NPACO  =    256;   APACO  = 16.0  distance and # of slots for P.C.
   PSTRESS=    0.0 pullay stress

  Mass of Ions in am
   POMASS =  14.00 28.09
  Ionic Valenz
   ZVAL   =   5.00  4.00
  Atomic Wigner-Seitz radii
   RWIGS  =  -1.00 -1.00
  virtual crystal weights 
   VCA    =   1.00  1.00
   NELECT =      62.0000    total number of electrons
   NUPDOWN=      -1.0000    fix difference up-down

 DOS related values:
   EMIN   =  10.00;   EMAX   =-10.00  energy-range for DOS
   EFERMI =   0.00
   ISMEAR =     2;   SIGMA  =   0.10  broadening in eV -4-tet -1-fermi 0-gaus

 Electronic relaxation 2 (details)
   IALGO  =     68    algorithm
   LDIAG  =      T    sub-space diagonalisation (order eigenvalues)
   LSUBROT=      F    optimize rotation matrix (better conditioning)
   TURBO    =      0    0=normal 1=particle mesh
   IRESTART =      0    0=no restart 2=restart with 2 vectors
   NREBOOT  =      0    no. of reboots
   NMIN     =      0    reboot dimension
   EREF     =   0.00    reference energy to select bands
   IMIX   =      4    mixing-type and parameters
     AMIX     =   0.40;   BMIX     =  1.00
     AMIX_MAG =   1.60;   BMIX_MAG =  1.00
     AMIN     =   0.10
     WC   =   100.;   INIMIX=   1;  MIXPRE=   1;  MAXMIX= -45

 Intra band minimization:
   WEIMIN = 0.0010     energy-eigenvalue tresh-hold
   EBREAK =  0.63E-06  absolut break condition
   DEPER  =   0.30     relativ break condition  

   TIME   =   0.40     timestep for ELM

  volume/ion in A,a.u.               =      12.35        83.37
  Fermi-wavevector in a.u.,A,eV,Ry     =   1.162965  2.197686 18.401724  1.352489
  Thomas-Fermi vector in A             =   2.299521
 
 Write flags
   LWAVE        =      F    write WAVECAR
   LDOWNSAMPLE  =      F    k-point downsampling of WAVECAR
   LCHARG       =      F    write CHGCAR
   LVTOT        =      F    write LOCPOT, total local potential
   LVHAR        =      F    write LOCPOT, Hartree potential only
   LELF         =      F    write electronic localiz. function (ELF)
   LORBIT       =      0    0 simple, 1 ext, 2 COOP (PROOUT), +10 PAW based schemes


 Dipole corrections
   LMONO  =      F    monopole corrections only (constant potential shift)
   LDIPOL =      F    correct potential (dipole corrections)
   IDIPOL =      0    1-x, 2-y, 3-z, 4-all directions 
   EPSILON=  1.0000000 bulk dielectric constant

 Exchange correlation treatment:
   GGA     =    --    GGA type
   LEXCH   =     8    internal setting for exchange type
   VOSKOWN=      0    Vosko Wilk Nusair interpolation
   LHFCALC =     F    Hartree Fock is set to
   LHFONE  =     F    Hartree Fock one center treatment
   AEXX    =    0.0000 exact exchange contribution

 Linear response parameters
   LEPSILON=     F    determine dielectric tensor
   LRPA    =     F    only Hartree local field effects (RPA)
   LNABLA  =     F    use nabla operator in PAW spheres
   LVEL    =     F    velocity operator in full k-point grid
   LINTERFAST=   F  fast interpolation
   KINTER  =     0    interpolate to denser k-point grid
   CSHIFT  =0.1000    complex shift for real part using Kramers Kronig
   OMEGAMAX=  -1.0    maximum frequency
   DEG_THRESHOLD= 0.2000000E-02 threshold for treating states as degnerate
   RTIME   =   -0.100 relaxation time in fs
  (WPLASMAI=    0.000 imaginary part of plasma frequency in eV, 0.658/RTIME)
   DFIELD  = 0.0000000 0.0000000 0.0000000 field for delta impulse in time
 
 Orbital magnetization related:
   ORBITALMAG=     F  switch on orbital magnetization
   LCHIMAG   =     F  perturbation theory with respect to B field
   DQ        =  0.001000  dq finite difference perturbation B field
   LLRAUG    =     F  two centre corrections for induced B field



--------------------------------------------------------------------------------------------------------


 conjugate gradient relaxation of ions
 charge density and potential will be updated during run
 non-spin polarized calculation
 RMM-DIIS sequential band-by-band and
  variant of blocked Davidson during initial phase
 perform sub-space diagonalisation
    before iterative eigenvector-optimisation
 modified Broyden-mixing scheme, WC =      100.0
 initial mixing is a Kerker type mixing with AMIX =  0.4000 and BMIX =      1.0000
 Hartree-type preconditioning will be used
 using additional bands            9
 real space projection scheme for non local part
 use partial core corrections
 calculate Harris-corrections to forces 
   (improved forces if not selfconsistent)
 use gradient corrections 
 use of overlap-Matrix (Vanderbilt PP)
 Methfessel and Paxton  Order N= 2 SIGMA  =   0.10


--------------------------------------------------------------------------------------------------------


  energy-cutoff  :      400.00
  volume of cell :      172.95
      direct lattice vectors                 reciprocal lattice vectors
     4.140268947 -7.171156161  0.000000000     0.120765102 -0.069723764  0.000000000
     4.140268937  7.171156168  0.000000000     0.120765102  0.069723764  0.000000000
     0.000000000  0.000000000  2.912514264     0.000000000  0.000000000  0.343345958

  length of vectors
     8.280537884  8.280537884  2.912514264     0.139447528  0.139447528  0.343345958


 
 k-points in units of 2pi/SCALE and weight: Automatic mesh                          
   0.00000000  0.00000000  0.00000000       0.002
   0.02012752 -0.01162063  0.00000000       0.011
   0.04025503 -0.02324125  0.00000000       0.011
   0.06038255 -0.03486188  0.00000000       0.006
   0.04025503  0.00000000  0.00000000       0.011
   0.06038255 -0.01162063  0.00000000       0.011
   0.08051007 -0.02324125  0.00000000       0.011
   0.08051007  0.00000000  0.00000000       0.004
   0.00000000  0.00000000  0.02288973       0.004
   0.02012752 -0.01162063  0.02288973       0.022
   0.04025503 -0.02324125  0.02288973       0.022
   0.06038255 -0.03486188  0.02288973       0.011
   0.04025503  0.00000000  0.02288973       0.022
   0.06038255 -0.01162063  0.02288973       0.022
   0.08051007 -0.02324125  0.02288973       0.022
   0.08051007  0.00000000  0.02288973       0.007
   0.00000000  0.00000000  0.04577946       0.004
   0.02012752 -0.01162063  0.04577946       0.022
   0.04025503 -0.02324125  0.04577946       0.022
   0.06038255 -0.03486188  0.04577946       0.011
   0.04025503  0.00000000  0.04577946       0.022
   0.06038255 -0.01162063  0.04577946       0.022
   0.08051007 -0.02324125  0.04577946       0.022
   0.08051007  0.00000000  0.04577946       0.007
   0.00000000  0.00000000  0.06866919       0.004
   0.02012752 -0.01162063  0.06866919       0.022
   0.04025503 -0.02324125  0.06866919       0.022
   0.06038255 -0.03486188  0.06866919       0.011
   0.04025503  0.00000000  0.06866919       0.022
   0.06038255 -0.01162063  0.06866919       0.022
   0.08051007 -0.02324125  0.06866919       0.022
   0.08051007  0.00000000  0.06866919       0.007
   0.00000000  0.00000000  0.09155892       0.004
   0.02012752 -0.01162063  0.09155892       0.022
   0.04025503 -0.02324125  0.09155892       0.022
   0.06038255 -0.03486188  0.09155892       0.011
   0.04025503  0.00000000  0.09155892       0.022
   0.06038255 -0.01162063  0.09155892       0.022
   0.08051007 -0.02324125  0.09155892       0.022
   0.08051007  0.00000000  0.09155892       0.007
   0.00000000  0.00000000  0.11444865       0.004
   0.02012752 -0.01162063  0.11444865       0.022
   0.04025503 -0.02324125  0.11444865       0.022
   0.06038255 -0.03486188  0.11444865       0.011
   0.04025503  0.00000000  0.11444865       0.022
   0.06038255 -0.01162063  0.11444865       0.022
   0.08051007 -0.02324125  0.11444865       0.022
   0.08051007  0.00000000  0.11444865       0.007
   0.00000000  0.00000000  0.13733838       0.004
   0.02012752 -0.01162063  0.13733838       0.022
   0.04025503 -0.02324125  0.13733838       0.022
   0.06038255 -0.03486188  0.13733838       0.011
   0.04025503  0.00000000  0.13733838       0.022
   0.06038255 -0.01162063  0.13733838       0.022
   0.08051007 -0.02324125  0.13733838       0.022
   0.08051007  0.00000000  0.13733838       0.007
   0.00000000  0.00000000  0.16022811       0.004
   0.02012752 -0.01162063  0.16022811       0.022
   0.04025503 -0.02324125  0.16022811       0.022
   0.06038255 -0.03486188  0.16022811       0.011
   0.04025503  0.00000000  0.16022811       0.022
   0.06038255 -0.01162063  0.16022811       0.022
   0.08051007 -0.02324125  0.16022811       0.022
   0.08051007  0.00000000  0.16022811       0.007
 
 k-points in reciprocal lattice and weights: Automatic mesh                          
   0.00000000  0.00000000  0.00000000       0.002
   0.16666667  0.00000000  0.00000000       0.011
   0.33333333  0.00000000  0.00000000       0.011
   0.50000000  0.00000000  0.00000000       0.006
   0.16666667  0.16666667  0.00000000       0.011
   0.33333333  0.16666667  0.00000000       0.011
   0.50000000  0.16666667  0.00000000       0.011
   0.33333333  0.33333333  0.00000000       0.004
   0.00000000  0.00000000  0.06666667       0.004
   0.16666667  0.00000000  0.06666667       0.022
   0.33333333  0.00000000  0.06666667       0.022
   0.50000000  0.00000000  0.06666667       0.011
   0.16666667  0.16666667  0.06666667       0.022
   0.33333333  0.16666667  0.06666667       0.022
   0.50000000  0.16666667  0.06666667       0.022
   0.33333333  0.33333333  0.06666667       0.007
   0.00000000  0.00000000  0.13333333       0.004
   0.16666667  0.00000000  0.13333333       0.022
   0.33333333  0.00000000  0.13333333       0.022
   0.50000000  0.00000000  0.13333333       0.011
   0.16666667  0.16666667  0.13333333       0.022
   0.33333333  0.16666667  0.13333333       0.022
   0.50000000  0.16666667  0.13333333       0.022
   0.33333333  0.33333333  0.13333333       0.007
   0.00000000  0.00000000  0.20000000       0.004
   0.16666667  0.00000000  0.20000000       0.022
   0.33333333  0.00000000  0.20000000       0.022
   0.50000000  0.00000000  0.20000000       0.011
   0.16666667  0.16666667  0.20000000       0.022
   0.33333333  0.16666667  0.20000000       0.022
   0.50000000  0.16666667  0.20000000       0.022
   0.33333333  0.33333333  0.20000000       0.007
   0.00000000  0.00000000  0.26666667       0.004
   0.16666667  0.00000000  0.26666667       0.022
   0.33333333  0.00000000  0.26666667       0.022
   0.50000000  0.00000000  0.26666667       0.011
   0.16666667  0.16666667  0.26666667       0.022
   0.33333333  0.16666667  0.26666667       0.022
   0.50000000  0.16666667  0.26666667       0.022
   0.33333333  0.33333333  0.26666667       0.007
   0.00000000  0.00000000  0.33333333       0.004
   0.16666667  0.00000000  0.33333333       0.022
   0.33333333  0.00000000  0.33333333       0.022
   0.50000000  0.00000000  0.33333333       0.011
   0.16666667  0.16666667  0.33333333       0.022
   0.33333333  0.16666667  0.33333333       0.022
   0.50000000  0.16666667  0.33333333       0.022
   0.33333333  0.33333333  0.33333333       0.007
   0.00000000  0.00000000  0.40000000       0.004
   0.16666667  0.00000000  0.40000000       0.022
   0.33333333  0.00000000  0.40000000       0.022
   0.50000000  0.00000000  0.40000000       0.011
   0.16666667  0.16666667  0.40000000       0.022
   0.33333333  0.16666667  0.40000000       0.022
   0.50000000  0.16666667  0.40000000       0.022
   0.33333333  0.33333333  0.40000000       0.007
   0.00000000  0.00000000  0.46666667       0.004
   0.16666667  0.00000000  0.46666667       0.022
   0.33333333  0.00000000  0.46666667       0.022
   0.50000000  0.00000000  0.46666667       0.011
   0.16666667  0.16666667  0.46666667       0.022
   0.33333333  0.16666667  0.46666667       0.022
   0.50000000  0.16666667  0.46666667       0.022
   0.33333333  0.33333333  0.46666667       0.007
 
 position of ions in fractional coordinates (direct lattice) 
   0.19708959  0.83151770  0.75000000
   0.36557189  0.19708959  0.25000000
   0.83151770  0.63442811  0.25000000
   0.16848230  0.36557189  0.75000000
   0.63442811  0.80291041  0.75000000
   0.80291041  0.16848230  0.25000000
   0.33333333  0.66666667  0.75000000
   0.66666667  0.33333333  0.25000000
   0.96358754  0.61246345  0.75000000
   0.35112409  0.96358754  0.25000000
   0.61246345  0.64887591  0.25000000
   0.38753655  0.35112409  0.75000000
   0.03641246  0.38753655  0.25000000
   0.64887591  0.03641246  0.75000000
 
 position of ions in cartesian coordinates  (Angst):
   4.25871083  4.54958306  2.18438570
   2.32956986 -1.20821286  0.72812857
   6.06940992 -1.41336024  0.72812857
   2.21112796  1.41336025  2.18438570
   5.95096802  1.20821287  2.18438570
   4.02182705 -4.54958305  0.72812857
   4.14026894  2.39038539  2.18438570
   4.14026894 -2.39038539  0.72812857
   6.52527497 -2.51796569  2.18438570
   5.44325973  4.39207105  0.72812857
   5.22228417  0.26111943  0.72812857
   3.05825371 -0.26111943  2.18438570
   1.75526291  2.51796569  0.72812857
   2.83727815 -4.39207104  2.18438570
 


--------------------------------------------------------------------------------------------------------


 k-point  1 :   0.0000 0.0000 0.0000  plane waves:    3195
 k-point  2 :   0.1667 0.0000 0.0000  plane waves:    3171
 k-point  3 :   0.3333 0.0000 0.0000  plane waves:    3144
 k-point  4 :   0.5000 0.0000 0.0000  plane waves:    3130
 k-point  5 :   0.1667 0.1667 0.0000  plane waves:    3149
 k-point  6 :   0.3333 0.1667 0.0000  plane waves:    3137
 k-point  7 :   0.5000 0.1667 0.0000  plane waves:    3137
 k-point  8 :   0.3333 0.3333 0.0000  plane waves:    3126
 k-point  9 :   0.0000 0.0000 0.0667  plane waves:    3153
 k-point 10 :   0.1667 0.0000 0.0667  plane waves:    3157
 k-point 11 :   0.3333 0.0000 0.0667  plane waves:    3144
 k-point 12 :   0.5000 0.0000 0.0667  plane waves:    3142
 k-point 13 :   0.1667 0.1667 0.0667  plane waves:    3141
 k-point 14 :   0.3333 0.1667 0.0667  plane waves:    3138
 k-point 15 :   0.5000 0.1667 0.0667  plane waves:    3138
 k-point 16 :   0.3333 0.3333 0.0667  plane waves:    3129
 k-point 17 :   0.0000 0.0000 0.1333  plane waves:    3135
 k-point 18 :   0.1667 0.0000 0.1333  plane waves:    3147
 k-point 19 :   0.3333 0.0000 0.1333  plane waves:    3147
 k-point 20 :   0.5000 0.0000 0.1333  plane waves:    3136
 k-point 21 :   0.1667 0.1667 0.1333  plane waves:    3138
 k-point 22 :   0.3333 0.1667 0.1333  plane waves:    3137
 k-point 23 :   0.5000 0.1667 0.1333  plane waves:    3137
 k-point 24 :   0.3333 0.3333 0.1333  plane waves:    3141
 k-point 25 :   0.0000 0.0000 0.2000  plane waves:    3123
 k-point 26 :   0.1667 0.0000 0.2000  plane waves:    3136
 k-point 27 :   0.3333 0.0000 0.2000  plane waves:    3135
 k-point 28 :   0.5000 0.0000 0.2000  plane waves:    3128
 k-point 29 :   0.1667 0.1667 0.2000  plane waves:    3145
 k-point 30 :   0.3333 0.1667 0.2000  plane waves:    3135
 k-point 31 :   0.5000 0.1667 0.2000  plane waves:    3135
 k-point 32 :   0.3333 0.3333 0.2000  plane waves:    3129
 k-point 33 :   0.0000 0.0000 0.2667  plane waves:    3154
 k-point 34 :   0.1667 0.0000 0.2667  plane waves:    3133
 k-point 35 :   0.3333 0.0000 0.2667  plane waves:    3135
 k-point 36 :   0.5000 0.0000 0.2667  plane waves:    3126
 k-point 37 :   0.1667 0.1667 0.2667  plane waves:    3135
 k-point 38 :   0.3333 0.1667 0.2667  plane waves:    3137
 k-point 39 :   0.5000 0.1667 0.2667  plane waves:    3137
 k-point 40 :   0.3333 0.3333 0.2667  plane waves:    3135
 k-point 41 :   0.0000 0.0000 0.3333  plane waves:    3166
 k-point 42 :   0.1667 0.0000 0.3333  plane waves:    3141
 k-point 43 :   0.3333 0.0000 0.3333  plane waves:    3135
 k-point 44 :   0.5000 0.0000 0.3333  plane waves:    3130
 k-point 45 :   0.1667 0.1667 0.3333  plane waves:    3141
 k-point 46 :   0.3333 0.1667 0.3333  plane waves:    3144
 k-point 47 :   0.5000 0.1667 0.3333  plane waves:    3144
 k-point 48 :   0.3333 0.3333 0.3333  plane waves:    3126
 k-point 49 :   0.0000 0.0000 0.4000  plane waves:    3160
 k-point 50 :   0.1667 0.0000 0.4000  plane waves:    3146
 k-point 51 :   0.3333 0.0000 0.4000  plane waves:    3138
 k-point 52 :   0.5000 0.0000 0.4000  plane waves:    3138
 k-point 53 :   0.1667 0.1667 0.4000  plane waves:    3146
 k-point 54 :   0.3333 0.1667 0.4000  plane waves:    3142
 k-point 55 :   0.5000 0.1667 0.4000  plane waves:    3142
 k-point 56 :   0.3333 0.3333 0.4000  plane waves:    3153
 k-point 57 :   0.0000 0.0000 0.4667  plane waves:    3154
 k-point 58 :   0.1667 0.0000 0.4667  plane waves:    3148
 k-point 59 :   0.3333 0.0000 0.4667  plane waves:    3149
 k-point 60 :   0.5000 0.0000 0.4667  plane waves:    3138
 k-point 61 :   0.1667 0.1667 0.4667  plane waves:    3149
 k-point 62 :   0.3333 0.1667 0.4667  plane waves:    3146
 k-point 63 :   0.5000 0.1667 0.4667  plane waves:    3146
 k-point 64 :   0.3333 0.3333 0.4667  plane waves:    3144

 maximum and minimum number of plane-waves per node :       820      748

 maximum number of plane-waves:      3195
 maximum index in each direction: 
   IXMAX=   13   IYMAX=   13   IZMAX=    4
   IXMIN=  -14   IYMIN=  -13   IZMIN=   -5


 real space projection operators:
  total allocation   :       4310.75 KBytes
  max/ min on nodes  :       1113.00       1042.25


 parallel 3D FFT for wavefunctions:
    minimum data exchange during FFTs selected (reduces bandwidth)
 parallel 3D FFT for charge:
    minimum data exchange during FFTs selected (reduces bandwidth)


 total amount of memory used by VASP MPI-rank0    45272. kBytes
=======================================================================

   base      :      30000. kBytes
   nonlr-proj:       3021. kBytes
   fftplans  :       1514. kBytes
   grid      :       2370. kBytes
   one-center:         12. kBytes
   wavefun   :       8355. kBytes
 
     INWAV:  cpu time    0.0000: real time    0.0000
 Broyden mixing: mesh for mixing (old mesh)
   NGX = 27   NGY = 27   NGZ =  9
  (NGX  =108   NGY  =108   NGZ  = 40)
  gives a total of   6561 points

 initial charge density was supplied:
 charge density of overlapping atoms calculated
 number of electron      62.0000000 magnetization 
 keeping initial charge density in first step


--------------------------------------------------------------------------------------------------------


 Maximum index for non-local projection operator         1797
 Maximum index for augmentation-charges          900 (set IRDMAX)


--------------------------------------------------------------------------------------------------------


 First call to EWALD:  gamma=   0.318
 Maximum number of real-space cells 2x 2x 5
 Maximum number of reciprocal cells 4x 4x 2

    FEWALD:  cpu time    0.0017: real time    0.0017


--------------------------------------- Iteration      1(   1)  ---------------------------------------


    POTLOK:  cpu time    0.0270: real time    0.0307
    SETDIJ:  cpu time    0.0023: real time    0.0023
     EDDAV:  cpu time    2.5402: real time    2.5403
       DOS:  cpu time    0.0023: real time    0.0023
    --------------------------------------------
      LOOP:  cpu time    2.5718: real time    2.5756

 eigenvalue-minimisations  :  5128
 total energy-change (2. order) : 0.2267560E+03  (-0.2492322E+04)
 number of electron      62.0000000 magnetization 
 augmentation part       62.0000000 magnetization 

 Free energy of the ion-electron system (eV)
  ---------------------------------------------------
  alpha Z        PSCENC =        70.48663321
  Ewald energy   TEWEN  =     -2159.71658403
  -Hartree energ DENC   =      -537.15835092
  -exchange      EXHF   =         0.00000000
  -V(xc)+E(xc)   XCENC  =        48.84175040
  PAW double counting   =      1934.58678659    -1800.98643654
  entropy T*S    EENTRO =        -0.00085647
  eigenvalues    EBANDS =       259.32704303
  atomic energy  EATOM  =      2411.37598431
  Solvation  Ediel_sol  =         0.00000000
  ---------------------------------------------------
  free energy    TOTEN  =       226.75596959 eV

  energy without entropy =      226.75682605  energy(sigma->0) =      226.75618371


--------------------------------------------------------------------------------------------------------




--------------------------------------- Iteration      1(   2)  ---------------------------------------


     EDDAV:  cpu time    3.0529: real time    3.0548
       DOS:  cpu time    0.0026: real time    0.0026
    --------------------------------------------
      LOOP:  cpu time    3.0555: real time    3.0574

 eigenvalue-minimisations  :  6464
 total energy-change (2. order) :-0.3053867E+03  (-0.2920782E+03)
 number of electron      62.0000000 magnetization 
 augmentation part       62.0000000 magnetization 

 Free energy of the ion-electron system (eV)
  ---------------------------------------------------
  alpha Z        PSCENC =        70.48663321
  Ewald energy   TEWEN  =     -2159.71658403
  -Hartree energ DENC   =      -537.15835092
  -exchange      EXHF   =         0.00000000
  -V(xc)+E(xc)   XCENC  =        48.84175040
  PAW double counting   =      1934.58678659    -1800.98643654
  entropy T*S    EENTRO =        -0.00028428
  eigenvalues    EBANDS =       -46.06024871
  atomic energy  EATOM  =      2411.37598431
  Solvation  Ediel_sol  =         0.00000000
  ---------------------------------------------------
  free energy    TOTEN  =       -78.63074997 eV

  energy without entropy =      -78.63046569  energy(sigma->0) =      -78.63067890


--------------------------------------------------------------------------------------------------------




--------------------------------------- Iteration      1(   3)  ---------------------------------------


     EDDAV:  cpu time    3.0662: real time    3.0688
       DOS:  cpu time    0.0025: real time    0.0025
    --------------------------------------------
      LOOP:  cpu time    3.0686: real time    3.0713

 eigenvalue-minimisations  :  6504
 total energy-change (2. order) :-0.2407453E+02  (-0.2353604E+02)
 number of electron      62.0000000 magnetization 
 augmentation part       62.0000000 magnetization 

 Free energy of the ion-electron system (eV)
  ---------------------------------------------------
  alpha Z        PSCENC =        70.48663321
  Ewald energy   TEWEN  =     -2159.71658403
  -Hartree energ DENC   =      -537.15835092
  -exchange      EXHF   =         0.00000000
  -V(xc)+E(xc)   XCENC  =        48.84175040
  PAW double counting   =      1934.58678659    -1800.98643654
  entropy T*S    EENTRO =        -0.00185286
  eigenvalues    EBANDS =       -70.13321069
  atomic energy  EATOM  =      2411.37598431
  Solvation  Ediel_sol  =         0.00000000
  ---------------------------------------------------
  free energy    TOTEN  =      -102.70528052 eV

  energy without entropy =     -102.70342766  energy(sigma->0) =     -102.70481731


--------------------------------------------------------------------------------------------------------




--------------------------------------- Iteration      1(   4)  ---------------------------------------


     EDDAV:  cpu time    3.1056: real time    3.1083
       DOS:  cpu time    0.0027: real time    0.0027
    --------------------------------------------
      LOOP:  cpu time    3.1084: real time    3.1110

 eigenvalue-minimisations  :  6568
 total energy-change (2. order) :-0.6464280E+00  (-0.6424679E+00)
 number of electron      62.0000000 magnetization 
 augmentation part       62.0000000 magnetization 

 Free energy of the ion-electron system (eV)
  ---------------------------------------------------
  alpha Z        PSCENC =        70.48663321
  Ewald energy   TEWEN  =     -2159.71658403
  -Hartree energ DENC   =      -537.15835092
  -exchange      EXHF   =         0.00000000
  -V(xc)+E(xc)   XCENC  =        48.84175040
  PAW double counting   =      1934.58678659    -1800.98643654
  entropy T*S    EENTRO =        -0.00333359
  eigenvalues    EBANDS =       -70.77815800
  atomic energy  EATOM  =      2411.37598431
  Solvation  Ediel_sol  =         0.00000000
  ---------------------------------------------------
  free energy    TOTEN  =      -103.35170857 eV

  energy without entropy =     -103.34837497  energy(sigma->0) =     -103.35087517


--------------------------------------------------------------------------------------------------------




--------------------------------------- Iteration      1(   5)  ---------------------------------------


     EDDAV:  cpu time    3.0835: real time    3.0872
       DOS:  cpu time    0.0026: real time    0.0026
    CHARGE:  cpu time    0.1310: real time    0.1310
    MIXING:  cpu time    0.0006: real time    0.0007
    --------------------------------------------
      LOOP:  cpu time    3.2177: real time    3.2214

 eigenvalue-minimisations  :  6544
 total energy-change (2. order) :-0.1671842E-01  (-0.1670630E-01)
 number of electron      61.9999995 magnetization 
 augmentation part        0.2755146 magnetization 

 Broyden mixing:
  rms(total) = 0.20989E+01    rms(broyden)= 0.20983E+01
  rms(prec ) = 0.31629E+01
  weight for this iteration     100.00

 Free energy of the ion-electron system (eV)
  ---------------------------------------------------
  alpha Z        PSCENC =        70.48663321
  Ewald energy   TEWEN  =     -2159.71658403
  -Hartree energ DENC   =      -537.15835092
  -exchange      EXHF   =         0.00000000
  -V(xc)+E(xc)   XCENC  =        48.84175040
  PAW double counting   =      1934.58678659    -1800.98643654
  entropy T*S    EENTRO =        -0.00335946
  eigenvalues    EBANDS =       -70.79485055
  atomic energy  EATOM  =      2411.37598431
  Solvation  Ediel_sol  =         0.00000000
  ---------------------------------------------------
  free energy    TOTEN  =      -103.36842699 eV

  energy without entropy =     -103.36506753  energy(sigma->0) =     -103.36758712


--------------------------------------------------------------------------------------------------------




--------------------------------------- Iteration      1(   6)  ---------------------------------------


    POTLOK:  cpu time    0.0195: real time    0.0228
    SETDIJ:  cpu time    0.0023: real time    0.0023
    EDDIAG:  cpu time    0.3271: real time    0.3274
  RMM-DIIS:  cpu time    1.7269: real time    1.7296
    ORTHCH:  cpu time    0.0273: real time    0.0273
       DOS:  cpu time    0.0026: real time    0.0026
    CHARGE:  cpu time    0.1358: real time    0.1359
    MIXING:  cpu time    0.0006: real time    0.0006
    --------------------------------------------
      LOOP:  cpu time    2.2422: real time    2.2486

 eigenvalue-minimisations  :  5120
 total energy-change (2. order) : 0.8075949E+01  (-0.4892129E+01)
 number of electron      61.9999995 magnetization 
 augmentation part       -0.5053370 magnetization 

 Broyden mixing:
  rms(total) = 0.96080E+00    rms(broyden)= 0.96006E+00
  rms(prec ) = 0.11768E+01
  weight for this iteration     100.00

 eigenvalues of (default mixing * dielectric matrix)
  average eigenvalue GAMMA=   0.9433
  0.9433

 Free energy of the ion-electron system (eV)
  ---------------------------------------------------
  alpha Z        PSCENC =        70.48663321
  Ewald energy   TEWEN  =     -2159.71658403
  -Hartree energ DENC   =      -615.36998510
  -exchange      EXHF   =         0.00000000
  -V(xc)+E(xc)   XCENC  =        54.30480839
  PAW double counting   =      3453.56572770    -3320.64703091
  entropy T*S    EENTRO =        -0.00040115
  eigenvalues    EBANDS =        10.70836966
  atomic energy  EATOM  =      2411.37598431
  Solvation  Ediel_sol  =         0.00000000
  ---------------------------------------------------
  free energy    TOTEN  =       -95.29247792 eV

  energy without entropy =      -95.29207677  energy(sigma->0) =      -95.29237763


--------------------------------------------------------------------------------------------------------




--------------------------------------- Iteration      1(   7)  ---------------------------------------


    POTLOK:  cpu time    0.0191: real time    0.0209
    SETDIJ:  cpu time    0.0024: real time    0.0024
    EDDIAG:  cpu time    0.3270: real time    0.3278
  RMM-DIIS:  cpu time    1.7586: real time    1.7611
    ORTHCH:  cpu time    0.0269: real time    0.0269
       DOS:  cpu time    0.0027: real time    0.0027
    CHARGE:  cpu time    0.1372: real time    0.1376
    MIXING:  cpu time    0.0007: real time    0.0007
    --------------------------------------------
      LOOP:  cpu time    2.2745: real time    2.2800

 eigenvalue-minimisations  :  5167
 total energy-change (2. order) : 0.5172941E+00  (-0.1035599E+00)
 number of electron      61.9999995 magnetization 
 augmentation part       -0.4791465 magnetization 

 Broyden mixing:
  rms(total) = 0.54805E+00    rms(broyden)= 0.54803E+00
  rms(prec ) = 0.65303E+00
  weight for this iteration     100.00

 eigenvalues of (default mixing * dielectric matrix)
  average eigenvalue GAMMA=   1.5256
  0.9720  2.0791

 Free energy of the ion-electron system (eV)
  ---------------------------------------------------
  alpha Z        PSCENC =        70.48663321
  Ewald energy   TEWEN  =     -2159.71658403
  -Hartree energ DENC   =      -611.27465200
  -exchange      EXHF   =         0.00000000
  -V(xc)+E(xc)   XCENC  =        54.19962067
  PAW double counting   =      4475.65142206    -4342.84454477
  entropy T*S    EENTRO =         0.00003308
  eigenvalues    EBANDS =         7.34690364
  atomic energy  EATOM  =      2411.37598431
  Solvation  Ediel_sol  =         0.00000000
  ---------------------------------------------------
  free energy    TOTEN  =       -94.77518383 eV

  energy without entropy =      -94.77521690  energy(sigma->0) =      -94.77519210


--------------------------------------------------------------------------------------------------------




--------------------------------------- Iteration      1(   8)  ---------------------------------------


    POTLOK:  cpu time    0.0198: real time    0.0215
    SETDIJ:  cpu time    0.0022: real time    0.0022
    EDDIAG:  cpu time    0.3315: real time    0.3322
  RMM-DIIS:  cpu time    1.7318: real time    1.7339
    ORTHCH:  cpu time    0.0271: real time    0.0272
       DOS:  cpu time    0.0027: real time    0.0027
    CHARGE:  cpu time    0.1385: real time    0.1386
    MIXING:  cpu time    0.0007: real time    0.0007
    --------------------------------------------
      LOOP:  cpu time    2.2542: real time    2.2590

 eigenvalue-minimisations  :  5132
 total energy-change (2. order) : 0.6717610E-01  (-0.7094201E-01)
 number of electron      61.9999996 magnetization 
 augmentation part       -0.4284231 magnetization 

 Broyden mixing:
  rms(total) = 0.10990E+00    rms(broyden)= 0.10976E+00
  rms(prec ) = 0.19732E+00
  weight for this iteration     100.00

 eigenvalues of (default mixing * dielectric matrix)
  average eigenvalue GAMMA=   1.4667
  2.3334  1.0333  1.0333

 Free energy of the ion-electron system (eV)
  ---------------------------------------------------
  alpha Z        PSCENC =        70.48663321
  Ewald energy   TEWEN  =     -2159.71658403
  -Hartree energ DENC   =      -611.89622074
  -exchange      EXHF   =         0.00000000
  -V(xc)+E(xc)   XCENC  =        54.51657946
  PAW double counting   =      6060.87090513    -5928.25229099
  entropy T*S    EENTRO =         0.00118622
  eigenvalues    EBANDS =         7.90579970
  atomic energy  EATOM  =      2411.37598431
  Solvation  Ediel_sol  =         0.00000000
  ---------------------------------------------------
  free energy    TOTEN  =       -94.70800772 eV

  energy without entropy =      -94.70919394  energy(sigma->0) =      -94.70830428


--------------------------------------------------------------------------------------------------------




--------------------------------------- Iteration      1(   9)  ---------------------------------------


    POTLOK:  cpu time    0.0192: real time    0.0209
    SETDIJ:  cpu time    0.0023: real time    0.0023
    EDDIAG:  cpu time    0.3269: real time    0.3274
  RMM-DIIS:  cpu time    1.7387: real time    1.7413
    ORTHCH:  cpu time    0.0272: real time    0.0272
       DOS:  cpu time    0.0027: real time    0.0027
    CHARGE:  cpu time    0.1365: real time    0.1365
    MIXING:  cpu time    0.0007: real time    0.0007
    --------------------------------------------
      LOOP:  cpu time    2.2542: real time    2.2591

 eigenvalue-minimisations  :  5158
 total energy-change (2. order) : 0.2976609E-01  (-0.2176769E-01)
 number of electron      61.9999996 magnetization 
 augmentation part       -0.4798702 magnetization 

 Broyden mixing:
  rms(total) = 0.48617E-01    rms(broyden)= 0.48567E-01
  rms(prec ) = 0.67627E-01
  weight for this iteration     100.00

 eigenvalues of (default mixing * dielectric matrix)
  average eigenvalue GAMMA=   1.6129
  2.2656  2.2656  0.9603  0.9603

 Free energy of the ion-electron system (eV)
  ---------------------------------------------------
  alpha Z        PSCENC =        70.48663321
  Ewald energy   TEWEN  =     -2159.71658403
  -Hartree energ DENC   =      -618.85167472
  -exchange      EXHF   =         0.00000000
  -V(xc)+E(xc)   XCENC  =        55.02116352
  PAW double counting   =      6250.29203063    -6117.73742949
  entropy T*S    EENTRO =         0.00006813
  eigenvalues    EBANDS =        14.45156681
  atomic energy  EATOM  =      2411.37598431
  Solvation  Ediel_sol  =         0.00000000
  ---------------------------------------------------
  free energy    TOTEN  =       -94.67824163 eV

  energy without entropy =      -94.67830975  energy(sigma->0) =      -94.67825866


--------------------------------------------------------------------------------------------------------




--------------------------------------- Iteration      1(  10)  ---------------------------------------


    POTLOK:  cpu time    0.0189: real time    0.0210
    SETDIJ:  cpu time    0.0023: real time    0.0023
    EDDIAG:  cpu time    0.3267: real time    0.3274
  RMM-DIIS:  cpu time    1.7563: real time    1.7579
    ORTHCH:  cpu time    0.0269: real time    0.0269
       DOS:  cpu time    0.0026: real time    0.0026
    CHARGE:  cpu time    0.1373: real time    0.1374
    MIXING:  cpu time    0.0007: real time    0.0007
    --------------------------------------------
      LOOP:  cpu time    2.2718: real time    2.2761

 eigenvalue-minimisations  :  5199
 total energy-change (2. order) : 0.9131996E-03  (-0.9424305E-03)
 number of electron      61.9999996 magnetization 
 augmentation part       -0.4758173 magnetization 

 Broyden mixing:
  rms(total) = 0.17763E-01    rms(broyden)= 0.17762E-01
  rms(prec ) = 0.27825E-01
  weight for this iteration     100.00

 eigenvalues of (default mixing * dielectric matrix)
  average eigenvalue GAMMA=   1.6148
  2.5031  2.5031  0.9938  0.9938  1.0801

 Free energy of the ion-electron system (eV)
  ---------------------------------------------------
  alpha Z        PSCENC =        70.48663321
  Ewald energy   TEWEN  =     -2159.71658403
  -Hartree energ DENC   =      -618.12340816
  -exchange      EXHF   =         0.00000000
  -V(xc)+E(xc)   XCENC  =        54.96874042
  PAW double counting   =      6149.45832668    -6016.89867783
  entropy T*S    EENTRO =         0.00011365
  eigenvalues    EBANDS =        13.77154333
  atomic energy  EATOM  =      2411.37598431
  Solvation  Ediel_sol  =         0.00000000
  ---------------------------------------------------
  free energy    TOTEN  =       -94.67732843 eV

  energy without entropy =      -94.67744207  energy(sigma->0) =      -94.67735684


--------------------------------------------------------------------------------------------------------




--------------------------------------- Iteration      1(  11)  ---------------------------------------


    POTLOK:  cpu time    0.0190: real time    0.0208
    SETDIJ:  cpu time    0.0022: real time    0.0022
    EDDIAG:  cpu time    0.3239: real time    0.3240
  RMM-DIIS:  cpu time    1.7235: real time    1.7244
    ORTHCH:  cpu time    0.0274: real time    0.0274
       DOS:  cpu time    0.0026: real time    0.0026
    CHARGE:  cpu time    0.1370: real time    0.1371
    MIXING:  cpu time    0.0007: real time    0.0007
    --------------------------------------------
      LOOP:  cpu time    2.2363: real time    2.2392

 eigenvalue-minimisations  :  5138
 total energy-change (2. order) :-0.5859708E-03  (-0.5874598E-03)
 number of electron      61.9999996 magnetization 
 augmentation part       -0.4685780 magnetization 

 Broyden mixing:
  rms(total) = 0.87285E-02    rms(broyden)= 0.87195E-02
  rms(prec ) = 0.13268E-01
  weight for this iteration     100.00

 eigenvalues of (default mixing * dielectric matrix)
  average eigenvalue GAMMA=   1.6998
  2.7016  2.4955  2.0878  0.9799  0.9799  0.9540

 Free energy of the ion-electron system (eV)
  ---------------------------------------------------
  alpha Z        PSCENC =        70.48663321
  Ewald energy   TEWEN  =     -2159.71658403
  -Hartree energ DENC   =      -617.83260309
  -exchange      EXHF   =         0.00000000
  -V(xc)+E(xc)   XCENC  =        54.95044182
  PAW double counting   =      6127.10343626    -5994.54262896
  entropy T*S    EENTRO =         0.00018831
  eigenvalues    EBANDS =        13.49721777
  atomic energy  EATOM  =      2411.37598431
  Solvation  Ediel_sol  =         0.00000000
  ---------------------------------------------------
  free energy    TOTEN  =       -94.67791440 eV

  energy without entropy =      -94.67810271  energy(sigma->0) =      -94.67796148


--------------------------------------------------------------------------------------------------------




--------------------------------------- Iteration      1(  12)  ---------------------------------------


    POTLOK:  cpu time    0.0189: real time    0.0209
    SETDIJ:  cpu time    0.0022: real time    0.0022
    EDDIAG:  cpu time    0.3247: real time    0.3248
  RMM-DIIS:  cpu time    1.6183: real time    1.6186
    ORTHCH:  cpu time    0.0269: real time    0.0269
       DOS:  cpu time    0.0026: real time    0.0026
    --------------------------------------------
      LOOP:  cpu time    1.9936: real time    1.9961

 eigenvalue-minimisations  :  4747
 total energy-change (2. order) : 0.4215657E-04  (-0.7689944E-04)
 number of electron      61.9999996 magnetization 
 augmentation part       -0.4685780 magnetization 

 Free energy of the ion-electron system (eV)
  ---------------------------------------------------
  alpha Z        PSCENC =        70.48663321
  Ewald energy   TEWEN  =     -2159.71658403
  -Hartree energ DENC   =      -618.26144160
  -exchange      EXHF   =         0.00000000
  -V(xc)+E(xc)   XCENC  =        54.97500876
  PAW double counting   =      6117.03216049    -5984.47041994
  entropy T*S    EENTRO =         0.00018666
  eigenvalues    EBANDS =        13.90059989
  atomic energy  EATOM  =      2411.37598431
  Solvation  Ediel_sol  =         0.00000000
  ---------------------------------------------------
  free energy    TOTEN  =       -94.67787224 eV

  energy without entropy =      -94.67805890  energy(sigma->0) =      -94.67791891


--------------------------------------------------------------------------------------------------------




 average (electrostatic) potential at core
  the test charge radii are     0.7089  0.9892
  (the norm of the test charge is              1.0000)
       1 -61.6102       2 -61.6102       3 -61.6102       4 -61.6102       5 -61.6102
       6 -61.6102       7 -82.8390       8 -82.8390       9 -82.5611      10 -82.5611
      11 -82.5611      12 -82.5611      13 -82.5611      14 -82.5611
 
 
 
 E-fermi :   8.5242     XC(G=0): -10.5473     alpha+bet :-14.1087


 k-point     1 :       0.0000    0.0000    0.0000
  band No.  band energies     occupation 
      1     -10.5111      2.00000
      2      -9.5470      2.00000
      3      -9.5470      2.00000
      4      -8.9727      2.00000
      5      -8.9727      2.00000
      6      -8.8003      2.00000
      7      -2.7898      2.00000
      8      -2.7898      2.00000
      9      -2.4546      2.00000
     10      -1.9232      2.00000
     11      -0.9763      2.00000
     12       0.1007      2.00000
     13       0.1007      2.00000
     14       1.8640      2.00000
     15       1.8640      2.00000
     16       2.3213      2.00000
     17       2.8995      2.00000
     18       2.8995      2.00000
     19       3.1090      2.00000
     20       3.4723      2.00000
     21       3.9739      2.00000
     22       3.9739      2.00000
     23       4.4226      2.00000
     24       4.4226      2.00000
     25       4.6083      2.00000
     26       5.6621      2.00000
     27       5.7118      2.00000
     28       5.7118      2.00000
     29       7.4814      2.00000
     30       7.7253      2.00000
     31       7.7253      2.00000
     32      10.7787      0.00000
     33      10.7787      0.00000
     34      11.0207      0.00000
     35      11.6173      0.00000
     36      11.6181      0.00000
     37      12.5220      0.00000
     38      12.5394      0.00000
     39      12.7757      0.00000
     40      13.0162      0.00000

 k-point     2 :       0.1667    0.0000    0.0000
  band No.  band energies     occupation 
      1     -10.4656      2.00000
      2      -9.6377      2.00000
      3      -9.5831      2.00000
      4      -9.1042      2.00000
      5      -8.9179      2.00000
      6      -8.6152      2.00000
      7      -3.0644      2.00000
      8      -2.7550      2.00000
      9      -2.3914      2.00000
     10      -1.6263      2.00000
     11      -1.0783      2.00000
     12      -0.1158      2.00000
     13       0.2140      2.00000
     14       1.7626      2.00000
     15       1.8957      2.00000
     16       2.4857      2.00000
     17       2.6490      2.00000
     18       3.0565      2.00000
     19       3.3684      2.00000
     20       3.5009      2.00000
     21       3.9347      2.00000
     22       3.9619      2.00000
     23       4.3839      2.00000
     24       4.4406      2.00000
     25       4.6601      2.00000
     26       5.4308      2.00000
     27       5.4796      2.00000
     28       5.8023      2.00000
     29       7.4116      2.00000
     30       7.9603      2.00000
     31       8.0162      2.00000
     32      10.5015      0.00000
     33      10.7845      0.00000
     34      10.8872      0.00000
     35      11.5084      0.00000
     36      11.6236      0.00000
     37      12.2889      0.00000
     38      12.4872      0.00000
     39      12.8605      0.00000
     40      12.9500      0.00000

 k-point     3 :       0.3333    0.0000    0.0000
  band No.  band energies     occupation 
      1     -10.3334      2.00000
      2      -9.8666      2.00000
      3      -9.6422      2.00000
      4      -9.1828      2.00000
      5      -8.8201      2.00000
      6      -8.4236      2.00000
      7      -3.4042      2.00000
      8      -2.6754      2.00000
      9      -2.2201      2.00000
     10      -1.4745      2.00000
     11      -1.1090      2.00000
     12      -0.4866      2.00000
     13       0.5815      2.00000
     14       1.5922      2.00000
     15       1.7911      2.00000
     16       2.3004      2.00000
     17       2.8670      2.00000
     18       3.2997      2.00000
     19       3.5780      2.00000
     20       3.7443      2.00000
     21       3.8329      2.00000
     22       3.9396      2.00000
     23       4.3409      2.00000
     24       4.4731      2.00000
     25       4.7292      2.00000
     26       4.9004      2.00000
     27       5.1351      2.00000
     28       6.1625      2.00000
     29       7.1879      2.00000
     30       8.3531      1.99926
     31       8.5803      0.05878
     32       9.8748      0.00000
     33      10.4861      0.00000
     34      10.7843      0.00000
     35      11.4344      0.00000
     36      11.6546      0.00000
     37      12.1095      0.00000
     38      12.4272      0.00000
     39      12.6884      0.00000
     40      12.7984      0.00000

 k-point     4 :       0.5000    0.0000    0.0000
  band No.  band energies     occupation 
      1     -10.1549      2.00000
      2     -10.0912      2.00000
      3      -9.6673      2.00000
      4      -9.2008      2.00000
      5      -8.7748      2.00000
      6      -8.3519      2.00000
      7      -3.5343      2.00000
      8      -2.6291      2.00000
      9      -2.0727      2.00000
     10      -1.6340      2.00000
     11      -1.0012      2.00000
     12      -0.6555      2.00000
     13       0.9948      2.00000
     14       1.4481      2.00000
     15       1.5395      2.00000
     16       2.1788      2.00000
     17       3.0989      2.00000
     18       3.3916      2.00000
     19       3.6663      2.00000
     20       3.7316      2.00000
     21       3.9298      2.00000
     22       3.9752      2.00000
     23       4.3267      2.00000
     24       4.4876      2.00000
     25       4.5583      2.00000
     26       4.7550      2.00000
     27       5.0138      2.00000
     28       6.4745      2.00000
     29       6.9483      2.00000
     30       8.5048      1.39839
     31       9.1741      0.00000
     32       9.2614      0.00000
     33      10.2545      0.00000
     34      10.7560      0.00000
     35      11.4669      0.00000
     36      11.7262      0.00000
     37      12.0007      0.00000
     38      12.4227      0.00000
     39      12.5319      0.00000
     40      12.9790      0.00000

 k-point     5 :       0.1667    0.1667    0.0000
  band No.  band energies     occupation 
      1     -10.3767      2.00000
      2      -9.7398      2.00000
      3      -9.7085      2.00000
      4      -9.1260      2.00000
      5      -8.8721      2.00000
      6      -8.4595      2.00000
      7      -3.3456      2.00000
      8      -2.6558      2.00000
      9      -2.2717      2.00000
     10      -1.4863      2.00000
     11      -1.2037      2.00000
     12      -0.2517      2.00000
     13       0.3816      2.00000
     14       1.5627      2.00000
     15       2.0005      2.00000
     16       2.3452      2.00000
     17       2.6776      2.00000
     18       3.2881      2.00000
     19       3.5533      2.00000
     20       3.6421      2.00000
     21       3.8809      2.00000
     22       3.9246      2.00000
     23       4.3614      2.00000
     24       4.4554      2.00000
     25       4.7143      2.00000
     26       5.0815      2.00000
     27       5.1835      2.00000
     28       6.0503      2.00000
     29       7.2722      2.00000
     30       8.2795      1.99515
     31       8.3962      2.06044
     32      10.1497      0.00000
     33      10.2931      0.00000
     34      11.0693      0.00000
     35      11.3366      0.00000
     36      11.6721      0.00000
     37      12.1938      0.00000
     38      12.3641      0.00000
     39      12.7317      0.00000
     40      12.8083      0.00000

 k-point     6 :       0.3333    0.1667    0.0000
  band No.  band energies     occupation 
      1     -10.2080      2.00000
      2      -9.9690      2.00000
      3      -9.7829      2.00000
      4      -9.1018      2.00000
      5      -8.8364      2.00000
      6      -8.3433      2.00000
      7      -3.5620      2.00000
      8      -2.4967      2.00000
      9      -2.0741      2.00000
     10      -1.6684      2.00000
     11      -1.3934      2.00000
     12      -0.1444      2.00000
     13       0.7108      2.00000
     14       1.3162      2.00000
     15       1.8273      2.00000
     16       2.2630      2.00000
     17       2.8101      2.00000
     18       3.4502      2.00000
     19       3.6444      2.00000
     20       3.7844      2.00000
     21       3.8872      2.00000
     22       3.9800      2.00000
     23       4.3597      2.00000
     24       4.4641      2.00000
     25       4.7545      2.00000
     26       4.7574      2.00000
     27       4.9157      2.00000
     28       6.4317      2.00000
     29       7.0093      2.00000
     30       8.6191     -0.10319
     31       8.8358      0.00034
     32       9.5610      0.00000
     33       9.8860      0.00000
     34      11.0787      0.00000
     35      11.3913      0.00000
     36      11.7877      0.00000
     37      12.0861      0.00000
     38      12.2629      0.00000
     39      12.4993      0.00000
     40      12.9006      0.00000

 k-point     7 :       0.5000    0.1667    0.0000
  band No.  band energies     occupation 
      1     -10.2080      2.00000
      2      -9.9690      2.00000
      3      -9.7829      2.00000
      4      -9.1017      2.00000
      5      -8.8364      2.00000
      6      -8.3433      2.00000
      7      -3.5619      2.00000
      8      -2.4942      2.00000
      9      -2.0851      2.00000
     10      -1.6458      2.00000
     11      -1.4076      2.00000
     12      -0.1487      2.00000
     13       0.7300      2.00000
     14       1.2793      2.00000
     15       1.9175      2.00000
     16       2.1583      2.00000
     17       2.8465      2.00000
     18       3.4735      2.00000
     19       3.6442      2.00000
     20       3.7846      2.00000
     21       3.8871      2.00000
     22       3.9668      2.00000
     23       4.3598      2.00000
     24       4.4647      2.00000
     25       4.6779      2.00000
     26       4.7566      2.00000
     27       4.9830      2.00000
     28       6.4372      2.00000
     29       7.0049      2.00000
     30       8.5667      0.21556
     31       8.9179      0.00000
     32       9.4751      0.00000
     33       9.9590      0.00000
     34      11.0452      0.00000
     35      11.3888      0.00000
     36      11.7987      0.00000
     37      12.0444      0.00000
     38      12.3908      0.00000
     39      12.4891      0.00000
     40      12.9772      0.00000

 k-point     8 :       0.3333    0.3333    0.0000
  band No.  band energies     occupation 
      1     -10.0254      2.00000
      2     -10.0254      2.00000
      3      -9.9775      2.00000
      4      -8.9477      2.00000
      5      -8.9477      2.00000
      6      -8.3038      2.00000
      7      -3.6433      2.00000
      8      -2.1176      2.00000
      9      -2.1176      2.00000
     10      -1.7696      2.00000
     11      -1.7696      2.00000
     12       0.4804      2.00000
     13       0.4804      2.00000
     14       1.0578      2.00000
     15       1.8536      2.00000
     16       2.5064      2.00000
     17       2.5064      2.00000
     18       3.5156      2.00000
     19       3.7019      2.00000
     20       3.7962      2.00000
     21       3.7962      2.00000
     22       4.1345      2.00000
     23       4.4183      2.00000
     24       4.4183      2.00000
     25       4.7599      2.00000
     26       4.7599      2.00000
     27       4.7714      2.00000
     28       6.7519      2.00000
     29       6.7519      2.00000
     30       8.8625      0.00008
     31       9.0887      0.00000
     32       9.0887      0.00000
     33       9.6717      0.00000
     34      10.9699      0.00000
     35      11.7936      0.00000
     36      11.7947      0.00000
     37      12.1746      0.00000
     38      12.1888      0.00000
     39      12.1926      0.00000
     40      12.7419      0.00000

 k-point     9 :       0.0000    0.0000    0.0667
  band No.  band energies     occupation 
      1     -10.4586      2.00000
      2      -9.5018      2.00000
      3      -9.5018      2.00000
      4      -8.9316      2.00000
      5      -8.9316      2.00000
      6      -8.7645      2.00000
      7      -2.7458      2.00000
      8      -2.7458      2.00000
      9      -2.3924      2.00000
     10      -1.8672      2.00000
     11      -0.9462      2.00000
     12       0.1292      2.00000
     13       0.1292      2.00000
     14       1.9138      2.00000
     15       1.9138      2.00000
     16       2.3320      2.00000
     17       2.9004      2.00000
     18       2.9004      2.00000
     19       3.0834      2.00000
     20       3.1908      2.00000
     21       3.7071      2.00000
     22       3.7071      2.00000
     23       4.1433      2.00000
     24       4.1433      2.00000
     25       4.2917      2.00000
     26       5.7286      2.00000
     27       5.7286      2.00000
     28       5.8414      2.00000
     29       7.4371      2.00000
     30       7.8753      2.00000
     31       7.8753      2.00000
     32      10.6270      0.00000
     33      10.6272      0.00000
     34      10.9235      0.00000
     35      11.7673      0.00000
     36      11.7685      0.00000
     37      12.4261      0.00000
     38      12.4387      0.00000
     39      12.5998      0.00000
     40      12.6758      0.00000

 k-point    10 :       0.1667    0.0000    0.0667
  band No.  band energies     occupation 
      1     -10.4136      2.00000
      2      -9.5916      2.00000
      3      -9.5374      2.00000
      4      -9.0632      2.00000
      5      -8.8778      2.00000
      6      -8.5803      2.00000
      7      -3.0139      2.00000
      8      -2.7102      2.00000
      9      -2.3300      2.00000
     10      -1.5759      2.00000
     11      -1.0452      2.00000
     12      -0.0855      2.00000
     13       0.2396      2.00000
     14       1.8116      2.00000
     15       1.9299      2.00000
     16       2.4887      2.00000
     17       2.6390      2.00000
     18       3.0452      2.00000
     19       3.2288      2.00000
     20       3.3365      2.00000
     21       3.6757      2.00000
     22       3.7019      2.00000
     23       4.0882      2.00000
     24       4.1712      2.00000
     25       4.3822      2.00000
     26       5.4668      2.00000
     27       5.5140      2.00000
     28       5.9583      2.00000
     29       7.3773      2.00000
     30       8.0796      2.00000
     31       8.1277      2.00000
     32      10.4575      0.00000
     33      10.6817      0.00000
     34      10.8452      0.00000
     35      11.5081      0.00000
     36      11.6901      0.00000
     37      12.1347      0.00000
     38      12.3407      0.00000
     39      12.5050      0.00000
     40      12.7138      0.00000

 k-point    11 :       0.3333    0.0000    0.0667
  band No.  band energies     occupation 
      1     -10.2822      2.00000
      2      -9.8185      2.00000
      3      -9.5958      2.00000
      4      -9.1416      2.00000
      5      -8.7818      2.00000
      6      -8.3910      2.00000
      7      -3.3482      2.00000
      8      -2.6287      2.00000
      9      -2.1609      2.00000
     10      -1.4201      2.00000
     11      -1.0768      2.00000
     12      -0.4540      2.00000
     13       0.5975      2.00000
     14       1.6414      2.00000
     15       1.8069      2.00000
     16       2.2913      2.00000
     17       2.8179      2.00000
     18       3.2519      2.00000
     19       3.3566      2.00000
     20       3.4916      2.00000
     21       3.7062      2.00000
     22       3.7842      2.00000
     23       4.0672      2.00000
     24       4.2218      2.00000
     25       4.4937      2.00000
     26       4.9607      2.00000
     27       5.1630      2.00000
     28       6.2703      2.00000
     29       7.1827      2.00000
     30       8.4105      2.08658
     31       8.6491     -0.06624
     32       9.9450      0.00000
     33      10.5279      0.00000
     34      10.7581      0.00000
     35      11.3335      0.00000
     36      11.5989      0.00000
     37      11.8543      0.00000
     38      12.2411      0.00000
     39      12.4697      0.00000
     40      12.6977      0.00000

 k-point    12 :       0.5000    0.0000    0.0667
  band No.  band energies     occupation 
      1     -10.1049      2.00000
      2     -10.0415      2.00000
      3      -9.6206      2.00000
      4      -9.1595      2.00000
      5      -8.7374      2.00000
      6      -8.3203      2.00000
      7      -3.4767      2.00000
      8      -2.5813      2.00000
      9      -2.0162      2.00000
     10      -1.5769      2.00000
     11      -0.9687      2.00000
     12      -0.6222      2.00000
     13       0.9942      2.00000
     14       1.4684      2.00000
     15       1.5889      2.00000
     16       2.1778      2.00000
     17       2.9590      2.00000
     18       3.3099      2.00000
     19       3.4419      2.00000
     20       3.5318      2.00000
[...]
     39      11.1208      0.00000
     40      11.1208      0.00000

 k-point    58 :       0.1667    0.0000    0.4667
  band No.  band energies     occupation 
      1      -8.6514      2.00000
      2      -8.3728      2.00000
      3      -8.3494      2.00000
      4      -8.3285      2.00000
      5      -8.1897      2.00000
      6      -8.1859      2.00000
      7      -2.1916      2.00000
      8      -2.0781      2.00000
      9      -1.9670      2.00000
     10      -1.8478      2.00000
     11      -1.5620      2.00000
     12      -1.2183      2.00000
     13       0.2146      2.00000
     14       0.6158      2.00000
     15       0.8144      2.00000
     16       1.0980      2.00000
     17       1.2870      2.00000
     18       1.4181      2.00000
     19       1.6349      2.00000
     20       1.7483      2.00000
     21       3.4811      2.00000
     22       3.5787      2.00000
     23       3.6547      2.00000
     24       3.7535      2.00000
     25       4.3706      2.00000
     26       4.7153      2.00000
     27       5.7830      2.00000
     28       5.8238      2.00000
     29       6.0905      2.00000
     30       6.1841      2.00000
     31       7.2697      2.00000
     32       7.6406      2.00000
     33       7.7068      2.00000
     34       8.4258     -0.06349
     35      10.3135      0.00000
     36      10.5291      0.00000
     37      10.8303      0.00000
     38      10.9778      0.00000
     39      11.1658      0.00000
     40      11.2257      0.00000

 k-point    59 :       0.3333    0.0000    0.4667
  band No.  band energies     occupation 
      1      -8.6001      2.00000
      2      -8.4423      2.00000
      3      -8.3557      2.00000
      4      -8.3205      2.00000
      5      -8.1854      2.00000
      6      -8.1793      2.00000
      7      -2.2885      2.00000
      8      -2.0911      2.00000
      9      -1.9693      2.00000
     10      -1.7772      2.00000
     11      -1.4582      2.00000
     12      -1.0936      2.00000
     13       0.0961      2.00000
     14       0.6584      2.00000
     15       0.7293      2.00000
     16       0.9945      2.00000
     17       1.2150      2.00000
     18       1.5383      2.00000
     19       1.5487      2.00000
     20       1.8554      2.00000
     21       3.2816      2.00000
     22       3.5140      2.00000
     23       3.5435      2.00000
     24       3.8106      2.00000
     25       4.4773      2.00000
     26       4.7179      2.00000
     27       5.8024      2.00000
     28       5.9782      2.00000
     29       6.1348      2.00000
     30       6.4214      2.00000
     31       7.3654      2.00000
     32       7.5552      2.00000
     33       7.7921      2.00000
     34       8.1813      2.07883
     35      10.0820      0.00000
     36      10.6040      0.00000
     37      10.7912      0.00000
     38      11.0045      0.00000
     39      11.2771      0.00000
     40      11.3535      0.00000

 k-point    60 :       0.5000    0.0000    0.4667
  band No.  band energies     occupation 
      1      -8.5312      2.00000
      2      -8.5191      2.00000
      3      -8.3587      2.00000
      4      -8.3159      2.00000
      5      -8.1833      2.00000
      6      -8.1777      2.00000
      7      -2.3258      2.00000
      8      -2.1406      2.00000
      9      -1.8941      2.00000
     10      -1.7503      2.00000
     11      -1.4318      2.00000
     12      -1.0542      2.00000
     13       0.0699      2.00000
     14       0.6143      2.00000
     15       0.8263      2.00000
     16       0.8697      2.00000
     17       1.1910      2.00000
     18       1.4936      2.00000
     19       1.5898      2.00000
     20       1.8967      2.00000
     21       3.2104      2.00000
     22       3.4742      2.00000
     23       3.4926      2.00000
     24       3.8277      2.00000
     25       4.5112      2.00000
     26       4.7312      2.00000
     27       5.8046      2.00000
     28       6.0975      2.00000
     29       6.1275      2.00000
     30       6.5424      2.00000
     31       7.4341      2.00000
     32       7.4942      2.00000
     33       7.9564      1.99994
     34       7.9810      1.99976
     35       9.9278      0.00000
     36      10.4195      0.00000
     37      10.8050      0.00000
     38      11.1917      0.00000
     39      11.2130      0.00000
     40      11.3683      0.00000

 k-point    61 :       0.1667    0.1667    0.4667
  band No.  band energies     occupation 
      1      -8.6166      2.00000
      2      -8.4002      2.00000
      3      -8.3916      2.00000
      4      -8.3041      2.00000
      5      -8.1926      2.00000
      6      -8.1767      2.00000
      7      -2.2598      2.00000
      8      -2.1034      2.00000
      9      -1.9631      2.00000
     10      -1.7935      2.00000
     11      -1.4829      2.00000
     12      -1.1209      2.00000
     13       0.1186      2.00000
     14       0.6699      2.00000
     15       0.7169      2.00000
     16       1.0366      2.00000
     17       1.2470      2.00000
     18       1.4527      2.00000
     19       1.6267      2.00000
     20       1.8137      2.00000
     21       3.3810      2.00000
     22       3.4201      2.00000
     23       3.6460      2.00000
     24       3.7715      2.00000
     25       4.4710      2.00000
     26       4.7057      2.00000
     27       5.8214      2.00000
     28       5.8709      2.00000
     29       6.1524      2.00000
     30       6.4004      2.00000
     31       7.3376      2.00000
     32       7.5880      2.00000
     33       7.7300      2.00000
     34       8.2331      2.02100
     35      10.1562      0.00000
     36      10.6647      0.00000
     37      10.7674      0.00000
     38      11.0639      0.00000
     39      11.1789      0.00000
     40      11.3757      0.00000

 k-point    62 :       0.3333    0.1667    0.4667
  band No.  band energies     occupation 
      1      -8.5537      2.00000
      2      -8.4737      2.00000
      3      -8.4089      2.00000
      4      -8.2793      2.00000
      5      -8.2001      2.00000
      6      -8.1702      2.00000
      7      -2.3066      2.00000
      8      -2.1884      2.00000
      9      -1.8471      2.00000
     10      -1.7454      2.00000
     11      -1.4545      2.00000
     12      -1.0628      2.00000
     13       0.0728      2.00000
     14       0.6143      2.00000
     15       0.7999      2.00000
     16       0.9140      2.00000
     17       1.2195      2.00000
     18       1.4166      2.00000
     19       1.6613      2.00000
     20       1.8533      2.00000
     21       3.2670      2.00000
     22       3.4066      2.00000
     23       3.5068      2.00000
     24       3.8054      2.00000
     25       4.5533      2.00000
     26       4.7080      2.00000
     27       5.8091      2.00000
     28       5.9103      2.00000
     29       6.2940      2.00000
     30       6.6665      2.00000
     31       7.4194      2.00000
     32       7.4990      2.00000
     33       7.8172      2.00000
     34       7.9884      1.99965
     35       9.9296      0.00000
     36      10.4159      0.00000
     37      10.9345      0.00000
     38      11.1570      0.00000
     39      11.2277      0.00000
     40      11.3164      0.00000

 k-point    63 :       0.5000    0.1667    0.4667
  band No.  band energies     occupation 
      1      -8.5537      2.00000
      2      -8.4737      2.00000
      3      -8.4089      2.00000
      4      -8.2792      2.00000
      5      -8.2001      2.00000
      6      -8.1703      2.00000
      7      -2.3077      2.00000
      8      -2.1855      2.00000
      9      -1.8563      2.00000
     10      -1.7360      2.00000
     11      -1.4562      2.00000
     12      -1.0627      2.00000
     13       0.0733      2.00000
     14       0.6144      2.00000
     15       0.7904      2.00000
     16       0.9250      2.00000
     17       1.2212      2.00000
     18       1.4109      2.00000
     19       1.6632      2.00000
     20       1.8531      2.00000
     21       3.2686      2.00000
     22       3.4006      2.00000
     23       3.5115      2.00000
     24       3.8081      2.00000
     25       4.5457      2.00000
     26       4.7091      2.00000
     27       5.8130      2.00000
     28       5.9377      2.00000
     29       6.2515      2.00000
     30       6.6788      2.00000
     31       7.4200      2.00000
     32       7.5124      2.00000
     33       7.8011      2.00000
     34       7.9908      1.99961
     35       9.9374      0.00000
     36      10.4625      0.00000
     37      10.8683      0.00000
     38      11.0701      0.00000
     39      11.2687      0.00000
     40      11.3515      0.00000

 k-point    64 :       0.3333    0.3333    0.4667
  band No.  band energies     occupation 
      1      -8.4960      2.00000
      2      -8.4795      2.00000
      3      -8.4795      2.00000
      4      -8.2329      2.00000
      5      -8.2329      2.00000
      6      -8.1664      2.00000
      7      -2.2739      2.00000
      8      -2.2739      2.00000
      9      -1.7420      2.00000
     10      -1.7420      2.00000
     11      -1.4860      2.00000
     12      -1.0596      2.00000
     13       0.0745      2.00000
     14       0.5970      2.00000
     15       0.8589      2.00000
     16       0.8589      2.00000
     17       1.2907      2.00000
     18       1.2907      2.00000
     19       1.7725      2.00000
     20       1.7725      2.00000
     21       3.3153      2.00000
     22       3.3917      2.00000
     23       3.3917      2.00000
     24       3.7979      2.00000
     25       4.6491      2.00000
     26       4.6491      2.00000
     27       5.8375      2.00000
     28       5.8375      2.00000
     29       6.3964      2.00000
     30       6.9115      2.00000
     31       7.4506      2.00000
     32       7.4506      2.00000
     33       7.7977      2.00000
     34       7.7977      2.00000
     35       9.8566      0.00000
     36      10.3570      0.00000
     37      11.0802      0.00000
     38      11.0802      0.00000
     39      11.2569      0.00000
     40      11.2569      0.00000


--------------------------------------------------------------------------------------------------------


 soft charge-density along one line, spin component           1
         0         1         2         3         4         5         6         7         8         9
 total charge-density along one line
 
 pseudopotential strength for first ion, spin component:           1
 12.450  14.923   0.001  -0.000  -0.000   0.003  -0.000  -0.001
 14.923  17.888   0.001  -0.000  -0.001   0.004  -0.000  -0.002
  0.001   0.001  -5.837  -0.000   0.001  -7.775  -0.000   0.002
 -0.000  -0.000  -0.000  -5.865   0.000  -0.000  -7.820   0.000
 -0.000  -0.001   0.001   0.000  -5.875   0.002   0.000  -7.835
  0.003   0.004  -7.775  -0.000   0.002  -9.640  -0.000   0.004
 -0.000  -0.000  -0.000  -7.820   0.000  -0.000  -9.709   0.000
 -0.001  -0.002   0.002   0.000  -7.835   0.004   0.000  -9.734
 total augmentation occupancy for first ion, spin component:           1
  7.064  -3.212  -0.162  -0.000   0.082   0.075   0.000  -0.028
 -3.212   1.624   0.167  -0.000  -0.070  -0.066   0.000   0.020
 -0.162   0.167   1.938   0.000  -0.039  -0.234   0.000   0.014
  0.000   0.000  -0.000   2.232   0.000  -0.000  -0.384   0.000
  0.082  -0.070  -0.039   0.000   2.285   0.014   0.000  -0.420
  0.075  -0.066  -0.234   0.000   0.014   0.041  -0.000  -0.004
  0.000   0.000  -0.000  -0.384   0.000  -0.000   0.075  -0.000
 -0.028   0.020   0.014  -0.000  -0.420  -0.004  -0.000   0.089


------------------------ aborting loop because EDIFF is reached ----------------------------------------


    CHARGE:  cpu time    0.1426: real time    0.1426
    FORLOC:  cpu time    0.0030: real time    0.0030
    FORNL :  cpu time    0.8407: real time    0.8417
    STRESS:  cpu time    2.5292: real time    2.5308
    FORCOR:  cpu time    0.0214: real time    0.0214
    FORHAR:  cpu time    0.0068: real time    0.0068
    MIXING:  cpu time    0.0005: real time    0.0005
    OFIELD:  cpu time    0.0000: real time    0.0000

  FORCE on cell =-STRESS in cart. coord.  units (eV):
  Direction    XX          YY          ZZ          XY          YZ          ZX
  --------------------------------------------------------------------------------------
  Alpha Z    70.48663    70.48663    70.48663
  Ewald    -866.18653  -866.18653  -440.97653    -0.00000    -0.00000    -0.00000
  Hartree   134.22051   134.22051   335.31508     0.00000     0.00000    -0.00000
  E(xc)    -233.64096  -233.64097  -233.72402     0.00000    -0.00000     0.00000
  Local    -122.61136  -122.61104  -730.14931    -0.00000    -0.00000     0.00000
  n-local   209.41537   209.08997   223.90909    -0.21902     0.22262    -0.00277
  augment   -39.48474   -39.48502   -40.38328     0.00195    -0.00000    -0.00000
  Kinetic   840.30591   842.15906   804.43483     0.17413    -0.14065    -0.49124
  Fock        0.00000     0.00000     0.00000     0.00000     0.00000     0.00000
  -------------------------------------------------------------------------------------
  Total      -6.73128    -6.73128   -11.08750     0.00000    -0.00000     0.00000
  in kB     -62.35806   -62.35806  -102.71369     0.00000    -0.00000     0.00000
  external pressure =      -75.81 kB  Pullay stress =        0.00 kB


 VOLUME and BASIS-vectors are now :
 -----------------------------------------------------------------------------
  energy-cutoff  :      400.00
  volume of cell :      172.95
      direct lattice vectors                 reciprocal lattice vectors
     4.140268947 -7.171156161  0.000000000     0.120765102 -0.069723764  0.000000000
     4.140268937  7.171156168  0.000000000     0.120765102  0.069723764  0.000000000
     0.000000000  0.000000000  2.912514264     0.000000000  0.000000000  0.343345958

  length of vectors
     8.280537884  8.280537884  2.912514264     0.139447528  0.139447528  0.343345958


 FORCES acting on ions
    electron-ion (+dipol)            ewald-force                    non-local-force                 convergence-correction
 -----------------------------------------------------------------------------------------------
   0.593E+01 -.155E+02 0.518E-07   -.766E+01 0.207E+02 -.272E-15   0.175E+01 -.519E+01 0.503E-18   0.229E-02 -.384E-01 0.572E-12
   0.164E+02 -.262E+01 0.608E-07   -.218E+02 0.373E+01 -.912E-16   0.536E+01 -.108E+01 0.143E-17   0.344E-01 -.172E-01 -.281E-12
   -.105E+02 -.129E+02 0.420E-07   0.141E+02 0.170E+02 0.111E-14   -.362E+01 -.410E+01 -.796E-18   -.321E-01 -.212E-01 0.191E-11
   0.105E+02 0.129E+02 -.420E-07   -.141E+02 -.170E+02 -.101E-14   0.362E+01 0.410E+01 0.995E-18   0.321E-01 0.212E-01 0.310E-12
   -.164E+02 0.262E+01 -.608E-07   0.218E+02 -.373E+01 -.910E-16   -.536E+01 0.108E+01 0.403E-18   -.344E-01 0.172E-01 0.729E-12
   -.593E+01 0.155E+02 -.518E-07   0.766E+01 -.207E+02 0.668E-15   -.175E+01 0.519E+01 0.139E-18   -.229E-02 0.384E-01 -.315E-12
   -.592E-06 0.140E-06 0.433E-07   -.533E-13 0.821E-11 0.346E-14   0.637E-17 0.233E-17 -.273E-17   0.572E-07 0.882E-07 0.227E-13
   0.592E-06 -.140E-06 -.433E-07   0.604E-13 -.826E-11 0.348E-14   -.130E-17 -.382E-17 -.723E-17   -.572E-07 -.882E-07 0.715E-14
   0.278E+02 0.524E+02 -.362E-08   -.278E+02 -.518E+02 0.750E-15   0.667E-02 -.512E+00 0.696E-18   -.873E-02 -.110E-01 -.133E-12
   -.315E+02 0.502E+02 -.249E-07   0.310E+02 -.500E+02 0.936E-15   0.446E+00 -.250E+00 -.792E-18   0.514E-02 -.131E-01 -.591E-13
   0.593E+02 0.213E+01 -.785E-07   -.588E+02 -.188E+01 0.135E-15   -.440E+00 -.262E+00 -.730E-18   -.139E-01 0.207E-02 -.801E-14
   -.593E+02 -.213E+01 0.785E-07   0.588E+02 0.188E+01 0.293E-14   0.440E+00 0.262E+00 0.563E-18   0.139E-01 -.207E-02 0.432E-13
   -.278E+02 -.524E+02 0.362E-08   0.278E+02 0.518E+02 0.129E-14   -.667E-02 0.512E+00 -.847E-18   0.873E-02 0.110E-01 -.458E-13
   0.315E+02 -.502E+02 0.249E-07   -.310E+02 0.500E+02 0.258E-14   -.446E+00 0.250E+00 0.198E-19   -.514E-02 0.131E-01 0.647E-13
 -----------------------------------------------------------------------------------------------
   -.563E-11 -.591E-12 -.234E-11   -.284E-13 -.355E-13 0.159E-13   -.222E-15 0.777E-15 -.838E-17   0.574E-12 -.201E-12 0.281E-11
 
 
 POSITION                                       TOTAL-FORCE (eV/Angst)
 -----------------------------------------------------------------------------------
      4.31017      4.74189      2.18439         0.019299     -0.001247      0.000000
      2.18875     -1.06749      0.72813         0.010729      0.016090      0.000000
      6.26169     -1.36177      0.72813         0.008569     -0.017337      0.000000
      2.01885      1.36177      2.18439        -0.008569      0.017337     -0.000000
      6.09179      1.06749      2.18439        -0.010729     -0.016090     -0.000000
      3.97037     -4.74189      0.72813        -0.019299      0.001247      0.000000
      4.14027      2.39039      2.18439        -0.000000     -0.000000     -0.000000
      4.14027     -2.39039      0.72813        -0.000000      0.000000     -0.000000
      6.64585     -2.35905      2.18439         0.013834      0.005510     -0.000000
      5.36592      4.57594      0.72813         0.002145      0.014736      0.000000
      5.42019      0.23616      0.72813         0.011689     -0.009225      0.000000
      2.86035     -0.23616      2.18439        -0.011689      0.009225     -0.000000
      1.63469      2.35905      0.72813        -0.013834     -0.005510      0.000000
      2.91461     -4.57594      2.18439        -0.002145     -0.014736     -0.000000
 -----------------------------------------------------------------------------------
    total drift:                               -0.000000     -0.000000      0.000000


--------------------------------------------------------------------------------------------------------



  FREE ENERGIE OF THE ION-ELECTRON SYSTEM (eV)
  ---------------------------------------------------
  free  energy   TOTEN  =       -95.11818934 eV

  energy  without entropy=      -95.12026451  energy(sigma->0) =      -95.11870813
 
 d Force = 0.4551727E-04[-0.205E-05, 0.931E-04]  d Energy = 0.3538379E-04 0.101E-04
 d Force = 0.2578089E+00[ 0.258E+00, 0.258E+00]  d Ewald  = 0.2578090E+00-0.558E-07


--------------------------------------------------------------------------------------------------------


    POTLOK:  cpu time    0.0215: real time    0.0215


--------------------------------------------------------------------------------------------------------




--------------------------------------------------------------------------------------------------------


  
 reached required accuracy - stopping structural energy minimisation
     LOOP+:  cpu time    7.9570: real time    7.9723
    4ORBIT:  cpu time    0.0000: real time    0.0000

 total amount of memory used by VASP MPI-rank0    45272. kBytes
=======================================================================

   base      :      30000. kBytes
   nonlr-proj:       3021. kBytes
   fftplans  :       1514. kBytes
   grid      :       2370. kBytes
   one-center:         12. kBytes
   wavefun   :       8355. kBytes
 
  
  
 General timing and accounting informations for this job:
 ========================================================
  
                  Total CPU time used (sec):      439.805
                            User time (sec):      438.914
                          System time (sec):        0.890
                         Elapsed time (sec):      441.333
  
                   Maximum memory used (kb):       59696.
                   Average memory used (kb):           0.
  
                          Minor page faults:        73677
                          Major page faults:            0
                 Voluntary context switches:         9001
