<?xml version="1.0" encoding="ISO-8859-1"?>
<modeling>
 <generator>
  <i name="program" type="string">vasp </i>
  <i name="version" type="string">5.4.4.18Apr17-6-g9f103f2a35  </i>
  <i name="subversion" type="string">(build Nov 01 2019 12:17:22) complex            parallel </i>
  <i name="platform" type="string">LinuxIFC </i>
  <i name="date" type="string">2023 05 19 </i>
  <i name="time" type="string">18:18:47 </i>
 </generator>
 <incar>
  <i type="string" name="PREC">accurate</i>
  <i type="string" name="ALGO"> Fast</i>
  <i type="int" name="IBRION">     2</i>
  <i type="int" name="NSW">   100</i>
  <i type="int" name="ISIF">     2</i>
  <i type="string" name="LREAL"> Auto</i>
  <i type="int" name="ISMEAR">     2</i>
  <i name="SIGMA">      0.10000000</i>
  <i type="logical" name="LWAVE"> F  </i>
  <i type="logical" name="LCHARG"> F  </i>
  <v type="int" name="KPOINT_BSE">    -1     0     0     0</v>
 </incar>
 <structure name="primitive_cell" >
  <crystal>
   <varray name="basis" >
    <v>       4.14026895      -7.17115616       0.00000000 </v>
    <v>       4.14026894       7.17115617       0.00000000 </v>
    <v>       0.00000000       0.00000000       2.91251426 </v>
   </varray>
   <i name="volume">    172.94809776 </i>
   <varray name="rec_basis" >
    <v>       0.12076510      -0.06972376       0.00000000 </v>
    <v>       0.12076510       0.06972376       0.00000000 </v>
    <v>       0.00000000       0.00000000       0.34334596 </v>
   </varray>
  </crystal>
  <varray name="positions" >
   <v>       0.19708959      -0.16848230      -0.25000000 </v>
   <v>      -0.03641246      -0.38753655      -0.25000000 </v>
   <v>       0.35112409      -0.03641246       0.25000000 </v>
   <v>       0.33333333      -0.33333333      -0.25000000 </v>
   <v>      -0.16848230      -0.36557189       0.25000000 </v>
   <v>       0.36557189       0.19708959       0.25000000 </v>
   <v>      -0.35112409       0.03641246      -0.25000000 </v>
   <v>       0.03641246       0.38753655       0.25000000 </v>
   <v>      -0.36557189      -0.19708959      -0.25000000 </v>
   <v>       0.16848230       0.36557189      -0.25000000 </v>
   <v>       0.38753655       0.35112409      -0.25000000 </v>
   <v>      -0.33333333       0.33333333       0.25000000 </v>
   <v>      -0.38753655      -0.35112409       0.25000000 </v>
   <v>      -0.19708959       0.16848230       0.25000000 </v>
  </varray>
 </structure>
 <varray name="primitive_index" >
  <v type="int" >        1 </v>
  <v type="int" >        9 </v>
  <v type="int" >       10 </v>
  <v type="int" >        7 </v>
  <v type="int" >        3 </v>
  <v type="int" >        2 </v>
  <v type="int" >       14 </v>
  <v type="int" >       13 </v>
  <v type="int" >        5 </v>
  <v type="int" >        4 </v>
  <v type="int" >       12 </v>
  <v type="int" >        8 </v>
  <v type="int" >       11 </v>
  <v type="int" >        6 </v>
 </varray>
 <kpoints>
  <generation param="Auto">
   <i name="subdivisionlength">     45.00000000 </i>
   <v type="int" name="divisions">       6        6       15 </v>
   <v name="usershift">      0.00000000       0.00000000       0.00000000 </v>
   <v name="genvec1">      0.16666667       0.00000000       0.00000000 </v>
   <v name="genvec2">     -0.00000000       0.16666667       0.00000000 </v>
   <v name="genvec3">      0.00000000       0.00000000       0.06666667 </v>
   <v name="shift">      0.00000000       0.00000000       0.00000000 </v>
  </generation>
  <varray name="kpointlist" >
   <v>       0.00000000       0.00000000       0.00000000 </v>
   <v>       0.16666667       0.00000000       0.00000000 </v>
   <v>       0.33333333       0.00000000       0.00000000 </v>
   <v>       0.50000000       0.00000000       0.00000000 </v>
   <v>       0.16666667       0.16666667       0.00000000 </v>
   <v>       0.33333333       0.16666667       0.00000000 </v>
   <v>       0.50000000       0.16666667       0.00000000 </v>
   <v>       0.33333333       0.33333333       0.00000000 </v>
   <v>       0.00000000       0.00000000       0.06666667 </v>
   <v>       0.16666667       0.00000000       0.06666667 </v>
   <v>       0.33333333       0.00000000       0.06666667 </v>
   <v>       0.50000000       0.00000000       0.06666667 </v>
   <v>       0.16666667       0.16666667       0.06666667 </v>
   <v>       0.33333333       0.16666667       0.06666667 </v>
   <v>       0.50000000       0.16666667       0.06666667 </v>
   <v>       0.33333333       0.33333333       0.06666667 </v>
   <v>       0.00000000       0.00000000       0.13333333 </v>
   <v>       0.16666667       0.00000000       0.13333333 </v>
   <v>       0.33333333       0.00000000       0.13333333 </v>
   <v>       0.50000000       0.00000000       0.13333333 </v>
   <v>       0.16666667       0.16666667       0.13333333 </v>
   <v>       0.33333333       0.16666667       0.13333333 </v>
   <v>       0.50000000       0.16666667       0.13333333 </v>
   <v>       0.33333333       0.33333333       0.13333333 </v>
   <v>       0.00000000       0.00000000       0.20000000 </v>
   <v>       0.16666667       0.00000000       0.20000000 </v>
   <v>       0.33333333       0.00000000       0.20000000 </v>
   <v>       0.50000000       0.00000000       0.20000000 </v>
   <v>       0.16666667       0.16666667       0.20000000 </v>
   <v>       0.33333333       0.16666667       0.20000000 </v>
   <v>       0.50000000       0.16666667       0.20000000 </v>
   <v>       0.33333333       0.33333333       0.20000000 </v>
   <v>       0.00000000       0.00000000       0.26666667 </v>
   <v>       0.16666667       0.00000000       0.26666667 </v>
   <v>       0.33333333       0.00000000       0.26666667 </v>
   <v>       0.50000000       0.00000000       0.26666667 </v>
   <v>       0.16666667       0.16666667       0.26666667 </v>
   <v>       0.33333333       0.16666667       0.26666667 </v>
   <v>       0.50000000       0.16666667       0.26666667 </v>
   <v>       0.33333333       0.33333333       0.26666667 </v>
   <v>       0.00000000       0.00000000       0.33333333 </v>
   <v>       0.16666667       0.00000000       0.33333333 </v>
   <v>       0.33333333       0.00000000       0.33333333 </v>
   <v>       0.50000000       0.00000000       0.33333333 </v>
   <v>       0.16666667       0.16666667       0.33333333 </v>
   <v>       0.33333333       0.16666667       0.33333333 </v>
   <v>       0.50000000       0.16666667       0.33333333 </v>
   <v>       0.33333333       0.33333333       0.33333333 </v>
   <v>       0.00000000       0.00000000       0.40000000 </v>
   <v>       0.16666667       0.00000000       0.40000000 </v>
   <v>       0.33333333       0.00000000       0.40000000 </v>
   <v>       0.50000000       0.00000000       0.40000000 </v>
   <v>       0.16666667       0.16666667       0.40000000 </v>
   <v>       0.33333333       0.16666667       0.40000000 </v>
   <v>       0.50000000       0.16666667       0.40000000 </v>
   <v>       0.33333333       0.33333333       0.40000000 </v>
   <v>       0.00000000       0.00000000       0.46666667 </v>
   <v>       0.16666667       0.00000000       0.46666667 </v>
   <v>       0.33333333       0.00000000       0.46666667 </v>
   <v>       0.50000000       0.00000000       0.46666667 </v>
   <v>       0.16666667       0.16666667       0.46666667 </v>
   <v>       0.33333333       0.16666667       0.46666667 </v>
   <v>       0.50000000       0.16666667       0.46666667 </v>
   <v>       0.33333333       0.33333333       0.46666667 </v>
  </varray>
  <varray name="weights" >
   <v>       0.00185185 </v>
   <v>       0.01111111 </v>
   <v>       0.01111111 </v>
   <v>       0.00555556 </v>
   <v>       0.01111111 </v>
   <v>       0.01111111 </v>
   <v>       0.01111111 </v>
   <v>       0.00370370 </v>
   <v>       0.00370370 </v>
   <v>       0.02222222 </v>
   <v>       0.02222222 </v>
   <v>       0.01111111 </v>
   <v>       0.02222222 </v>
   <v>       0.02222222 </v>
   <v>       0.02222222 </v>
   <v>       0.00740741 </v>
   <v>       0.00370370 </v>
   <v>       0.02222222 </v>
   <v>       0.02222222 </v>
   <v>       0.01111111 </v>
   <v>       0.02222222 </v>
   <v>       0.02222222 </v>
   <v>       0.02222222 </v>
   <v>       0.00740741 </v>
   <v>       0.00370370 </v>
   <v>       0.02222222 </v>
   <v>       0.02222222 </v>
   <v>       0.01111111 </v>
   <v>       0.02222222 </v>
   <v>       0.02222222 </v>
   <v>       0.02222222 </v>
   <v>       0.00740741 </v>
   <v>       0.00370370 </v>
   <v>       0.02222222 </v>
   <v>       0.02222222 </v>
   <v>       0.01111111 </v>
   <v>       0.02222222 </v>
   <v>       0.02222222 </v>
   <v>       0.02222222 </v>
   <v>       0.00740741 </v>
   <v>       0.00370370 </v>
   <v>       0.02222222 </v>
   <v>       0.02222222 </v>
   <v>       0.01111111 </v>
   <v>       0.02222222 </v>
   <v>       0.02222222 </v>
   <v>       0.02222222 </v>
   <v>       0.00740741 </v>
   <v>       0.00370370 </v>
   <v>       0.02222222 </v>
   <v>       0.02222222 </v>
   <v>       0.01111111 </v>
   <v>       0.02222222 </v>
   <v>       0.02222222 </v>
   <v>       0.02222222 </v>
   <v>       0.00740741 </v>
   <v>       0.00370370 </v>
   <v>       0.02222222 </v>
   <v>       0.02222222 </v>
   <v>       0.01111111 </v>
   <v>       0.02222222 </v>
   <v>       0.02222222 </v>
   <v>       0.02222222 </v>
   <v>       0.00740741 </v>
  </varray>
 </kpoints>
 <parameters>
  <separator name="general" >
   <i type="string" name="SYSTEM">unknown system</i>
   <i type="logical" name="LCOMPAT"> F  </i>
  </separator>
  <separator name="electronic" >
   <i type="string" name="PREC">accura</i>
   <i name="ENMAX">    400.00000000</i>
   <i name="ENAUG">    627.11200000</i>
   <i name="EDIFF">      0.00010000</i>
   <i type="int" name="IALGO">    68</i>
   <i type="int" name="IWAVPR">    11</i>
   <i type="int" name="NBANDS">    40</i>
   <i name="NELECT">     62.00000000</i>
   <i type="int" name="TURBO">     0</i>
   <i type="int" name="IRESTART">     0</i>
   <i type="int" name="NREBOOT">     0</i>
   <i type="int" name="NMIN">     0</i>
   <i name="EREF">      0.00000000</i>
   <separator name="electronic smearing" >
    <i type="int" name="ISMEAR">     2</i>
    <i name="SIGMA">      0.10000000</i>
    <i name="KSPACING">      0.50000000</i>
    <i type="logical" name="KGAMMA"> T  </i>
   </separator>
   <separator name="electronic projectors" >
    <i type="logical" name="LREAL"> T  </i>
    <v name="ROPT">     -0.00025000     -0.00025000</v>
    <i type="int" name="LMAXPAW">  -100</i>
    <i type="int" name="LMAXMIX">     2</i>
    <i type="logical" name="NLSPLINE"> F  </i>
   </separator>
   <separator name="electronic startup" >
    <i type="int" name="ISTART">     0</i>
    <i type="int" name="ICHARG">     2</i>
    <i type="int" name="INIWAV">     1</i>
   </separator>
   <separator name="electronic spin" >
    <i type="int" name="ISPIN">     1</i>
    <i type="logical" name="LNONCOLLINEAR"> F  </i>
    <v name="MAGMOM">      1.00000000      1.00000000      1.00000000      1.00000000      1.00000000      1.00000000      1.00000000      1.00000000      1.00000000      1.00000000      1.00000000      1.00000000      1.00000000      1.00000000</v>
    <i name="NUPDOWN">     -1.00000000</i>
    <i type="logical" name="LSORBIT"> F  </i>
    <v name="SAXIS">      0.00000000      0.00000000      1.00000000</v>
    <i type="logical" name="LSPIRAL"> F  </i>
    <v name="QSPIRAL">      0.00000000      0.00000000      0.00000000</v>
    <i type="logical" name="LZEROZ"> F  </i>
   </separator>
   <separator name="electronic exchange-correlation" >
    <i type="logical" name="LASPH"> F  </i>
    <i type="logical" name="LMETAGGA"> F  </i>
   </separator>
   <separator name="electronic convergence" >
    <i type="int" name="NELM">    60</i>
    <i type="int" name="NELMDL">    -5</i>
    <i type="int" name="NELMIN">     2</i>
    <i name="ENINI">    400.00000000</i>
    <separator name="electronic convergence detail" >
     <i type="logical" name="LDIAG"> T  </i>
     <i type="logical" name="LSUBROT"> F  </i>
     <i name="WEIMIN">      0.00100000</i>
     <i name="EBREAK">      0.00000063</i>
     <i name="DEPER">      0.30000000</i>
     <i type="int" name="NRMM">     4</i>
     <i name="TIME">      0.40000000</i>
    </separator>
   </separator>
   <separator name="electronic mixer" >
    <i name="AMIX">      0.40000000</i>
    <i name="BMIX">      1.00000000</i>
    <i name="AMIN">      0.10000000</i>
    <i name="AMIX_MAG">      1.60000000</i>
    <i name="BMIX_MAG">      1.00000000</i>
    <separator name="electronic mixer details" >
     <i type="int" name="IMIX">     4</i>
     <i type="logical" name="MIXFIRST"> F  </i>
     <i type="int" name="MAXMIX">   -45</i>
     <i name="WC">    100.00000000</i>
     <i type="int" name="INIMIX">     1</i>
     <i type="int" name="MIXPRE">     1</i>
     <i type="int" name="MREMOVE">     5</i>
    </separator>
   </separator>
   <separator name="electronic dipolcorrection" >
    <i type="logical" name="LDIPOL"> F  </i>
    <i type="logical" name="LMONO"> F  </i>
    <i type="int" name="IDIPOL">     0</i>
    <i name="EPSILON">      1.00000000</i>
    <v name="DIPOL">   -100.00000000   -100.00000000   -100.00000000</v>
    <i name="EFIELD">      0.00000000</i>
   </separator>
  </separator>
  <separator name="grids" >
   <i type="int" name="NGX">    54</i>
   <i type="int" name="NGY">    54</i>
   <i type="int" name="NGZ">    20</i>
   <i type="int" name="NGXF">   108</i>
   <i type="int" name="NGYF">   108</i>
   <i type="int" name="NGZF">    40</i>
   <i type="logical" name="ADDGRID"> F  </i>
  </separator>
  <separator name="ionic" >
   <i type="int" name="NSW">   100</i>
   <i type="int" name="IBRION">     2</i>
   <i type="int" name="MDALGO">     0</i>
   <i type="int" name="ISIF">     2</i>
   <i name="PSTRESS">      0.00000000</i>
   <i name="EDIFFG">      0.00100000</i>
   <i type="int" name="NFREE">     1</i>
   <i name="POTIM">      0.50000000</i>
   <i name="SMASS">     -3.00000000</i>
   <i name="SCALEE">      1.00000000</i>
  </separator>
  <separator name="ionic md" >
   <i name="TEBEG">      0.00010000</i>
   <i name="TEEND">      0.00010000</i>
   <i type="int" name="NBLOCK">     1</i>
   <i type="int" name="KBLOCK">   100</i>
   <i type="int" name="NPACO">   256</i>
   <i name="APACO">     16.00000000</i>
  </separator>
  <separator name="symmetry" >
   <i type="int" name="ISYM">     2</i>
   <i name="SYMPREC">      0.00001000</i>
  </separator>
  <separator name="dos" >
   <i type="int" name="LORBIT">     0</i>
   <v name="RWIGS">     -1.00000000     -1.00000000</v>
   <i type="int" name="NEDOS">   301</i>
   <i name="EMIN">     10.00000000</i>
   <i name="EMAX">    -10.00000000</i>
   <i name="EFERMI">      0.00000000</i>
  </separator>
  <separator name="writing" >
   <i type="int" name="NWRITE">     2</i>
   <i type="logical" name="LWAVE"> F  </i>
   <i type="logical" name="LDOWNSAMPLE"> F  </i>
   <i type="logical" name="LCHARG"> F  </i>
   <i type="logical" name="LPARD"> F  </i>
   <i type="logical" name="LVTOT"> F  </i>
   <i type="logical" name="LVHAR"> F  </i>
   <i type="logical" name="LELF"> F  </i>
   <i type="logical" name="LOPTICS"> F  </i>
   <v name="STM">      0.00000000      0.00000000      0.00000000      0.00000000      0.00000000      0.00000000      0.00000000</v>
  </separator>
  <separator name="performance" >
   <i type="int" name="NPAR">     4</i>
   <i type="int" name="NSIM">     4</i>
   <i type="int" name="NBLK">    -1</i>
   <i type="logical" name="LPLANE"> T  </i>
   <i type="logical" name="LSCALAPACK"> F  </i>
   <i type="logical" name="LSCAAWARE"> F  </i>
   <i type="logical" name="LSCALU"> F  </i>
   <i type="logical" name="LASYNC"> F  </i>
   <i type="logical" name="LORBITALREAL"> F  </i>
  </separator>
  <separator name="miscellaneous" >
   <i type="int" name="IDIOT">     3</i>
   <i type="int" name="ISPECIAL">     0</i>
   <i type="logical" name="LMUSIC"> F  </i>
   <v name="POMASS">     14.00100000     28.08500000</v>
   <v name="DARWINR">      0.00000000      0.00000000</v>
   <v name="DARWINV">      1.00000000      1.00000000</v>
   <i type="logical" name="LCORR"> T  </i>
  </separator>
  <i type="logical" name="GGA_COMPAT"> T  </i>
  <i type="logical" name="LBERRY"> F  </i>
  <i type="int" name="ICORELEVEL">     0</i>
  <i type="logical" name="LDAU"> F  </i>
  <i type="int" name="I_CONSTRAINED_M">     0</i>
  <separator name="electronic exchange-correlation" >
   <i type="string" name="GGA">--</i>
   <i type="int" name="VOSKOWN">     0</i>
   <i type="logical" name="LHFCALC"> F  </i>
   <i type="string" name="PRECFOCK"></i>
   <i type="logical" name="LSYMGRAD"> F  </i>
   <i type="logical" name="LHFONE"> F  </i>
   <i type="logical" name="LRHFCALC"> F  </i>
   <i type="logical" name="LTHOMAS"> F  </i>
   <i type="logical" name="LMODELHF"> F  </i>
   <i name="ENCUT4O">     -1.00000000</i>
   <i type="int" name="EXXOEP">     0</i>
   <i type="int" name="FOURORBIT">     0</i>
   <i name="AEXX">      0.00000000</i>
   <i name="HFALPHA">      0.00000000</i>
   <i name="MCALPHA">      0.00000000</i>
   <i name="ALDAX">      1.00000000</i>
   <i name="AGGAX">      1.00000000</i>
   <i name="ALDAC">      1.00000000</i>
   <i name="AGGAC">      1.00000000</i>
   <i type="int" name="NKREDX">     1</i>
   <i type="int" name="NKREDY">     1</i>
   <i type="int" name="NKREDZ">     1</i>
   <i type="logical" name="SHIFTRED"> F  </i>
   <i type="logical" name="ODDONLY"> F  </i>
   <i type="logical" name="EVENONLY"> F  </i>
   <i type="int" name="LMAXFOCK">     0</i>
   <i type="int" name="NMAXFOCKAE">     0</i>
   <i type="logical" name="LFOCKAEDFT"> F  </i>
   <i name="HFSCREEN">      0.00000000</i>
   <i name="HFSCREENC">      0.00000000</i>
   <i type="int" name="NBANDSGWLOW">     0</i>
  </separator>
  <separator name="vdW DFT" >
   <i type="logical" name="LUSE_VDW"> F  </i>
   <i name="Zab_VDW">     -0.84910000</i>
   <i name="PARAM1">      0.12340000</i>
   <i name="PARAM2">      1.00000000</i>
   <i name="PARAM3">      0.00000000</i>
  </separator>
  <separator name="model GW" >
   <i type="int" name="MODEL_GW">     0</i>
   <i name="MODEL_EPS0">      7.41206133</i>
   <i name="MODEL_ALPHA">      1.00000000</i>
  </separator>
  <separator name="linear response parameters" >
   <i type="logical" name="LEPSILON"> F  </i>
   <i type="logical" name="LRPA"> F  </i>
   <i type="logical" name="LNABLA"> F  </i>
   <i type="logical" name="LVEL"> F  </i>
   <i type="int" name="KINTER">     0</i>
   <i name="CSHIFT">      0.10000000</i>
   <i name="OMEGAMAX">     -1.00000000</i>
   <i name="DEG_THRESHOLD">      0.00200000</i>
   <i name="RTIME">     -0.10000000</i>
   <i name="WPLASMAI">      0.00000000</i>
   <v name="DFIELD">      0.00000000      0.00000000      0.00000000</v>
   <v name="WPLASMA">      0.00000000      0.00000000      0.00000000      0.00000000      0.00000000      0.00000000      0.00000000      0.00000000      0.00000000</v>
  </separator>
  <separator name="orbital magnetization" >
   <i type="logical" name="NUCIND"> F  </i>
   <v name="MAGPOS">      0.00000000      0.00000000      0.00000000</v>
   <i type="logical" name="LNICSALL"> T  </i>
   <i type="logical" name="ORBITALMAG"> F  </i>
   <i type="logical" name="LMAGBLOCH"> F  </i>
   <i type="logical" name="LCHIMAG"> F  </i>
   <i type="logical" name="LGAUGE"> T  </i>
   <i type="int" name="MAGATOM">     0</i>
   <v name="MAGDIPOL">      0.00000000      0.00000000      0.00000000</v>
   <v name="AVECCONST">      0.00000000      0.00000000      0.00000000</v>
  </separator>
  <separator name="response functions" >
   <i type="logical" name="LADDER"> F  </i>
   <i type="logical" name="LRPAFORCE"> F  </i>
   <i type="logical" name="LFXC"> F  </i>
   <i type="logical" name="LHARTREE"> T  </i>
   <i type="int" name="IBSE">     0</i>
   <v type="int" name="KPOINT">    -1     0     0     0</v>
   <i type="logical" name="LTCTE"> F  </i>
   <i type="logical" name="LTETE"> F  </i>
   <i type="logical" name="LTRIPLET"> F  </i>
   <i type="logical" name="LFXCEPS"> F  </i>
   <i type="logical" name="LFXHEG"> F  </i>
   <i type="int" name="NATURALO">     2</i>
   <i type="logical" name="L2ORDER"> F  </i>
   <i type="logical" name="LMP2LT"> F  </i>
   <i type="logical" name="LUSEW"> F  </i>
   <i name="ENCUTGW">     -2.00000000</i>
   <i name="ENCUTGWSOFT">     -2.00000000</i>
   <i name="ENCUTLF">     -1.00000000</i>
   <i type="int" name="LMAXMP2">    -1</i>
   <i name="SCISSOR">      0.00000000</i>
   <i type="int" name="NOMEGA">     0</i>
   <i type="int" name="NOMEGAR">     0</i>
   <i type="int" name="NBANDSGW">    -1</i>
   <i type="int" name="NBANDSO">    -1</i>
   <i type="int" name="NBANDSV">    -1</i>
   <i type="int" name="NELM">     1</i>
   <i type="int" name="NELMHF">     1</i>
   <i type="int" name="DIM">     3</i>
   <i type="int" name="ANTIRES">     0</i>
   <i name="OMEGAMAX">    -30.00000000</i>
   <i name="OMEGAMIN">    -30.00000000</i>
   <i name="OMEGATL">   -200.00000000</i>
   <i type="int" name="OMEGAGRID">   140</i>
   <i name="CSHIFT">     -0.10000000</i>
   <i type="logical" name="SELFENERGY"> F  </i>
   <i type="logical" name="LSPECTRAL"> F  </i>
   <i type="logical" name="LSPECTRALGW"> F  </i>
   <i type="logical" name="LSINGLES"> F  </i>
   <i type="logical" name="LFERMIGW"> F  </i>
   <i type="logical" name="ODDONLYGW"> F  </i>
   <i type="logical" name="EVENONLYGW"> F  </i>
   <i type="int" name="NKREDLFX">     1</i>
   <i type="int" name="NKREDLFY">     1</i>
   <i type="int" name="NKREDLFZ">     1</i>
   <i type="int" name="MAXMEM">  2800</i>
   <i type="int" name="TELESCOPE">     0</i>
   <i type="int" name="TAUPAR">     1</i>
   <i type="int" name="OMEGAPAR">    -1</i>
   <i name="LAMBDA">      1.00000000</i>
  </separator>
  <separator name="External order field" >
   <i name="OFIELD_KAPPA">      0.00000000</i>
   <v name="OFIELD_K">      0.00000000      0.00000000      0.00000000</v>
   <i name="OFIELD_Q6_NEAR">      0.00000000</i>
   <i name="OFIELD_Q6_FAR">      0.00000000</i>
   <i name="OFIELD_A">      0.00000000</i>
  </separator>
 </parameters>
 <atominfo>
  <atoms>      14 </atoms>
  <types>       2 </types>
  <array name="atoms" >
   <dimension dim="1">ion</dimension>
   <field type="string">element</field>
   <field type="int">atomtype</field>
   <set>
    <rc><c>N </c><c>   1</c></rc>
    <rc><c>N </c><c>   1</c></rc>
    <rc><c>N </c><c>   1</c></rc>
    <rc><c>N </c><c>   1</c></rc>
    <rc><c>N </c><c>   1</c></rc>
    <rc><c>N </c><c>   1</c></rc>
    <rc><c>Si</c><c>   2</c></rc>
    <rc><c>Si</c><c>   2</c></rc>
    <rc><c>Si</c><c>   2</c></rc>
    <rc><c>Si</c><c>   2</c></rc>
    <rc><c>Si</c><c>   2</c></rc>
    <rc><c>Si</c><c>   2</c></rc>
    <rc><c>Si</c><c>   2</c></rc>
    <rc><c>Si</c><c>   2</c></rc>
   </set>
  </array>
  <array name="atomtypes" >
   <dimension dim="1">type</dimension>
   <field type="int">atomspertype</field>
   <field type="string">element</field>
   <field>mass</field>
   <field>valence</field>
   <field type="string">pseudopotential</field>
   <set>
    <rc><c>   6</c><c>N </c><c>     14.00100000</c><c>      5.00000000</c><c>  PAW_PBE N 08Apr2002                   </c></rc>
    <rc><c>   8</c><c>Si</c><c>     28.08500000</c><c>      4.00000000</c><c>  PAW_PBE Si 05Jan2001                  </c></rc>
   </set>
  </array>
 </atominfo>
 <structure name="initialpos" >
  <crystal>
   <varray name="basis" >
    <v>       4.14026895      -7.17115616       0.00000000 </v>
    <v>       4.14026894       7.17115617       0.00000000 </v>
    <v>       0.00000000       0.00000000       2.91251426 </v>
   </varray>
   <i name="volume">    172.94809776 </i>
   <varray name="rec_basis" >
    <v>       0.12076510      -0.06972376       0.00000000 </v>
    <v>       0.12076510       0.06972376       0.00000000 </v>
    <v>       0.00000000       0.00000000       0.34334596 </v>
   </varray>
  </crystal>
  <varray name="positions" >
   <v>       0.19708959       0.83151770       0.75000000 </v>
   <v>       0.36557189       0.19708959       0.25000000 </v>
   <v>       0.83151770       0.63442811       0.25000000 </v>
   <v>       0.16848230       0.36557189       0.75000000 </v>
   <v>       0.63442811       0.80291041       0.75000000 </v>
   <v>       0.80291041       0.16848230       0.25000000 </v>
   <v>       0.33333333       0.66666667       0.75000000 </v>
   <v>       0.66666667       0.33333333       0.25000000 </v>
   <v>       0.96358754       0.61246345       0.75000000 </v>
   <v>       0.35112409       0.96358754       0.25000000 </v>
   <v>       0.61246345       0.64887591       0.25000000 </v>
   <v>       0.38753655       0.35112409       0.75000000 </v>
   <v>       0.03641246       0.38753655       0.25000000 </v>
   <v>       0.64887591       0.03641246       0.75000000 </v>
  </varray>
 </structure>
 <calculation>
  <scstep>
   <time name="dav">    2.54    2.54</time>
   <time name="total">    2.57    2.58</time>
   <energy>
    <i name="alphaZ">     70.48663321 </i>
    <i name="ewald">  -2159.71658403 </i>
    <i name="hartreedc">   -537.15835092 </i>
    <i name="XCdc">     48.84175040 </i>
    <i name="pawpsdc">   1934.58678659 </i>
    <i name="pawaedc">  -1800.98643654 </i>
    <i name="eentropy">     -0.00085647 </i>
    <i name="bandstr">    259.32704303 </i>
    <i name="atom">   2411.37598431 </i>
    <i name="e_fr_energy">    226.75596959 </i>
    <i name="e_wo_entrp">    226.75682605 </i>
    <i name="e_0_energy">    226.75618371 </i>
   </energy>
  </scstep>
  <scstep>
   <time name="dav">    3.05    3.05</time>
   <time name="total">    3.06    3.06</time>
   <energy>
    <i name="e_fr_energy">    -78.63074997 </i>
    <i name="e_wo_entrp">    -78.63046569 </i>
    <i name="e_0_energy">    -78.63067890 </i>
   </energy>
  </scstep>
  <scstep>
   <time name="dav">    3.07    3.07</time>
   <time name="total">    3.07    3.07</time>
   <energy>
    <i name="e_fr_energy">   -102.70528052 </i>
    <i name="e_wo_entrp">   -102.70342766 </i>
    <i name="e_0_energy">   -102.70481731 </i>
   </energy>
  </scstep>
  <scstep>
   <time name="dav">    3.11    3.11</time>
   <time name="total">    3.11    3.11</time>
   <energy>
    <i name="e_fr_energy">   -103.35170857 </i>
    <i name="e_wo_entrp">   -103.34837497 </i>
    <i name="e_0_energy">   -103.35087517 </i>
   </energy>
  </scstep>
  <scstep>
   <time name="dav">    3.08    3.09</time>
   <time name="total">    3.22    3.22</time>
   <energy>
    <i name="e_fr_energy">   -103.36842699 </i>
    <i name="e_wo_entrp">   -103.36506753 </i>
    <i name="e_0_energy">   -103.36758712 </i>
   </energy>
  </scstep>
  <scstep>
   <time name="diag">    0.33    0.33</time>
   <time name="diis">    1.73    1.73</time>
   <time name="orth">    0.03    0.03</time>
   <time name="total">    2.24    2.25</time>
   <energy>
    <i name="e_fr_energy">    -95.29247792 </i>
    <i name="e_wo_entrp">    -95.29207677 </i>
    <i name="e_0_energy">    -95.29237763 </i>
   </energy>
  </scstep>
  <scstep>
   <time name="diag">    0.33    0.33</time>
   <time name="diis">    1.76    1.76</time>
   <time name="orth">    0.03    0.03</time>
   <time name="total">    2.27    2.28</time>
   <energy>
    <i name="e_fr_energy">    -94.77518383 </i>
    <i name="e_wo_entrp">    -94.77521690 </i>
    <i name="e_0_energy">    -94.77519210 </i>
   </energy>
  </scstep>
  <scstep>
   <time name="diag">    0.33    0.33</time>
   <time name="diis">    1.73    1.73</time>
   <time name="orth">    0.03    0.03</time>
   <time name="total">    2.25    2.26</time>
   <energy>
    <i name="e_fr_energy">    -94.70800772 </i>
    <i name="e_wo_entrp">    -94.70919394 </i>
    <i name="e_0_energy">    -94.70830428 </i>
   </energy>
  </scstep>
  <scstep>
   <time name="diag">    0.33    0.33</time>
   <time name="diis">    1.74    1.74</time>
   <time name="orth">    0.03    0.03</time>
   <time name="total">    2.25    2.26</time>
   <energy>
    <i name="e_fr_energy">    -94.67824163 </i>
    <i name="e_wo_entrp">    -94.67830975 </i>
    <i name="e_0_energy">    -94.67825866 </i>
   </energy>
  </scstep>
  <scstep>
   <time name="diag">    0.33    0.33</time>
   <time name="diis">    1.76    1.76</time>
   <time name="orth">    0.03    0.03</time>
   <time name="total">    2.27    2.28</time>
   <energy>
    <i name="e_fr_energy">    -94.67732843 </i>
    <i name="e_wo_entrp">    -94.67744207 </i>
    <i name="e_0_energy">    -94.67735684 </i>
   </energy>
  </scstep>
  <scstep>
   <time name="diag">    0.32    0.32</time>
   <time name="diis">    1.72    1.72</time>
   <time name="orth">    0.03    0.03</time>
   <time name="total">    2.24    2.24</time>
   <energy>
    <i name="e_fr_energy">    -94.67791440 </i>
    <i name="e_wo_entrp">    -94.67810271 </i>
    <i name="e_0_energy">    -94.67796148 </i>
   </energy>
  </scstep>
  <scstep>
   <time name="diag">    0.32    0.32</time>
   <time name="diis">    1.62    1.62</time>
   <time name="orth">    0.03    0.03</time>
   <time name="total">    1.99    2.00</time>
   <energy>
    <i name="alphaZ">     70.48663321 </i>
    <i name="ewald">  -2159.71658403 </i>
    <i name="hartreedc">   -618.26144160 </i>
    <i name="XCdc">     54.97500876 </i>
    <i name="pawpsdc">   6117.03216049 </i>
    <i name="pawaedc">  -5984.47041994 </i>
    <i name="eentropy">      0.00018666 </i>
    <i name="bandstr">     13.90059989 </i>
    <i name="atom">   2411.37598431 </i>
    <i name="e_fr_energy">    -94.67787224 </i>
    <i name="e_wo_entrp">    -94.67805890 </i>
    <i name="e_0_energy">    -94.67791891 </i>
   </energy>
  </scstep>
  <structure>
   <crystal>
    <varray name="basis" >
     <v>       4.14026895      -7.17115616       0.00000000 </v>
     <v>       4.14026894       7.17115617       0.00000000 </v>
     <v>       0.00000000       0.00000000       2.91251426 </v>
    </varray>
    <i name="volume">    172.94809776 </i>
    <varray name="rec_basis" >
     <v>       0.12076510      -0.06972376       0.00000000 </v>
     <v>       0.12076510       0.06972376       0.00000000 </v>
     <v>       0.00000000       0.00000000       0.34334596 </v>
    </varray>
   </crystal>
   <varray name="positions" >
    <v>       0.19708959       0.83151770       0.75000000 </v>
    <v>       0.36557189       0.19708959       0.25000000 </v>
    <v>       0.83151770       0.63442811       0.25000000 </v>
    <v>       0.16848230       0.36557189       0.75000000 </v>
    <v>       0.63442811       0.80291041       0.75000000 </v>
    <v>       0.80291041       0.16848230       0.25000000 </v>
    <v>       0.33333333       0.66666667       0.75000000 </v>
    <v>       0.66666667       0.33333333       0.25000000 </v>
    <v>       0.96358754       0.61246345       0.75000000 </v>
    <v>       0.35112409       0.96358754       0.25000000 </v>
    <v>       0.61246345       0.64887591       0.25000000 </v>
    <v>       0.38753655       0.35112409       0.75000000 </v>
    <v>       0.03641246       0.38753655       0.25000000 </v>
    <v>       0.64887591       0.03641246       0.75000000 </v>
   </varray>
  </structure>
  <varray name="forces" >
   <v>       0.17851352      -0.38172751      -0.00000000 </v>
   <v>       0.41984248      -0.03626651      -0.00000000 </v>
   <v>      -0.24132896      -0.34546099      -0.00000000 </v>
   <v>       0.24132896       0.34546099      -0.00000000 </v>
   <v>      -0.41984248       0.03626651      -0.00000000 </v>
   <v>      -0.17851352       0.38172751       0.00000000 </v>
   <v>      -0.00000000       0.00000000       0.00000000 </v>
   <v>      -0.00000000       0.00000000      -0.00000000 </v>
   <v>       0.24388653       0.70844631      -0.00000000 </v>
   <v>      -0.49158924       0.56543508       0.00000000 </v>
   <v>       0.73547577       0.14301123       0.00000000 </v>
   <v>      -0.73547577      -0.14301123      -0.00000000 </v>
   <v>      -0.24388653      -0.70844631       0.00000000 </v>
   <v>       0.49158924      -0.56543508       0.00000000 </v>
  </varray>
  <varray name="stress" >
   <v>    -148.84565329       0.00000039      -0.00000000 </v>
   <v>      -0.00000039    -148.84565329       0.00000000 </v>
   <v>       0.00000000       0.00000000    -160.55290212 </v>
  </varray>
  <energy>
   <i name="e_fr_energy">    -94.67787224 </i>
   <i name="e_wo_entrp">    -94.67791891 </i>
   <i name="e_0_energy">      0.00018666 </i>
  </energy>
  <time name="totalsc">   34.39   34.44</time>
 </calculation>
 <calculation>
  <scstep>
   <time name="dav">    2.71    2.71</time>
   <time name="total">    2.87    2.88</time>
   <energy>
    <i name="alphaZ">     70.48663321 </i>
    <i name="ewald">  -2148.11277516 </i>
    <i name="hartreedc">   -625.29474841 </i>
    <i name="XCdc">     55.18983631 </i>
    <i name="pawpsdc">   6117.65637271 </i>
    <i name="pawaedc">  -5985.09460697 </i>
    <i name="eentropy">      0.00125299 </i>
    <i name="bandstr">      9.03880900 </i>
    <i name="atom">   2411.37598431 </i>
    <i name="e_fr_energy">    -94.75324201 </i>
    <i name="e_wo_entrp">    -94.75449500 </i>
    <i name="e_0_energy">    -94.75355526 </i>
   </energy>
  </scstep>
  <scstep>
   <time name="diag">    0.33    0.33</time>
   <time name="diis">    1.74    1.74</time>
   <time name="orth">    0.03    0.03</time>
   <time name="total">    2.26    2.26</time>
   <energy>
    <i name="e_fr_energy">    -94.76649333 </i>
    <i name="e_wo_entrp">    -94.76783775 </i>
    <i name="e_0_energy">    -94.76682944 </i>
   </energy>
  </scstep>
  <scstep>
   <time name="diag">    0.33    0.33</time>
   <time name="diis">    1.78    1.78</time>
   <time name="orth">    0.03    0.03</time>
   <time name="total">    2.29    2.30</time>
   <energy>
    <i name="e_fr_energy">    -94.76267405 </i>
    <i name="e_wo_entrp">    -94.76419576 </i>
    <i name="e_0_energy">    -94.76305448 </i>
   </energy>
  </scstep>
  <scstep>
   <time name="diag">    0.33    0.33</time>
   <time name="diis">    1.78    1.78</time>
   <time name="orth">    0.03    0.03</time>
   <time name="total">    2.30    2.30</time>
   <energy>
    <i name="e_fr_energy">    -94.76243676 </i>
    <i name="e_wo_entrp">    -94.76396940 </i>
    <i name="e_0_energy">    -94.76281992 </i>
   </energy>
  </scstep>
  <scstep>
   <time name="diag">    0.33    0.33</time>
   <time name="diis">    1.38    1.38</time>
   <time name="orth">    0.03    0.03</time>
   <time name="total">    1.76    1.76</time>
   <energy>
    <i name="alphaZ">     70.48663321 </i>
    <i name="ewald">  -2148.11277516 </i>
    <i name="hartreedc">   -628.52153899 </i>
    <i name="XCdc">     55.34975165 </i>
    <i name="pawpsdc">   6269.26538229 </i>
    <i name="pawaedc">  -6136.77641766 </i>
    <i name="eentropy">      0.00151779 </i>
    <i name="bandstr">     12.16898194 </i>
    <i name="atom">   2411.37598431 </i>
    <i name="e_fr_energy">    -94.76248062 </i>
    <i name="e_wo_entrp">    -94.76399841 </i>
    <i name="e_0_energy">    -94.76286007 </i>
   </energy>
  </scstep>
  <structure>
   <crystal>
    <varray name="basis" >
     <v>       4.14026895      -7.17115616       0.00000000 </v>
     <v>       4.14026894       7.17115617       0.00000000 </v>
     <v>       0.00000000       0.00000000       2.91251426 </v>
    </varray>
    <i name="volume">    172.94809776 </i>
    <varray name="rec_basis" >
     <v>       0.12076510      -0.06972376       0.00000000 </v>
     <v>       0.12076510       0.06972376       0.00000000 </v>
     <v>       0.00000000       0.00000000       0.34334596 </v>
    </varray>
   </crystal>
   <varray name="positions" >
    <v>       0.19941362       0.83127373       0.75000000 </v>
    <v>       0.36813989       0.19941362       0.25000000 </v>
    <v>       0.83127373       0.63186011       0.25000000 </v>
    <v>       0.16872627       0.36813989       0.75000000 </v>
    <v>       0.63186011       0.80058638       0.75000000 </v>
    <v>       0.80058638       0.16872627       0.25000000 </v>
    <v>       0.33333333       0.66666667       0.75000000 </v>
    <v>       0.66666667       0.33333333       0.25000000 </v>
    <v>       0.96262546       0.61626731       0.75000000 </v>
    <v>       0.34635815       0.96262546       0.25000000 </v>
    <v>       0.61626731       0.65364185       0.25000000 </v>
    <v>       0.38373269       0.34635815       0.75000000 </v>
    <v>       0.03737454       0.38373269       0.25000000 </v>
    <v>       0.65364185       0.03737454       0.75000000 </v>
   </varray>
  </structure>
  <varray name="forces" >
   <v>      -0.15387070       0.23849139       0.00000000 </v>
   <v>      -0.28347495      -0.01401025      -0.00000000 </v>
   <v>       0.12960425       0.25250163      -0.00000000 </v>
   <v>      -0.12960425      -0.25250163       0.00000000 </v>
   <v>       0.28347495       0.01401025       0.00000000 </v>
   <v>       0.15387070      -0.23849139      -0.00000000 </v>
   <v>      -0.00000000       0.00000000       0.00000000 </v>
   <v>      -0.00000000       0.00000000       0.00000000 </v>
   <v>       0.07537432      -0.06837315      -0.00000000 </v>
   <v>       0.09690004       0.03108950       0.00000000 </v>
   <v>      -0.02152573      -0.09946265       0.00000000 </v>
   <v>       0.02152573       0.09946265      -0.00000000 </v>
   <v>      -0.07537432       0.06837315       0.00000000 </v>
   <v>      -0.09690004      -0.03108950      -0.00000000 </v>
  </varray>
  <varray name="stress" >
   <v>    -126.07213056       0.00000011      -0.00000000 </v>
   <v>      -0.00000011    -126.07213056       0.00000000 </v>
   <v>      -0.00000000       0.00000000    -148.76714526 </v>
  </varray>
  <energy>
   <i name="e_fr_energy">    -94.76248062 </i>
   <i name="e_wo_entrp">    -94.76286007 </i>
   <i name="e_0_energy">      0.00151779 </i>
  </energy>
  <time name="totalsc">   15.34   15.36</time>
 </calculation>
 <calculation>
  <scstep>
   <time name="dav">    2.93    2.93</time>
   <time name="total">    3.09    3.09</time>
   <energy>
    <i name="alphaZ">     70.48663321 </i>
    <i name="ewald">  -2150.06675128 </i>
    <i name="hartreedc">   -627.49882166 </i>
    <i name="XCdc">     55.32070959 </i>
    <i name="pawpsdc">   6282.13572634 </i>
    <i name="pawaedc">  -6149.64833407 </i>
    <i name="eentropy">      0.00159257 </i>
    <i name="bandstr">     13.12730209 </i>
    <i name="atom">   2411.37598431 </i>
    <i name="e_fr_energy">    -94.76595889 </i>
    <i name="e_wo_entrp">    -94.76755146 </i>
    <i name="e_0_energy">    -94.76635703 </i>
   </energy>
  </scstep>
  <scstep>
   <time name="diag">    0.33    0.33</time>
   <time name="diis">    1.74    1.74</time>
   <time name="orth">    0.03    0.03</time>
   <time name="total">    2.26    2.26</time>
   <energy>
    <i name="e_fr_energy">    -94.76627956 </i>
    <i name="e_wo_entrp">    -94.76788349 </i>
    <i name="e_0_energy">    -94.76668054 </i>
   </energy>
  </scstep>
  <scstep>
   <time name="diag">    0.33    0.33</time>
   <time name="diis">    1.67    1.67</time>
   <time name="orth">    0.03    0.03</time>
   <time name="total">    2.19    2.19</time>
   <energy>
    <i name="e_fr_energy">    -94.76617594 </i>
    <i name="e_wo_entrp">    -94.76778582 </i>
    <i name="e_0_energy">    -94.76657841 </i>
   </energy>
  </scstep>
  <scstep>
   <time name="diag">    0.33    0.33</time>
   <time name="diis">    1.12    1.12</time>
   <time name="orth">    0.03    0.03</time>
   <time name="total">    1.50    1.50</time>
   <energy>
    <i name="alphaZ">     70.48663321 </i>
    <i name="ewald">  -2150.06675128 </i>
    <i name="hartreedc">   -626.98096164 </i>
    <i name="XCdc">     55.29410748 </i>
    <i name="pawpsdc">   6263.96641331 </i>
    <i name="pawaedc">  -6131.46628771 </i>
    <i name="eentropy">      0.00160436 </i>
    <i name="bandstr">     12.62309196 </i>
    <i name="atom">   2411.37598431 </i>
    <i name="e_fr_energy">    -94.76616600 </i>
    <i name="e_wo_entrp">    -94.76777036 </i>
    <i name="e_0_energy">    -94.76656709 </i>
   </energy>
  </scstep>
  <structure>
   <crystal>
    <varray name="basis" >
     <v>       4.14026895      -7.17115616       0.00000000 </v>
     <v>       4.14026894       7.17115617       0.00000000 </v>
     <v>       0.00000000       0.00000000       2.91251426 </v>
    </varray>
    <i name="volume">    172.94809776 </i>
    <varray name="rec_basis" >
     <v>       0.12076510      -0.06972376       0.00000000 </v>
     <v>       0.12076510       0.06972376       0.00000000 </v>
     <v>       0.00000000       0.00000000       0.34334596 </v>
    </varray>
   </crystal>
   <varray name="positions" >
    <v>       0.19901817       0.83131524       0.75000000 </v>
    <v>       0.36770293       0.19901817       0.25000000 </v>
    <v>       0.83131524       0.63229707       0.25000000 </v>
    <v>       0.16868476       0.36770293       0.75000000 </v>
    <v>       0.63229707       0.80098183       0.75000000 </v>
    <v>       0.80098183       0.16868476       0.25000000 </v>
    <v>       0.33333333       0.66666667       0.75000000 </v>
    <v>       0.66666667       0.33333333       0.25000000 </v>
    <v>       0.96278916       0.61562006       0.75000000 </v>
    <v>       0.34716910       0.96278916       0.25000000 </v>
    <v>       0.61562006       0.65283090       0.25000000 </v>
    <v>       0.38437994       0.34716910       0.75000000 </v>
    <v>       0.03721084       0.38437994       0.25000000 </v>
    <v>       0.65283090       0.03721084       0.75000000 </v>
   </varray>
  </structure>
  <varray name="forces" >
   <v>      -0.09814388       0.13565348       0.00000000 </v>
   <v>      -0.16655130      -0.01716835       0.00000000 </v>
   <v>       0.06840742       0.15282183       0.00000000 </v>
   <v>      -0.06840742      -0.15282183       0.00000000 </v>
   <v>       0.16655130       0.01716835       0.00000000 </v>
   <v>       0.09814388      -0.13565348       0.00000000 </v>
   <v>      -0.00000000       0.00000000       0.00000000 </v>
   <v>      -0.00000000      -0.00000000       0.00000000 </v>
   <v>       0.10213362       0.06168243       0.00000000 </v>
   <v>      -0.00235174       0.11929153      -0.00000000 </v>
   <v>       0.10448536      -0.05760910      -0.00000000 </v>
   <v>      -0.10448536       0.05760910       0.00000000 </v>
   <v>      -0.10213362      -0.06168243       0.00000000 </v>
   <v>       0.00235174      -0.11929153      -0.00000000 </v>
  </varray>
  <varray name="stress" >
   <v>    -131.25539548       0.00000012       0.00000000 </v>
   <v>      -0.00000012    -131.25539548       0.00000000 </v>
   <v>      -0.00000000       0.00000000    -151.96646570 </v>
  </varray>
  <energy>
   <i name="e_fr_energy">    -94.76616600 </i>
   <i name="e_wo_entrp">    -94.76656709 </i>
   <i name="e_0_energy">      0.00160436 </i>
  </energy>
  <time name="totalsc">   12.90   12.91</time>
 </calculation>
 <calculation>
  <scstep>
   <time name="dav">    2.64    2.64</time>
   <time name="total">    2.81    2.81</time>
   <energy>
    <i name="alphaZ">     70.48663321 </i>
    <i name="ewald">  -2152.38525755 </i>
    <i name="hartreedc">   -624.47016289 </i>
    <i name="XCdc">     55.27196451 </i>
    <i name="pawpsdc">   6257.87786773 </i>
    <i name="pawaedc">  -6125.37677733 </i>
    <i name="eentropy">      0.00140182 </i>
    <i name="bandstr">     12.44455840 </i>
    <i name="atom">   2411.37598431 </i>
    <i name="e_fr_energy">    -94.77378778 </i>
    <i name="e_wo_entrp">    -94.77518960 </i>
    <i name="e_0_energy">    -94.77413823 </i>
   </energy>
  </scstep>
  <scstep>
   <time name="diag">    0.33    0.33</time>
   <time name="diis">    1.73    1.73</time>
   <time name="orth">    0.03    0.03</time>
   <time name="total">    2.25    2.25</time>
   <energy>
    <i name="e_fr_energy">    -94.77629579 </i>
    <i name="e_wo_entrp">    -94.77783572 </i>
    <i name="e_0_energy">    -94.77668077 </i>
   </energy>
  </scstep>
  <scstep>
   <time name="diag">    0.33    0.33</time>
   <time name="diis">    1.79    1.79</time>
   <time name="orth">    0.03    0.03</time>
   <time name="total">    2.31    2.31</time>
   <energy>
    <i name="e_fr_energy">    -94.77608055 </i>
    <i name="e_wo_entrp">    -94.77764529 </i>
    <i name="e_0_energy">    -94.77647173 </i>
   </energy>
  </scstep>
  <scstep>
   <time name="diag">    0.33    0.33</time>
   <time name="diis">    1.16    1.16</time>
   <time name="orth">    0.03    0.03</time>
   <time name="total">    1.54    1.54</time>
   <energy>
    <i name="alphaZ">     70.48663321 </i>
    <i name="ewald">  -2152.38525755 </i>
    <i name="hartreedc">   -624.74834248 </i>
    <i name="XCdc">     55.29156007 </i>
    <i name="pawpsdc">   6259.53580618 </i>
    <i name="pawaedc">  -6127.04500133 </i>
    <i name="eentropy">      0.00155033 </i>
    <i name="bandstr">     12.71104984 </i>
    <i name="atom">   2411.37598431 </i>
    <i name="e_fr_energy">    -94.77601741 </i>
    <i name="e_wo_entrp">    -94.77756774 </i>
    <i name="e_0_energy">    -94.77640500 </i>
   </energy>
  </scstep>
  <structure>
   <crystal>
    <varray name="basis" >
     <v>       4.14026895      -7.17115616       0.00000000 </v>
     <v>       4.14026894       7.17115617       0.00000000 </v>
     <v>       0.00000000       0.00000000       2.91251426 </v>
    </varray>
    <i name="volume">    172.94809776 </i>
    <varray name="rec_basis" >
     <v>       0.12076510      -0.06972376       0.00000000 </v>
     <v>       0.12076510       0.06972376       0.00000000 </v>
     <v>       0.00000000       0.00000000       0.34334596 </v>
    </varray>
   </crystal>
   <varray name="positions" >
    <v>       0.19815560       0.83118997       0.75000000 </v>
    <v>       0.36696563       0.19815560       0.25000000 </v>
    <v>       0.83118997       0.63303437       0.25000000 </v>
    <v>       0.16881003       0.36696563       0.75000000 </v>
    <v>       0.63303437       0.80184440       0.75000000 </v>
    <v>       0.80184440       0.16881003       0.25000000 </v>
    <v>       0.33333333       0.66666667       0.75000000 </v>
    <v>       0.66666667       0.33333333       0.25000000 </v>
    <v>       0.96310949       0.61660890       0.75000000 </v>
    <v>       0.34650059       0.96310949       0.25000000 </v>
    <v>       0.61660890       0.65349941       0.25000000 </v>
    <v>       0.38339110       0.34650059       0.75000000 </v>
    <v>       0.03689051       0.38339110       0.25000000 </v>
    <v>       0.65349941       0.03689051       0.75000000 </v>
   </varray>
  </structure>
  <varray name="forces" >
   <v>      -0.00187059       0.16034712       0.00000000 </v>
   <v>      -0.13979998       0.07855358      -0.00000000 </v>
   <v>       0.13792938       0.08179354       0.00000000 </v>
   <v>      -0.13792938      -0.08179354      -0.00000000 </v>
   <v>       0.13979998      -0.07855358       0.00000000 </v>
   <v>       0.00187059      -0.16034712       0.00000000 </v>
   <v>      -0.00000000       0.00000000       0.00000000 </v>
   <v>      -0.00000000       0.00000000       0.00000000 </v>
   <v>       0.02399857       0.08530764      -0.00000000 </v>
   <v>      -0.06187930       0.06343719       0.00000000 </v>
   <v>       0.08587787       0.02187045       0.00000000 </v>
   <v>      -0.08587787      -0.02187045      -0.00000000 </v>
   <v>      -0.02399857      -0.08530764       0.00000000 </v>
   <v>       0.06187930      -0.06343719      -0.00000000 </v>
  </varray>
  <varray name="stress" >
   <v>    -128.50841312       0.00000025       0.00000000 </v>
   <v>      -0.00000025    -128.50841312       0.00000000 </v>
   <v>       0.00000000       0.00000000    -151.25108522 </v>
  </varray>
  <energy>
   <i name="e_fr_energy">    -94.77601741 </i>
   <i name="e_wo_entrp">    -94.77640500 </i>
   <i name="e_0_energy">      0.00155033 </i>
  </energy>
  <time name="totalsc">   12.77   12.79</time>
 </calculation>
 <calculation>
  <scstep>
   <time name="dav">    2.55    2.55</time>
   <time name="total">    2.71    2.73</time>
   <energy>
    <i name="alphaZ">     70.48663321 </i>
    <i name="ewald">  -2157.35845449 </i>
    <i name="hartreedc">   -619.14823869 </i>
    <i name="XCdc">     55.24379844 </i>
    <i name="pawpsdc">   6262.20701475 </i>
    <i name="pawaedc">  -6129.71655875 </i>
    <i name="eentropy">     -0.00022948 </i>
    <i name="bandstr">     12.13823790 </i>
    <i name="atom">   2411.37598431 </i>
    <i name="e_fr_energy">    -94.77181279 </i>
    <i name="e_wo_entrp">    -94.77158332 </i>
    <i name="e_0_energy">    -94.77175542 </i>
   </energy>
  </scstep>
  <scstep>
   <time name="diag">    0.33    0.33</time>
   <time name="diis">    1.73    1.73</time>
   <time name="orth">    0.03    0.03</time>
   <time name="total">    2.24    2.25</time>
   <energy>
    <i name="e_fr_energy">    -94.78668367 </i>
    <i name="e_wo_entrp">    -94.78679245 </i>
    <i name="e_0_energy">    -94.78671086 </i>
   </energy>
  </scstep>
  <scstep>
   <time name="diag">    0.33    0.33</time>
   <time name="diis">    1.80    1.80</time>
   <time name="orth">    0.03    0.03</time>
   <time name="total">    2.31    2.31</time>
   <energy>
    <i name="e_fr_energy">    -94.78530565 </i>
    <i name="e_wo_entrp">    -94.78553701 </i>
    <i name="e_0_energy">    -94.78536349 </i>
   </energy>
  </scstep>
  <scstep>
   <time name="diag">    0.33    0.33</time>
   <time name="diis">    1.74    1.74</time>
   <time name="orth">    0.03    0.03</time>
   <time name="total">    2.25    2.25</time>
   <energy>
    <i name="e_fr_energy">    -94.78493806 </i>
    <i name="e_wo_entrp">    -94.78514051 </i>
    <i name="e_0_energy">    -94.78498868 </i>
   </energy>
  </scstep>
  <scstep>
   <time name="diag">    0.33    0.33</time>
   <time name="diis">    1.16    1.16</time>
   <time name="orth">    0.03    0.03</time>
   <time name="total">    1.54    1.54</time>
   <energy>
    <i name="alphaZ">     70.48663321 </i>
    <i name="ewald">  -2157.35845449 </i>
    <i name="hartreedc">   -620.00923412 </i>
    <i name="XCdc">     55.30189695 </i>
    <i name="pawpsdc">   6291.40927164 </i>
    <i name="pawaedc">  -6158.94887428 </i>
    <i name="eentropy">      0.00019938 </i>
    <i name="bandstr">     12.95762827 </i>
    <i name="atom">   2411.37598431 </i>
    <i name="e_fr_energy">    -94.78494913 </i>
    <i name="e_wo_entrp">    -94.78514851 </i>
    <i name="e_0_energy">    -94.78499898 </i>
   </energy>
  </scstep>
  <structure>
   <crystal>
    <varray name="basis" >
     <v>       4.14026895      -7.17115616       0.00000000 </v>
     <v>       4.14026894       7.17115617       0.00000000 </v>
     <v>       0.00000000       0.00000000       2.91251426 </v>
    </varray>
    <i name="volume">    172.94809776 </i>
    <varray name="rec_basis" >
     <v>       0.12076510      -0.06972376       0.00000000 </v>
     <v>       0.12076510       0.06972376       0.00000000 </v>
     <v>       0.00000000       0.00000000       0.34334596 </v>
    </varray>
   </crystal>
   <varray name="positions" >
    <v>       0.19605803       0.83088534       0.75000000 </v>
    <v>       0.36517268       0.19605803       0.25000000 </v>
    <v>       0.83088534       0.63482732       0.25000000 </v>
    <v>       0.16911466       0.36517268       0.75000000 </v>
    <v>       0.63482732       0.80394197       0.75000000 </v>
    <v>       0.80394197       0.16911466       0.25000000 </v>
    <v>       0.33333333       0.66666667       0.75000000 </v>
    <v>       0.66666667       0.33333333       0.25000000 </v>
    <v>       0.96388847       0.61901355       0.75000000 </v>
    <v>       0.34487492       0.96388847       0.25000000 </v>
    <v>       0.61901355       0.65512508       0.25000000 </v>
    <v>       0.38098645       0.34487492       0.75000000 </v>
    <v>       0.03611153       0.38098645       0.25000000 </v>
    <v>       0.65512508       0.03611153       0.75000000 </v>
   </varray>
  </structure>
  <varray name="forces" >
   <v>       0.26267230       0.21830433       0.00000000 </v>
   <v>      -0.05772095       0.33663305      -0.00000000 </v>
   <v>       0.32039325      -0.11832871      -0.00000000 </v>
   <v>      -0.32039325       0.11832871      -0.00000000 </v>
   <v>       0.05772095      -0.33663305       0.00000000 </v>
   <v>      -0.26267230      -0.21830433       0.00000000 </v>
   <v>       0.00000000      -0.00000000       0.00000000 </v>
   <v>      -0.00000000      -0.00000000      -0.00000000 </v>
   <v>      -0.17870885       0.15658489      -0.00000000 </v>
   <v>      -0.22496092      -0.07647396      -0.00000000 </v>
   <v>       0.04625207       0.23305885       0.00000000 </v>
   <v>      -0.04625207      -0.23305885      -0.00000000 </v>
   <v>       0.17870885      -0.15658489      -0.00000000 </v>
   <v>       0.22496092       0.07647396       0.00000000 </v>
  </varray>
  <varray name="stress" >
   <v>    -120.51654923       0.00000022       0.00000000 </v>
   <v>      -0.00000022    -120.51654923       0.00000000 </v>
   <v>       0.00000000       0.00000000    -149.92714172 </v>
  </varray>
  <energy>
   <i name="e_fr_energy">    -94.78494913 </i>
   <i name="e_wo_entrp">    -94.78499898 </i>
   <i name="e_0_energy">      0.00019938 </i>
  </energy>
  <time name="totalsc">   14.90   14.94</time>
 </calculation>
 <calculation>
  <scstep>
   <time name="dav">    2.92    2.92</time>
   <time name="total">    3.08    3.08</time>
   <energy>
    <i name="alphaZ">     70.48663321 </i>
    <i name="ewald">  -2158.10507182 </i>
    <i name="hartreedc">   -619.23310911 </i>
    <i name="XCdc">     55.29785639 </i>
    <i name="pawpsdc">   6296.38102917 </i>
    <i name="pawaedc">  -6163.92093420 </i>
    <i name="eentropy">     -0.00009328 </i>
    <i name="bandstr">     12.92975662 </i>
    <i name="atom">   2411.37598431 </i>
    <i name="e_fr_energy">    -94.78794871 </i>
    <i name="e_wo_entrp">    -94.78785543 </i>
    <i name="e_0_energy">    -94.78792539 </i>
   </energy>
  </scstep>
  <scstep>
   <time name="diag">    0.33    0.33</time>
   <time name="diis">    1.73    1.73</time>
   <time name="orth">    0.03    0.03</time>
   <time name="total">    2.24    2.24</time>
   <energy>
    <i name="e_fr_energy">    -94.78816426 </i>
    <i name="e_wo_entrp">    -94.78812324 </i>
    <i name="e_0_energy">    -94.78815400 </i>
   </energy>
  </scstep>
  <scstep>
   <time name="diag">    0.33    0.33</time>
   <time name="diis">    1.14    1.14</time>
   <time name="orth">    0.03    0.03</time>
   <time name="total">    1.52    1.52</time>
   <energy>
    <i name="alphaZ">     70.48663321 </i>
    <i name="ewald">  -2158.10507182 </i>
    <i name="hartreedc">   -619.35167870 </i>
    <i name="XCdc">     55.30601352 </i>
    <i name="pawpsdc">   6297.71517996 </i>
    <i name="pawaedc">  -6165.25869372 </i>
    <i name="eentropy">     -0.00003018 </i>
    <i name="bandstr">     13.04351700 </i>
    <i name="atom">   2411.37598431 </i>
    <i name="e_fr_energy">    -94.78814641 </i>
    <i name="e_wo_entrp">    -94.78811623 </i>
    <i name="e_0_energy">    -94.78813887 </i>
   </energy>
  </scstep>
  <structure>
   <crystal>
    <varray name="basis" >
     <v>       4.14026895      -7.17115616       0.00000000 </v>
     <v>       4.14026894       7.17115617       0.00000000 </v>
     <v>       0.00000000       0.00000000       2.91251426 </v>
    </varray>
    <i name="volume">    172.94809776 </i>
    <varray name="rec_basis" >
     <v>       0.12076510      -0.06972376       0.00000000 </v>
     <v>       0.12076510       0.06972376       0.00000000 </v>
     <v>       0.00000000       0.00000000       0.34334596 </v>
    </varray>
   </crystal>
   <varray name="positions" >
    <v>       0.19585577       0.83100274       0.75000000 </v>
    <v>       0.36485302       0.19585577       0.25000000 </v>
    <v>       0.83100274       0.63514698       0.25000000 </v>
    <v>       0.16899726       0.36485302       0.75000000 </v>
    <v>       0.63514698       0.80414423       0.75000000 </v>
    <v>       0.80414423       0.16899726       0.25000000 </v>
    <v>       0.33333333       0.66666667       0.75000000 </v>
    <v>       0.66666667       0.33333333       0.25000000 </v>
    <v>       0.96387669       0.61927261       0.75000000 </v>
    <v>       0.34460408       0.96387669       0.25000000 </v>
    <v>       0.61927261       0.65539592       0.25000000 </v>
    <v>       0.38072739       0.34460408       0.75000000 </v>
    <v>       0.03612331       0.38072739       0.25000000 </v>
    <v>       0.65539592       0.03612331       0.75000000 </v>
   </varray>
  </structure>
  <varray name="forces" >
   <v>       0.27660975       0.22767842       0.00000000 </v>
   <v>      -0.05887042       0.35339028       0.00000000 </v>
   <v>       0.33548017      -0.12571186      -0.00000000 </v>
   <v>      -0.33548017       0.12571186      -0.00000000 </v>
   <v>       0.05887042      -0.35339028       0.00000000 </v>
   <v>      -0.27660975      -0.22767842      -0.00000000 </v>
   <v>      -0.00000000      -0.00000000       0.00000000 </v>
   <v>      -0.00000000      -0.00000000       0.00000000 </v>
   <v>      -0.18448784       0.15962772      -0.00000000 </v>
   <v>      -0.23048558      -0.07995729      -0.00000000 </v>
   <v>       0.04599774       0.23958501       0.00000000 </v>
   <v>      -0.04599774      -0.23958501      -0.00000000 </v>
   <v>       0.18448784      -0.15962772      -0.00000000 </v>
   <v>       0.23048558       0.07995729      -0.00000000 </v>
  </varray>
  <varray name="stress" >
   <v>    -119.71101846       0.00000024       0.00000000 </v>
   <v>      -0.00000024    -119.71101846       0.00000000 </v>
   <v>      -0.00000000       0.00000000    -149.54734696 </v>
  </varray>
  <energy>
   <i name="e_fr_energy">    -94.78814641 </i>
   <i name="e_wo_entrp">    -94.78813887 </i>
   <i name="e_0_energy">     -0.00003018 </i>
  </energy>
  <time name="totalsc">   10.67   10.69</time>
 </calculation>
 <calculation>
  <scstep>
   <time name="dav">    2.58    2.58</time>
   <time name="total">    2.75    2.75</time>
   <energy>
    <i name="alphaZ">     70.48663321 </i>
    <i name="ewald">  -2160.24547412 </i>
    <i name="hartreedc">   -616.92636774 </i>
    <i name="XCdc">     55.28613519 </i>
    <i name="pawpsdc">   6300.54486714 </i>
    <i name="pawaedc">  -6168.08884985 </i>
    <i name="eentropy">     -0.00068002 </i>
    <i name="bandstr">     12.77131072 </i>
    <i name="atom">   2411.37598431 </i>
    <i name="e_fr_energy">    -94.79644117 </i>
    <i name="e_wo_entrp">    -94.79576115 </i>
    <i name="e_0_energy">    -94.79627117 </i>
   </energy>
  </scstep>
  <scstep>
   <time name="diag">    0.33    0.33</time>
   <time name="diis">    1.74    1.74</time>
   <time name="orth">    0.03    0.03</time>
   <time name="total">    2.25    2.26</time>
   <energy>
    <i name="e_fr_energy">    -94.79834039 </i>
    <i name="e_wo_entrp">    -94.79778086 </i>
    <i name="e_0_energy">    -94.79820051 </i>
   </energy>
  </scstep>
  <scstep>
   <time name="diag">    0.33    0.33</time>
   <time name="diis">    1.77    1.78</time>
   <time name="orth">    0.03    0.03</time>
   <time name="total">    2.29    2.30</time>
   <energy>
    <i name="e_fr_energy">    -94.79818115 </i>
    <i name="e_wo_entrp">    -94.79765101 </i>
    <i name="e_0_energy">    -94.79804862 </i>
   </energy>
  </scstep>
  <scstep>
   <time name="diag">    0.33    0.33</time>
   <time name="diis">    1.15    1.15</time>
   <time name="orth">    0.03    0.03</time>
   <time name="total">    1.53    1.53</time>
   <energy>
    <i name="alphaZ">     70.48663321 </i>
    <i name="ewald">  -2160.24547412 </i>
    <i name="hartreedc">   -617.25725389 </i>
    <i name="XCdc">     55.31043730 </i>
    <i name="pawpsdc">   6311.37236215 </i>
    <i name="pawaedc">  -6178.92891914 </i>
    <i name="eentropy">     -0.00053559 </i>
    <i name="bandstr">     13.08861895 </i>
    <i name="atom">   2411.37598431 </i>
    <i name="e_fr_energy">    -94.79814682 </i>
    <i name="e_wo_entrp">    -94.79761123 </i>
    <i name="e_0_energy">    -94.79801293 </i>
   </energy>
  </scstep>
  <structure>
   <crystal>
    <varray name="basis" >
     <v>       4.14026895      -7.17115616       0.00000000 </v>
     <v>       4.14026894       7.17115617       0.00000000 </v>
     <v>       0.00000000       0.00000000       2.91251426 </v>
    </varray>
    <i name="volume">    172.94809776 </i>
    <varray name="rec_basis" >
     <v>       0.12076510      -0.06972376       0.00000000 </v>
     <v>       0.12076510       0.06972376       0.00000000 </v>
     <v>       0.00000000       0.00000000       0.34334596 </v>
    </varray>
   </crystal>
   <varray name="positions" >
    <v>       0.19524899       0.83135494       0.75000000 </v>
    <v>       0.36389405       0.19524899       0.25000000 </v>
    <v>       0.83135494       0.63610595       0.25000000 </v>
    <v>       0.16864506       0.36389405       0.75000000 </v>
    <v>       0.63610595       0.80475101       0.75000000 </v>
    <v>       0.80475101       0.16864506       0.25000000 </v>
    <v>       0.33333333       0.66666667       0.75000000 </v>
    <v>       0.66666667       0.33333333       0.25000000 </v>
    <v>       0.96384136       0.62004979       0.75000000 </v>
    <v>       0.34379157       0.96384136       0.25000000 </v>
    <v>       0.62004979       0.65620843       0.25000000 </v>
    <v>       0.37995021       0.34379157       0.75000000 </v>
    <v>       0.03615864       0.37995021       0.25000000 </v>
    <v>       0.65620843       0.03615864       0.75000000 </v>
   </varray>
  </structure>
  <varray name="forces" >
   <v>       0.31293795       0.24502525       0.00000000 </v>
   <v>      -0.05572912       0.39352484      -0.00000000 </v>
   <v>       0.36866707      -0.14849959      -0.00000000 </v>
   <v>      -0.36866707       0.14849959      -0.00000000 </v>
   <v>       0.05572912      -0.39352484       0.00000000 </v>
   <v>      -0.31293795      -0.24502525      -0.00000000 </v>
   <v>      -0.00000000      -0.00000000      -0.00000000 </v>
   <v>      -0.00000000      -0.00000000      -0.00000000 </v>
   <v>      -0.20141274       0.17142230       0.00000000 </v>
   <v>      -0.24916244      -0.08871740      -0.00000000 </v>
   <v>       0.04774970       0.26013970       0.00000000 </v>
   <v>      -0.04774970      -0.26013970      -0.00000000 </v>
   <v>       0.20141274      -0.17142230      -0.00000000 </v>
   <v>       0.24916244       0.08871740       0.00000000 </v>
  </varray>
  <varray name="stress" >
   <v>    -116.46705227       0.00000022       0.00000000 </v>
   <v>      -0.00000022    -116.46705227       0.00000000 </v>
   <v>       0.00000000       0.00000000    -148.10830681 </v>
  </varray>
  <energy>
   <i name="e_fr_energy">    -94.79814682 </i>
   <i name="e_wo_entrp">    -94.79801293 </i>
   <i name="e_0_energy">     -0.00053559 </i>
  </energy>
  <time name="totalsc">   12.66   12.68</time>
 </calculation>
 <calculation>
  <scstep>
   <time name="dav">    2.56    2.56</time>
   <time name="total">    2.72    2.73</time>
   <energy>
    <i name="alphaZ">     70.48663321 </i>
    <i name="ewald">  -2164.07755750 </i>
    <i name="hartreedc">   -612.81368156 </i>
    <i name="XCdc">     55.27491328 </i>
    <i name="pawpsdc">   6315.60027849 </i>
    <i name="pawaedc">  -6183.15748742 </i>
    <i name="eentropy">     -0.00262431 </i>
    <i name="bandstr">     12.50225313 </i>
    <i name="atom">   2411.37598431 </i>
    <i name="e_fr_energy">    -94.81128837 </i>
    <i name="e_wo_entrp">    -94.80866406 </i>
    <i name="e_0_energy">    -94.81063229 </i>
   </energy>
  </scstep>
  <scstep>
   <time name="diag">    0.33    0.33</time>
   <time name="diis">    1.73    1.73</time>
   <time name="orth">    0.03    0.03</time>
   <time name="total">    2.25    2.25</time>
   <energy>
    <i name="e_fr_energy">    -94.81938609 </i>
    <i name="e_wo_entrp">    -94.81693305 </i>
    <i name="e_0_energy">    -94.81877283 </i>
   </energy>
  </scstep>
  <scstep>
   <time name="diag">    0.33    0.33</time>
   <time name="diis">    1.78    1.78</time>
   <time name="orth">    0.03    0.03</time>
   <time name="total">    2.30    2.30</time>
   <energy>
    <i name="e_fr_energy">    -94.81872571 </i>
    <i name="e_wo_entrp">    -94.81638568 </i>
    <i name="e_0_energy">    -94.81814070 </i>
   </energy>
  </scstep>
  <scstep>
   <time name="diag">    0.33    0.33</time>
   <time name="diis">    1.68    1.68</time>
   <time name="orth">    0.03    0.03</time>
   <time name="total">    2.20    2.20</time>
   <energy>
    <i name="e_fr_energy">    -94.81858957 </i>
    <i name="e_wo_entrp">    -94.81624574 </i>
    <i name="e_0_energy">    -94.81800361 </i>
   </energy>
  </scstep>
  <scstep>
   <time name="diag">    0.33    0.33</time>
   <time name="diis">    1.14    1.14</time>
   <time name="orth">    0.03    0.03</time>
   <time name="total">    1.52    1.52</time>
   <energy>
    <i name="alphaZ">     70.48663321 </i>
    <i name="ewald">  -2164.07755750 </i>
    <i name="hartreedc">   -613.52612454 </i>
    <i name="XCdc">     55.32693653 </i>
    <i name="pawpsdc">   6346.36663367 </i>
    <i name="pawaedc">  -6213.95032212 </i>
    <i name="eentropy">     -0.00234034 </i>
    <i name="bandstr">     13.18155801 </i>
    <i name="atom">   2411.37598431 </i>
    <i name="e_fr_energy">    -94.81859877 </i>
    <i name="e_wo_entrp">    -94.81625843 </i>
    <i name="e_0_energy">    -94.81801368 </i>
   </energy>
  </scstep>
  <structure>
   <crystal>
    <varray name="basis" >
     <v>       4.14026895      -7.17115616       0.00000000 </v>
     <v>       4.14026894       7.17115617       0.00000000 </v>
     <v>       0.00000000       0.00000000       2.91251426 </v>
    </varray>
    <i name="volume">    172.94809776 </i>
    <varray name="rec_basis" >
     <v>       0.12076510      -0.06972376       0.00000000 </v>
     <v>       0.12076510       0.06972376       0.00000000 </v>
     <v>       0.00000000       0.00000000       0.34334596 </v>
    </varray>
   </crystal>
   <varray name="positions" >
    <v>       0.19403543       0.83205934       0.75000000 </v>
    <v>       0.36197609       0.19403543       0.25000000 </v>
    <v>       0.83205934       0.63802391       0.25000000 </v>
    <v>       0.16794066       0.36197609       0.75000000 </v>
    <v>       0.63802391       0.80596457       0.75000000 </v>
    <v>       0.80596457       0.16794066       0.25000000 </v>
    <v>       0.33333333       0.66666667       0.75000000 </v>
    <v>       0.66666667       0.33333333       0.25000000 </v>
    <v>       0.96377069       0.62160414       0.75000000 </v>
    <v>       0.34216656       0.96377069       0.25000000 </v>
    <v>       0.62160414       0.65783344       0.25000000 </v>
    <v>       0.37839586       0.34216656       0.75000000 </v>
    <v>       0.03622931       0.37839586       0.25000000 </v>
    <v>       0.65783344       0.03622931       0.75000000 </v>
   </varray>
  </structure>
  <varray name="forces" >
   <v>       0.39216167       0.26463967      -0.00000000 </v>
   <v>      -0.03310384       0.47194180       0.00000000 </v>
   <v>       0.42526551      -0.20730213       0.00000000 </v>
   <v>      -0.42526551       0.20730213      -0.00000000 </v>
   <v>       0.03310384      -0.47194180       0.00000000 </v>
   <v>      -0.39216167      -0.26463967      -0.00000000 </v>
   <v>      -0.00000000       0.00000000      -0.00000000 </v>
   <v>      -0.00000000       0.00000000       0.00000000 </v>
   <v>      -0.24215084       0.18669264      -0.00000000 </v>
   <v>      -0.28275599      -0.11636246       0.00000000 </v>
   <v>       0.04060515       0.30305510       0.00000000 </v>
   <v>      -0.04060515      -0.30305510       0.00000000 </v>
   <v>       0.24215084      -0.18669264       0.00000000 </v>
   <v>       0.28275599       0.11636246      -0.00000000 </v>
  </varray>
  <varray name="stress" >
   <v>    -110.30745865       0.00000015      -0.00000000 </v>
   <v>      -0.00000015    -110.30745865       0.00000000 </v>
   <v>       0.00000000       0.00000000    -145.40775389 </v>
  </varray>
  <energy>
   <i name="e_fr_energy">    -94.81859877 </i>
   <i name="e_wo_entrp">    -94.81801368 </i>
   <i name="e_0_energy">     -0.00234034 </i>
  </energy>
  <time name="totalsc">   14.82   14.84</time>
 </calculation>
 <calculation>
  <scstep>
   <time name="dav">    2.57    2.57</time>
   <time name="total">    2.73    2.73</time>
   <energy>
    <i name="alphaZ">     70.48663321 </i>
    <i name="ewald">  -2169.93706439 </i>
    <i name="hartreedc">   -606.19624724 </i>
    <i name="XCdc">     55.26866755 </i>
    <i name="pawpsdc">   6350.82322149 </i>
    <i name="pawaedc">  -6218.40725475 </i>
    <i name="eentropy">      0.00066999 </i>
    <i name="bandstr">     11.75188681 </i>
    <i name="atom">   2411.37598431 </i>
    <i name="e_fr_energy">    -94.83350303 </i>
    <i name="e_wo_entrp">    -94.83417301 </i>
    <i name="e_0_energy">    -94.83367053 </i>
   </energy>
  </scstep>
  <scstep>
   <time name="diag">    0.33    0.33</time>
   <time name="diis">    1.73    1.73</time>
   <time name="orth">    0.03    0.03</time>
   <time name="total">    2.25    2.25</time>
   <energy>
    <i name="e_fr_energy">    -94.86760588 </i>
    <i name="e_wo_entrp">    -94.86727016 </i>
    <i name="e_0_energy">    -94.86752195 </i>
   </energy>
  </scstep>
  <scstep>
   <time name="diag">    0.33    0.33</time>
   <time name="diis">    1.78    1.78</time>
   <time name="orth">    0.03    0.03</time>
   <time name="total">    2.30    2.30</time>
   <energy>
    <i name="e_fr_energy">    -94.86387916 </i>
    <i name="e_wo_entrp">    -94.86308864 </i>
    <i name="e_0_energy">    -94.86368153 </i>
   </energy>
  </scstep>
  <scstep>
   <time name="diag">    0.33    0.33</time>
   <time name="diis">    1.78    1.78</time>
   <time name="orth">    0.03    0.03</time>
   <time name="total">    2.29    2.30</time>
   <energy>
    <i name="e_fr_energy">    -94.86332323 </i>
    <i name="e_wo_entrp">    -94.86255491 </i>
    <i name="e_0_energy">    -94.86313115 </i>
   </energy>
  </scstep>
  <scstep>
   <time name="diag">    0.33    0.33</time>
   <time name="diis">    1.61    1.61</time>
   <time name="orth">    0.03    0.03</time>
   <time name="total">    1.98    1.99</time>
   <energy>
    <i name="alphaZ">     70.48663321 </i>
    <i name="ewald">  -2169.93706439 </i>
    <i name="hartreedc">   -607.79289231 </i>
    <i name="XCdc">     55.38425799 </i>
    <i name="pawpsdc">   6421.87512250 </i>
    <i name="pawaedc">  -6289.52252407 </i>
    <i name="eentropy">     -0.00075450 </i>
    <i name="bandstr">     13.26789810 </i>
    <i name="atom">   2411.37598431 </i>
    <i name="e_fr_energy">    -94.86333916 </i>
    <i name="e_wo_entrp">    -94.86258466 </i>
    <i name="e_0_energy">    -94.86315054 </i>
   </energy>
  </scstep>
  <structure>
   <crystal>
    <varray name="basis" >
     <v>       4.14026895      -7.17115616       0.00000000 </v>
     <v>       4.14026894       7.17115617       0.00000000 </v>
     <v>       0.00000000       0.00000000       2.91251426 </v>
    </varray>
    <i name="volume">    172.94809776 </i>
    <varray name="rec_basis" >
     <v>       0.12076510      -0.06972376       0.00000000 </v>
     <v>       0.12076510       0.06972376       0.00000000 </v>
     <v>       0.00000000       0.00000000       0.34334596 </v>
    </varray>
   </crystal>
   <varray name="positions" >
    <v>       0.19160832       0.83346814       0.75000000 </v>
    <v>       0.35814018       0.19160832       0.25000000 </v>
    <v>       0.83346814       0.64185982       0.25000000 </v>
    <v>       0.16653186       0.35814018       0.75000000 </v>
    <v>       0.64185982       0.80839168       0.75000000 </v>
    <v>       0.80839168       0.16653186       0.25000000 </v>
    <v>       0.33333333       0.66666667       0.75000000 </v>
    <v>       0.66666667       0.33333333       0.25000000 </v>
    <v>       0.96362936       0.62471283       0.75000000 </v>
    <v>       0.33891653       0.96362936       0.25000000 </v>
    <v>       0.62471283       0.66108347       0.25000000 </v>
    <v>       0.37528717       0.33891653       0.75000000 </v>
    <v>       0.03637064       0.37528717       0.25000000 </v>
    <v>       0.66108347       0.03637064       0.75000000 </v>
   </varray>
  </structure>
  <varray name="forces" >
   <v>       0.56248575       0.31125456       0.00000000 </v>
   <v>       0.01168852       0.64275422      -0.00000000 </v>
   <v>       0.55079723      -0.33149967      -0.00000000 </v>
   <v>      -0.55079723       0.33149967      -0.00000000 </v>
   <v>      -0.01168852      -0.64275422       0.00000000 </v>
   <v>      -0.56248575      -0.31125456       0.00000000 </v>
   <v>       0.00000000      -0.00000000      -0.00000000 </v>
   <v>       0.00000000      -0.00000000      -0.00000000 </v>
   <v>      -0.31716034       0.23800201      -0.00000000 </v>
   <v>      -0.36469595      -0.15566790      -0.00000000 </v>
   <v>       0.04753562       0.39366991       0.00000000 </v>
   <v>      -0.04753562      -0.39366991      -0.00000000 </v>
   <v>       0.31716034      -0.23800201       0.00000000 </v>
   <v>       0.36469595       0.15566790       0.00000000 </v>
  </varray>
  <varray name="stress" >
   <v>     -95.50662045       0.00000028       0.00000000 </v>
   <v>      -0.00000028     -95.50662045       0.00000000 </v>
   <v>       0.00000000       0.00000000    -137.14757422 </v>
  </varray>
  <energy>
   <i name="e_fr_energy">    -94.86333916 </i>
   <i name="e_wo_entrp">    -94.86315054 </i>
   <i name="e_0_energy">     -0.00075450 </i>
  </energy>
  <time name="totalsc">   15.43   15.45</time>
 </calculation>
 <calculation>
  <scstep>
   <time name="dav">    2.54    2.55</time>
   <time name="total">    2.71    2.72</time>
   <energy>
    <i name="alphaZ">     70.48663321 </i>
    <i name="ewald">  -2174.35797500 </i>
    <i name="hartreedc">   -599.42016407 </i>
    <i name="XCdc">     55.31818385 </i>
    <i name="pawpsdc">   6429.76444939 </i>
    <i name="pawaedc">  -6297.41319122 </i>
    <i name="eentropy">     -0.00005976 </i>
    <i name="bandstr">      9.49685698 </i>
    <i name="atom">   2411.37598431 </i>
    <i name="e_fr_energy">    -94.74928233 </i>
    <i name="e_wo_entrp">    -94.74922257 </i>
    <i name="e_0_energy">    -94.74926739 </i>
   </energy>
  </scstep>
  <scstep>
   <time name="diag">    0.33    0.33</time>
   <time name="diis">    1.72    1.72</time>
   <time name="orth">    0.03    0.03</time>
   <time name="total">    2.24    2.24</time>
   <energy>
    <i name="e_fr_energy">    -94.94329353 </i>
    <i name="e_wo_entrp">    -94.94357840 </i>
    <i name="e_0_energy">    -94.94336475 </i>
   </energy>
  </scstep>
  <scstep>
   <time name="diag">    0.33    0.33</time>
   <time name="diis">    1.77    1.77</time>
   <time name="orth">    0.03    0.03</time>
   <time name="total">    2.29    2.30</time>
   <energy>
    <i name="e_fr_energy">    -94.92331862 </i>
    <i name="e_wo_entrp">    -94.92412538 </i>
    <i name="e_0_energy">    -94.92352031 </i>
   </energy>
  </scstep>
  <scstep>
   <time name="diag">    0.33    0.33</time>
   <time name="diis">    1.73    1.73</time>
   <time name="orth">    0.03    0.03</time>
   <time name="total">    2.25    2.25</time>
   <energy>
    <i name="e_fr_energy">    -94.91778348 </i>
    <i name="e_wo_entrp">    -94.91872049 </i>
    <i name="e_0_energy">    -94.91801773 </i>
   </energy>
  </scstep>
  <scstep>
   <time name="diag">    0.33    0.33</time>
   <time name="diis">    1.75    1.75</time>
   <time name="orth">    0.03    0.03</time>
   <time name="total">    2.27    2.27</time>
   <energy>
    <i name="e_fr_energy">    -94.91779587 </i>
    <i name="e_wo_entrp">    -94.91864339 </i>
    <i name="e_0_energy">    -94.91800775 </i>
   </energy>
  </scstep>
  <scstep>
   <time name="diag">    0.33    0.33</time>
   <time name="diis">    1.59    1.59</time>
   <time name="orth">    0.03    0.03</time>
   <time name="total">    2.11    2.11</time>
   <energy>
    <i name="e_fr_energy">    -94.91768539 </i>
    <i name="e_wo_entrp">    -94.91856710 </i>
    <i name="e_0_energy">    -94.91790582 </i>
   </energy>
  </scstep>
  <scstep>
   <time name="diag">    0.33    0.33</time>
   <time name="diis">    1.27    1.27</time>
   <time name="orth">    0.03    0.03</time>
   <time name="total">    1.65    1.66</time>
   <energy>
    <i name="alphaZ">     70.48663321 </i>
    <i name="ewald">  -2174.35797500 </i>
    <i name="hartreedc">   -602.78304182 </i>
    <i name="XCdc">     55.55289242 </i>
    <i name="pawpsdc">   6620.93971497 </i>
    <i name="pawaedc">  -6488.70224911 </i>
    <i name="eentropy">      0.00089928 </i>
    <i name="bandstr">     12.56943229 </i>
    <i name="atom">   2411.37598431 </i>
    <i name="e_fr_energy">    -94.91770945 </i>
    <i name="e_wo_entrp">    -94.91860873 </i>
    <i name="e_0_energy">    -94.91793427 </i>
   </energy>
  </scstep>
  <structure>
   <crystal>
    <varray name="basis" >
     <v>       4.14026895      -7.17115616       0.00000000 </v>
     <v>       4.14026894       7.17115617       0.00000000 </v>
     <v>       0.00000000       0.00000000       2.91251426 </v>
    </varray>
    <i name="volume">    172.94809776 </i>
    <varray name="rec_basis" >
     <v>       0.12076510      -0.06972376       0.00000000 </v>
     <v>       0.12076510       0.06972376       0.00000000 </v>
     <v>       0.00000000       0.00000000       0.34334596 </v>
    </varray>
   </crystal>
   <varray name="positions" >
    <v>       0.18675409       0.83628573       0.75000000 </v>
    <v>       0.35046836       0.18675409       0.25000000 </v>
    <v>       0.83628573       0.64953164       0.25000000 </v>
    <v>       0.16371427       0.35046836       0.75000000 </v>
    <v>       0.64953164       0.81324591       0.75000000 </v>
    <v>       0.81324591       0.16371427       0.25000000 </v>
    <v>       0.33333333       0.66666667       0.75000000 </v>
    <v>       0.66666667       0.33333333       0.25000000 </v>
    <v>       0.96334670       0.63093023       0.75000000 </v>
    <v>       0.33241646       0.96334670       0.25000000 </v>
    <v>       0.63093023       0.66758354       0.25000000 </v>
    <v>       0.36906977       0.33241646       0.75000000 </v>
    <v>       0.03665330       0.36906977       0.25000000 </v>
    <v>       0.66758354       0.03665330       0.75000000 </v>
   </varray>
  </structure>
  <varray name="forces" >
   <v>       0.87779145       0.24673876      -0.00000000 </v>
   <v>       0.22521369       0.88355908      -0.00000000 </v>
   <v>       0.65257776      -0.63682032      -0.00000000 </v>
   <v>      -0.65257776       0.63682032       0.00000000 </v>
   <v>      -0.22521369      -0.88355908       0.00000000 </v>
   <v>      -0.87779145      -0.24673876       0.00000000 </v>
   <v>       0.00000000      -0.00000000      -0.00000000 </v>
   <v>       0.00000000      -0.00000000      -0.00000000 </v>
   <v>      -0.62869368       0.17886269      -0.00000000 </v>
   <v>      -0.46924648      -0.45503335       0.00000000 </v>
   <v>      -0.15944720       0.63389605       0.00000000 </v>
[...]
       <r>   10.4159    0.0000 </r>
       <r>   10.9345    0.0000 </r>
       <r>   11.1570    0.0000 </r>
       <r>   11.2277    0.0000 </r>
       <r>   11.3164    0.0000 </r>
      </set>
      <set comment="kpoint 63">
       <r>   -8.5537    1.0000 </r>
       <r>   -8.4737    1.0000 </r>
       <r>   -8.4089    1.0000 </r>
       <r>   -8.2792    1.0000 </r>
       <r>   -8.2001    1.0000 </r>
       <r>   -8.1703    1.0000 </r>
       <r>   -2.3077    1.0000 </r>
       <r>   -2.1855    1.0000 </r>
       <r>   -1.8563    1.0000 </r>
       <r>   -1.7360    1.0000 </r>
       <r>   -1.4562    1.0000 </r>
       <r>   -1.0627    1.0000 </r>
       <r>    0.0733    1.0000 </r>
       <r>    0.6144    1.0000 </r>
       <r>    0.7904    1.0000 </r>
       <r>    0.9250    1.0000 </r>
       <r>    1.2212    1.0000 </r>
       <r>    1.4109    1.0000 </r>
       <r>    1.6632    1.0000 </r>
       <r>    1.8531    1.0000 </r>
       <r>    3.2686    1.0000 </r>
       <r>    3.4006    1.0000 </r>
       <r>    3.5115    1.0000 </r>
       <r>    3.8081    1.0000 </r>
       <r>    4.5457    1.0000 </r>
       <r>    4.7091    1.0000 </r>
       <r>    5.8130    1.0000 </r>
       <r>    5.9377    1.0000 </r>
       <r>    6.2515    1.0000 </r>
       <r>    6.6788    1.0000 </r>
       <r>    7.4200    1.0000 </r>
       <r>    7.5124    1.0000 </r>
       <r>    7.8011    1.0000 </r>
       <r>    7.9908    0.9998 </r>
       <r>    9.9374    0.0000 </r>
       <r>   10.4625    0.0000 </r>
       <r>   10.8683    0.0000 </r>
       <r>   11.0701    0.0000 </r>
       <r>   11.2687    0.0000 </r>
       <r>   11.3515    0.0000 </r>
      </set>
      <set comment="kpoint 64">
       <r>   -8.4960    1.0000 </r>
       <r>   -8.4795    1.0000 </r>
       <r>   -8.4795    1.0000 </r>
       <r>   -8.2329    1.0000 </r>
       <r>   -8.2329    1.0000 </r>
       <r>   -8.1664    1.0000 </r>
       <r>   -2.2739    1.0000 </r>
       <r>   -2.2739    1.0000 </r>
       <r>   -1.7420    1.0000 </r>
       <r>   -1.7420    1.0000 </r>
       <r>   -1.4860    1.0000 </r>
       <r>   -1.0596    1.0000 </r>
       <r>    0.0745    1.0000 </r>
       <r>    0.5970    1.0000 </r>
       <r>    0.8589    1.0000 </r>
       <r>    0.8589    1.0000 </r>
       <r>    1.2907    1.0000 </r>
       <r>    1.2907    1.0000 </r>
       <r>    1.7725    1.0000 </r>
       <r>    1.7725    1.0000 </r>
       <r>    3.3153    1.0000 </r>
       <r>    3.3917    1.0000 </r>
       <r>    3.3917    1.0000 </r>
       <r>    3.7979    1.0000 </r>
       <r>    4.6491    1.0000 </r>
       <r>    4.6491    1.0000 </r>
       <r>    5.8375    1.0000 </r>
       <r>    5.8375    1.0000 </r>
       <r>    6.3964    1.0000 </r>
       <r>    6.9115    1.0000 </r>
       <r>    7.4506    1.0000 </r>
       <r>    7.4506    1.0000 </r>
       <r>    7.7977    1.0000 </r>
       <r>    7.7977    1.0000 </r>
       <r>    9.8566    0.0000 </r>
       <r>   10.3570    0.0000 </r>
       <r>   11.0802    0.0000 </r>
       <r>   11.0802    0.0000 </r>
       <r>   11.2569    0.0000 </r>
       <r>   11.2569    0.0000 </r>
      </set>
     </set>
    </set>
   </array>
  </eigenvalues>
  <separator name="orbital magnetization" >
   <v name="MAGDIPOLOUT">      0.00000000      0.00000000      0.00000000</v>
  </separator>
  <dos>
   <i name="efermi">      8.29946782 </i>
   <total>
    <array>
     <dimension dim="1">gridpoints</dimension>
     <dimension dim="2">spin</dimension>
     <field>energy</field>
     <field>total</field>
     <field>integrated</field>
     <set>
      <set comment="spin 1">
       <r>   -11.9195     0.0000     0.0000 </r>
       <r>   -11.8325     0.0000     0.0000 </r>
       <r>   -11.7455     0.0000     0.0000 </r>
       <r>   -11.6585     0.0000     0.0000 </r>
       <r>   -11.5716     0.0000     0.0000 </r>
       <r>   -11.4846     0.0000     0.0000 </r>
       <r>   -11.3976     0.0000     0.0000 </r>
       <r>   -11.3107     0.0000     0.0000 </r>
       <r>   -11.2237     0.0000     0.0000 </r>
       <r>   -11.1367     0.0000     0.0000 </r>
       <r>   -11.0497     0.0000     0.0000 </r>
       <r>   -10.9628     0.0006     0.0001 </r>
       <r>   -10.8758     0.0026     0.0003 </r>
       <r>   -10.7888    -0.0223    -0.0017 </r>
       <r>   -10.7018     0.1778     0.0138 </r>
       <r>   -10.6149     0.9243     0.0942 </r>
       <r>   -10.5279     1.6898     0.2412 </r>
       <r>   -10.4409     2.3185     0.4428 </r>
       <r>   -10.3540     1.3482     0.5601 </r>
       <r>   -10.2670     1.5168     0.6920 </r>
       <r>   -10.1800     2.5377     0.9127 </r>
       <r>   -10.0930     3.6962     1.2342 </r>
       <r>   -10.0061     5.6324     1.7240 </r>
       <r>    -9.9191     3.4265     2.0221 </r>
       <r>    -9.8321     3.7060     2.3444 </r>
       <r>    -9.7451     3.5293     2.6513 </r>
       <r>    -9.6582     2.6894     2.8852 </r>
       <r>    -9.5712     2.0021     3.0594 </r>
       <r>    -9.4842     1.6830     3.2057 </r>
       <r>    -9.3972     2.9326     3.4608 </r>
       <r>    -9.3103     3.8436     3.7951 </r>
       <r>    -9.2233     0.8706     3.8708 </r>
       <r>    -9.1363     2.5417     4.0919 </r>
       <r>    -9.0494     5.9192     4.6067 </r>
       <r>    -8.9624     9.1331     5.4010 </r>
       <r>    -8.8754     5.4615     5.8760 </r>
       <r>    -8.7884     4.2878     6.2489 </r>
       <r>    -8.7015     4.4363     6.6348 </r>
       <r>    -8.6145     6.6579     7.2138 </r>
       <r>    -8.5275     4.6601     7.6191 </r>
       <r>    -8.4405     5.3293     8.0827 </r>
       <r>    -8.3536     7.7583     8.7574 </r>
       <r>    -8.2666    10.7373     9.6913 </r>
       <r>    -8.1796    10.6869    10.6207 </r>
       <r>    -8.0927     6.6696    11.2008 </r>
       <r>    -8.0057     3.6983    11.5225 </r>
       <r>    -7.9187     4.7711    11.9374 </r>
       <r>    -7.8317     0.8451    12.0109 </r>
       <r>    -7.7448    -0.1447    11.9983 </r>
       <r>    -7.6578     0.0167    11.9998 </r>
       <r>    -7.5708     0.0025    12.0000 </r>
       <r>    -7.4838     0.0000    12.0000 </r>
       <r>    -7.3969     0.0000    12.0000 </r>
       <r>    -7.3099     0.0000    12.0000 </r>
       <r>    -7.2229     0.0000    12.0000 </r>
       <r>    -7.1359     0.0000    12.0000 </r>
       <r>    -7.0490     0.0000    12.0000 </r>
       <r>    -6.9620     0.0000    12.0000 </r>
       <r>    -6.8750     0.0000    12.0000 </r>
       <r>    -6.7881     0.0000    12.0000 </r>
       <r>    -6.7011     0.0000    12.0000 </r>
       <r>    -6.6141     0.0000    12.0000 </r>
       <r>    -6.5271     0.0000    12.0000 </r>
       <r>    -6.4402     0.0000    12.0000 </r>
       <r>    -6.3532     0.0000    12.0000 </r>
       <r>    -6.2662     0.0000    12.0000 </r>
       <r>    -6.1792     0.0000    12.0000 </r>
       <r>    -6.0923     0.0000    12.0000 </r>
       <r>    -6.0053     0.0000    12.0000 </r>
       <r>    -5.9183     0.0000    12.0000 </r>
       <r>    -5.8314     0.0000    12.0000 </r>
       <r>    -5.7444     0.0000    12.0000 </r>
       <r>    -5.6574     0.0000    12.0000 </r>
       <r>    -5.5704     0.0000    12.0000 </r>
       <r>    -5.4835     0.0000    12.0000 </r>
       <r>    -5.3965     0.0000    12.0000 </r>
       <r>    -5.3095     0.0000    12.0000 </r>
       <r>    -5.2225     0.0000    12.0000 </r>
       <r>    -5.1356     0.0000    12.0000 </r>
       <r>    -5.0486     0.0000    12.0000 </r>
       <r>    -4.9616     0.0000    12.0000 </r>
       <r>    -4.8746     0.0000    12.0000 </r>
       <r>    -4.7877     0.0000    12.0000 </r>
       <r>    -4.7007     0.0000    12.0000 </r>
       <r>    -4.6137     0.0000    12.0000 </r>
       <r>    -4.5268     0.0000    12.0000 </r>
       <r>    -4.4398     0.0000    12.0000 </r>
       <r>    -4.3528     0.0000    12.0000 </r>
       <r>    -4.2658     0.0000    12.0000 </r>
       <r>    -4.1789     0.0000    12.0000 </r>
       <r>    -4.0919     0.0000    12.0000 </r>
       <r>    -4.0049     0.0000    12.0000 </r>
       <r>    -3.9179     0.0000    12.0000 </r>
       <r>    -3.8310     0.0000    12.0000 </r>
       <r>    -3.7440     0.0000    12.0000 </r>
       <r>    -3.6570     0.0000    12.0000 </r>
       <r>    -3.5701     0.0000    12.0000 </r>
       <r>    -3.4831     0.0007    12.0001 </r>
       <r>    -3.3961     0.0034    12.0004 </r>
       <r>    -3.3091    -0.0313    11.9976 </r>
       <r>    -3.2222     0.2211    12.0169 </r>
       <r>    -3.1352     1.2968    12.1297 </r>
       <r>    -3.0482     1.0283    12.2191 </r>
       <r>    -2.9612     1.7765    12.3736 </r>
       <r>    -2.8743     1.0506    12.4650 </r>
       <r>    -2.7873     0.6276    12.5196 </r>
       <r>    -2.7003     1.6091    12.6595 </r>
       <r>    -2.6133     1.0673    12.7523 </r>
       <r>    -2.5264     0.9332    12.8335 </r>
       <r>    -2.4394     0.4812    12.8754 </r>
       <r>    -2.3524     1.3911    12.9963 </r>
       <r>    -2.2655     3.8319    13.3296 </r>
       <r>    -2.1785     4.6581    13.7347 </r>
       <r>    -2.0915     5.8638    14.2447 </r>
       <r>    -2.0045     8.8196    15.0118 </r>
       <r>    -1.9176     9.1156    15.8046 </r>
       <r>    -1.8306     7.3353    16.4426 </r>
       <r>    -1.7436     7.8086    17.1217 </r>
       <r>    -1.6566     5.3597    17.5879 </r>
       <r>    -1.5697     4.3726    17.9682 </r>
       <r>    -1.4827     7.6979    18.6377 </r>
       <r>    -1.3957     6.2552    19.1817 </r>
       <r>    -1.3088     4.9651    19.6136 </r>
       <r>    -1.2218     4.8294    20.0336 </r>
       <r>    -1.1348     5.9237    20.5488 </r>
       <r>    -1.0478     5.5167    21.0286 </r>
       <r>    -0.9609     4.7493    21.4416 </r>
       <r>    -0.8739     1.6302    21.5834 </r>
       <r>    -0.7869     1.3979    21.7050 </r>
       <r>    -0.6999     3.3017    21.9922 </r>
       <r>    -0.6130     4.3967    22.3746 </r>
       <r>    -0.5260     1.8073    22.5317 </r>
       <r>    -0.4390     2.1957    22.7227 </r>
       <r>    -0.3521     2.5498    22.9445 </r>
       <r>    -0.2651     2.4659    23.1589 </r>
       <r>    -0.1781     2.7627    23.3992 </r>
       <r>    -0.0911     2.0902    23.5810 </r>
       <r>    -0.0042     1.6414    23.7238 </r>
       <r>     0.0828     4.2005    24.0891 </r>
       <r>     0.1698     3.9760    24.4349 </r>
       <r>     0.2568     3.4980    24.7391 </r>
       <r>     0.3437     6.9557    25.3441 </r>
       <r>     0.4307     5.5930    25.8305 </r>
       <r>     0.5177     3.0732    26.0978 </r>
       <r>     0.6047     3.9471    26.4411 </r>
       <r>     0.6916     4.9014    26.8674 </r>
       <r>     0.7786     4.9762    27.3002 </r>
       <r>     0.8656     7.1297    27.9203 </r>
       <r>     0.9525     6.7176    28.5045 </r>
       <r>     1.0395     7.8258    29.1852 </r>
       <r>     1.1265     7.2544    29.8161 </r>
       <r>     1.2135     8.0523    30.5164 </r>
       <r>     1.3004     7.0441    31.1291 </r>
       <r>     1.3874     3.1392    31.4021 </r>
       <r>     1.4744     4.9431    31.8320 </r>
       <r>     1.5614     4.3394    32.2094 </r>
       <r>     1.6483     4.7457    32.6222 </r>
       <r>     1.7353     5.6852    33.1166 </r>
       <r>     1.8223     7.0554    33.7303 </r>
       <r>     1.9092     8.7725    34.4932 </r>
       <r>     1.9962     6.9142    35.0946 </r>
       <r>     2.0832     5.4122    35.5653 </r>
       <r>     2.1702     5.3808    36.0333 </r>
       <r>     2.2571     3.2404    36.3151 </r>
       <r>     2.3441     5.7166    36.8123 </r>
       <r>     2.4311     8.4076    37.5435 </r>
       <r>     2.5181     7.9057    38.2311 </r>
       <r>     2.6050     4.5112    38.6235 </r>
       <r>     2.6920     5.8753    39.1345 </r>
       <r>     2.7790     5.6005    39.6216 </r>
       <r>     2.8660     5.7664    40.1231 </r>
       <r>     2.9529     8.2848    40.8436 </r>
       <r>     3.0399     4.3779    41.2244 </r>
       <r>     3.1269     5.6397    41.7149 </r>
       <r>     3.2138     7.7059    42.3851 </r>
       <r>     3.3008     7.5911    43.0453 </r>
       <r>     3.3878     6.7122    43.6291 </r>
       <r>     3.4748     5.4023    44.0990 </r>
       <r>     3.5617     7.1720    44.7227 </r>
       <r>     3.6487     5.8848    45.2346 </r>
       <r>     3.7357     9.2237    46.0368 </r>
       <r>     3.8227     6.7797    46.6264 </r>
       <r>     3.9096     6.4582    47.1881 </r>
       <r>     3.9966     4.5382    47.5828 </r>
       <r>     4.0836     2.0806    47.7638 </r>
       <r>     4.1705     1.0074    47.8514 </r>
       <r>     4.2575     0.3667    47.8833 </r>
       <r>     4.3445     1.4219    48.0069 </r>
       <r>     4.4315     1.5324    48.1402 </r>
       <r>     4.5184     2.7778    48.3818 </r>
       <r>     4.6054     3.1041    48.6518 </r>
       <r>     4.6924     3.3696    48.9449 </r>
       <r>     4.7794     4.4615    49.3329 </r>
       <r>     4.8663     1.8096    49.4903 </r>
       <r>     4.9533     0.6641    49.5480 </r>
       <r>     5.0403     2.6172    49.7757 </r>
       <r>     5.1273     3.9969    50.1233 </r>
       <r>     5.2142     3.2026    50.4018 </r>
       <r>     5.3012     3.2849    50.6875 </r>
       <r>     5.3882     5.1678    51.1370 </r>
       <r>     5.4751     4.5622    51.5338 </r>
       <r>     5.5621     5.1355    51.9804 </r>
       <r>     5.6491     7.4657    52.6297 </r>
       <r>     5.7361     7.5436    53.2858 </r>
       <r>     5.8230    10.8669    54.2310 </r>
       <r>     5.9100     9.6442    55.0697 </r>
       <r>     5.9970     7.2095    55.6968 </r>
       <r>     6.0840     7.8482    56.3794 </r>
       <r>     6.1709     4.9948    56.8138 </r>
       <r>     6.2579     1.6846    56.9603 </r>
       <r>     6.3449     1.6731    57.1058 </r>
       <r>     6.4318     2.7391    57.3440 </r>
       <r>     6.5188     2.9032    57.5965 </r>
       <r>     6.6058     2.5087    57.8147 </r>
       <r>     6.6928     1.6352    57.9569 </r>
       <r>     6.7797     1.7963    58.1132 </r>
       <r>     6.8667     1.6943    58.2605 </r>
       <r>     6.9537     1.1155    58.3576 </r>
       <r>     7.0407     1.0718    58.4508 </r>
       <r>     7.1276     1.0503    58.5421 </r>
       <r>     7.2146     2.1267    58.7271 </r>
       <r>     7.3016     2.6190    58.9549 </r>
       <r>     7.3886     2.6444    59.1848 </r>
       <r>     7.4755     2.3509    59.3893 </r>
       <r>     7.5625     3.1493    59.6632 </r>
       <r>     7.6495     2.0206    59.8390 </r>
       <r>     7.7364     2.4579    60.0527 </r>
       <r>     7.8234     3.2048    60.3315 </r>
       <r>     7.9104     2.2963    60.5312 </r>
       <r>     7.9974     4.6541    60.9359 </r>
       <r>     8.0843     4.1194    61.2942 </r>
       <r>     8.1713     2.7465    61.5331 </r>
       <r>     8.2583     3.9674    61.8781 </r>
       <r>     8.3453     2.8651    62.1273 </r>
       <r>     8.4322     5.1157    62.5723 </r>
       <r>     8.5192     6.0159    63.0955 </r>
       <r>     8.6062     3.6032    63.4089 </r>
       <r>     8.6931     2.1349    63.5945 </r>
       <r>     8.7801     0.4051    63.6298 </r>
       <r>     8.8671     1.2201    63.7359 </r>
       <r>     8.9541     2.5490    63.9576 </r>
       <r>     9.0410     4.3751    64.3381 </r>
       <r>     9.1280     3.0499    64.6034 </r>
       <r>     9.2150     1.0376    64.6936 </r>
       <r>     9.3020     2.8304    64.9398 </r>
       <r>     9.3889     5.3467    65.4048 </r>
       <r>     9.4759     3.2864    65.6906 </r>
       <r>     9.5629     3.1468    65.9643 </r>
       <r>     9.6498     4.2068    66.3302 </r>
       <r>     9.7368     4.2037    66.6958 </r>
       <r>     9.8238     3.2974    66.9826 </r>
       <r>     9.9108     4.6960    67.3910 </r>
       <r>     9.9977     5.9732    67.9105 </r>
       <r>    10.0847     2.6329    68.1395 </r>
       <r>    10.1717     2.8224    68.3850 </r>
       <r>    10.2587     5.0312    68.8226 </r>
       <r>    10.3456     3.8592    69.1582 </r>
       <r>    10.4326     3.1746    69.4343 </r>
       <r>    10.5196     4.6889    69.8421 </r>
       <r>    10.6066     3.0347    70.1061 </r>
       <r>    10.6935     2.9202    70.3600 </r>
       <r>    10.7805     3.8405    70.6941 </r>
       <r>    10.8675     5.2268    71.1486 </r>
       <r>    10.9544     5.2088    71.6017 </r>
       <r>    11.0414     7.4571    72.2502 </r>
       <r>    11.1284     8.4688    72.9868 </r>
       <r>    11.2154     7.2341    73.6160 </r>
       <r>    11.3023     7.5838    74.2756 </r>
       <r>    11.3893     7.7231    74.9473 </r>
       <r>    11.4763     4.9260    75.3757 </r>
       <r>    11.5633     3.8265    75.7085 </r>
       <r>    11.6502     4.1726    76.0714 </r>
       <r>    11.7372     5.3949    76.5406 </r>
       <r>    11.8242     4.1146    76.8985 </r>
       <r>    11.9111     3.8848    77.2363 </r>
       <r>    11.9981     5.5583    77.7198 </r>
       <r>    12.0851     4.9522    78.1505 </r>
       <r>    12.1721     3.5606    78.4602 </r>
       <r>    12.2590     5.1431    78.9075 </r>
       <r>    12.3460     3.5344    79.2149 </r>
       <r>    12.4330     2.3375    79.4182 </r>
       <r>    12.5200     2.3101    79.6191 </r>
       <r>    12.6069     1.2047    79.7239 </r>
       <r>    12.6939     1.8171    79.8819 </r>
       <r>    12.7809     0.9335    79.9631 </r>
       <r>    12.8679     0.3882    79.9968 </r>
       <r>    12.9548     0.0038    79.9972 </r>
       <r>    13.0418     0.0294    79.9997 </r>
       <r>    13.1288     0.0037    80.0001 </r>
       <r>    13.2157    -0.0008    80.0000 </r>
       <r>    13.3027     0.0001    80.0000 </r>
       <r>    13.3897     0.0000    80.0000 </r>
       <r>    13.4767     0.0000    80.0000 </r>
       <r>    13.5636     0.0000    80.0000 </r>
       <r>    13.6506     0.0000    80.0000 </r>
       <r>    13.7376     0.0000    80.0000 </r>
       <r>    13.8246     0.0000    80.0000 </r>
       <r>    13.9115     0.0000    80.0000 </r>
       <r>    13.9985     0.0000    80.0000 </r>
       <r>    14.0855     0.0000    80.0000 </r>
       <r>    14.1724     0.0000    80.0000 </r>
      </set>
     </set>
    </array>
   </total>
  </dos>
 </calculation>
 <structure name="finalpos" >
  <crystal>
   <varray name="basis" >
    <v>       4.14026895      -7.17115616       0.00000000 </v>
    <v>       4.14026894       7.17115617       0.00000000 </v>
    <v>       0.00000000       0.00000000       2.91251426 </v>
   </varray>
   <i name="volume">    172.94809776 </i>
   <varray name="rec_basis" >
    <v>       0.12076510      -0.06972376       0.00000000 </v>
    <v>       0.12076510       0.06972376       0.00000000 </v>
    <v>       0.00000000       0.00000000       0.34334596 </v>
   </varray>
  </crystal>
  <varray name="positions" >
   <v>       0.18989522       0.85114068       0.75000000 </v>
   <v>       0.33875454       0.18989522       0.25000000 </v>
   <v>       0.85114068       0.66124546       0.25000000 </v>
   <v>       0.14885932       0.33875454       0.75000000 </v>
   <v>       0.66124546       0.81010478       0.75000000 </v>
   <v>       0.81010478       0.14885932       0.25000000 </v>
   <v>       0.33333333       0.66666667       0.75000000 </v>
   <v>       0.66666667       0.33333333       0.25000000 </v>
   <v>       0.96706850       0.63810412       0.75000000 </v>
   <v>       0.32896438       0.96706850       0.25000000 </v>
   <v>       0.63810412       0.67103562       0.25000000 </v>
   <v>       0.36189588       0.32896438       0.75000000 </v>
   <v>       0.03293150       0.36189588       0.25000000 </v>
   <v>       0.67103562       0.03293150       0.75000000 </v>
  </varray>
 </structure>
</modeling>
