unknown system                          
           1
     4.140269   -7.171156    0.000000
     4.140269    7.171156    0.000000
     0.000000    0.000000    2.912514
   Si   N 
   6   8
Direct configuration=     1
   0.19708959  0.83151770  0.75000000
   0.36557189  0.19708959  0.25000000
   0.83151770  0.63442811  0.25000000
   0.16848230  0.36557189  0.75000000
   0.63442811  0.80291041  0.75000000
   0.80291041  0.16848230  0.25000000
   0.33333333  0.66666667  0.75000000
   0.66666667  0.33333333  0.25000000
   0.96358754  0.61246345  0.75000000
   0.35112409  0.96358754  0.25000000
   0.61246345  0.64887591  0.25000000
   0.38753655  0.35112409  0.75000000
   0.03641246  0.38753655  0.25000000
   0.64887591  0.03641246  0.75000000
Direct configuration=     2
   0.19941362  0.83127373  0.75000000
   0.36813989  0.19941362  0.25000000
   0.83127373  0.63186011  0.25000000
   0.16872627  0.36813989  0.75000000
   0.63186011  0.80058638  0.75000000
   0.80058638  0.16872627  0.25000000
   0.33333333  0.66666667  0.75000000
   0.66666667  0.33333333  0.25000000
   0.96262546  0.61626731  0.75000000
   0.34635815  0.96262546  0.25000000
   0.61626731  0.65364185  0.25000000
   0.38373269  0.34635815  0.75000000
   0.03737454  0.38373269  0.25000000
   0.65364185  0.03737454  0.75000000
Direct configuration=     3
   0.19901817  0.83131524  0.75000000
   0.36770293  0.19901817  0.25000000
   0.83131524  0.63229707  0.25000000
   0.16868476  0.36770293  0.75000000
   0.63229707  0.80098183  0.75000000
   0.80098183  0.16868476  0.25000000
   0.33333333  0.66666667  0.75000000
   0.66666667  0.33333333  0.25000000
   0.96278916  0.61562006  0.75000000
   0.34716910  0.96278916  0.25000000
   0.61562006  0.65283090  0.25000000
   0.38437994  0.34716910  0.75000000
   0.03721084  0.38437994  0.25000000
   0.65283090  0.03721084  0.75000000
Direct configuration=     4
   0.19815560  0.83118997  0.75000000
   0.36696563  0.19815560  0.25000000
   0.83118997  0.63303437  0.25000000
   0.16881003  0.36696563  0.75000000
   0.63303437  0.80184440  0.75000000
   0.80184440  0.16881003  0.25000000
   0.33333333  0.66666667  0.75000000
   0.66666667  0.33333333  0.25000000
   0.96310949  0.61660890  0.75000000
   0.34650059  0.96310949  0.25000000
   0.61660890  0.65349941  0.25000000
   0.38339110  0.34650059  0.75000000
   0.03689051  0.38339110  0.25000000
   0.65349941  0.03689051  0.75000000
Direct configuration=     5
   0.19605803  0.83088534  0.75000000
   0.36517268  0.19605803  0.25000000
   0.83088534  0.63482732  0.25000000
   0.16911466  0.36517268  0.75000000
   0.63482732  0.80394197  0.75000000
   0.80394197  0.16911466  0.25000000
   0.33333333  0.66666667  0.75000000
   0.66666667  0.33333333  0.25000000
   0.96388847  0.61901355  0.75000000
   0.34487492  0.96388847  0.25000000
   0.61901355  0.65512508  0.25000000
   0.38098645  0.34487492  0.75000000
   0.03611153  0.38098645  0.25000000
   0.65512508  0.03611153  0.75000000
Direct configuration=     6
   0.19585577  0.83100274  0.75000000
   0.36485302  0.19585577  0.25000000
   0.83100274  0.63514698  0.25000000
   0.16899726  0.36485302  0.75000000
   0.63514698  0.80414423  0.75000000
   0.80414423  0.16899726  0.25000000
   0.33333333  0.66666667  0.75000000
   0.66666667  0.33333333  0.25000000
   0.96387669  0.61927261  0.75000000
   0.34460408  0.96387669  0.25000000
   0.61927261  0.65539592  0.25000000
   0.38072739  0.34460408  0.75000000
   0.03612331  0.38072739  0.25000000
   0.65539592  0.03612331  0.75000000
Direct configuration=     7
   0.19524899  0.83135494  0.75000000
   0.36389405  0.19524899  0.25000000
   0.83135494  0.63610595  0.25000000
   0.16864506  0.36389405  0.75000000
   0.63610595  0.80475101  0.75000000
   0.80475101  0.16864506  0.25000000
   0.33333333  0.66666667  0.75000000
   0.66666667  0.33333333  0.25000000
   0.96384136  0.62004979  0.75000000
   0.34379157  0.96384136  0.25000000
   0.62004979  0.65620843  0.25000000
   0.37995021  0.34379157  0.75000000
   0.03615864  0.37995021  0.25000000
   0.65620843  0.03615864  0.75000000
Direct configuration=     8
   0.19403543  0.83205934  0.75000000
   0.36197609  0.19403543  0.25000000
   0.83205934  0.63802391  0.25000000
   0.16794066  0.36197609  0.75000000
   0.63802391  0.80596457  0.75000000
   0.80596457  0.16794066  0.25000000
   0.33333333  0.66666667  0.75000000
   0.66666667  0.33333333  0.25000000
   0.96377069  0.62160414  0.75000000
   0.34216656  0.96377069  0.25000000
   0.62160414  0.65783344  0.25000000
   0.37839586  0.34216656  0.75000000
   0.03622931  0.37839586  0.25000000
   0.65783344  0.03622931  0.75000000
Direct configuration=     9
   0.19160832  0.83346814  0.75000000
   0.35814018  0.19160832  0.25000000
   0.83346814  0.64185982  0.25000000
   0.16653186  0.35814018  0.75000000
   0.64185982  0.80839168  0.75000000
   0.80839168  0.16653186  0.25000000
   0.33333333  0.66666667  0.75000000
   0.66666667  0.33333333  0.25000000
   0.96362936  0.62471283  0.75000000
   0.33891653  0.96362936  0.25000000
   0.62471283  0.66108347  0.25000000
   0.37528717  0.33891653  0.75000000
   0.03637064  0.37528717  0.25000000
   0.66108347  0.03637064  0.75000000
Direct configuration=    10
   0.18675409  0.83628573  0.75000000
   0.35046836  0.18675409  0.25000000
   0.83628573  0.64953164  0.25000000
   0.16371427  0.35046836  0.75000000
   0.64953164  0.81324591  0.75000000
   0.81324591  0.16371427  0.25000000
   0.33333333  0.66666667  0.75000000
   0.66666667  0.33333333  0.25000000
   0.96334670  0.63093023  0.75000000
   0.33241646  0.96334670  0.25000000
   0.63093023  0.66758354  0.25000000
   0.36906977  0.33241646  0.75000000
   0.03665330  0.36906977  0.25000000
   0.66758354  0.03665330  0.75000000
Direct configuration=    11
   0.18647496  0.83668353  0.75000000
   0.34979142  0.18647496  0.25000000
   0.83668353  0.65020858  0.25000000
   0.16331647  0.34979142  0.75000000
   0.65020858  0.81352504  0.75000000
   0.81352504  0.16331647  0.25000000
   0.33333333  0.66666667  0.75000000
   0.66666667  0.33333333  0.25000000
   0.96320420  0.63135560  0.75000000
   0.33184860  0.96320420  0.25000000
   0.63135560  0.66815140  0.25000000
   0.36864440  0.33184860  0.75000000
   0.03679580  0.36864440  0.25000000
   0.66815140  0.03679580  0.75000000
Direct configuration=    12
   0.18563755  0.83787694  0.75000000
   0.34776061  0.18563755  0.25000000
   0.83787694  0.65223939  0.25000000
   0.16212306  0.34776061  0.75000000
   0.65223939  0.81436245  0.75000000
   0.81436245  0.16212306  0.25000000
   0.33333333  0.66666667  0.75000000
   0.66666667  0.33333333  0.25000000
   0.96277672  0.63263172  0.75000000
   0.33014500  0.96277672  0.25000000
   0.63263172  0.66985500  0.25000000
   0.36736828  0.33014500  0.75000000
   0.03722328  0.36736828  0.25000000
   0.66985500  0.03722328  0.75000000
Direct configuration=    13
   0.18396273  0.84026376  0.75000000
   0.34369897  0.18396273  0.25000000
   0.84026376  0.65630103  0.25000000
   0.15973624  0.34369897  0.75000000
   0.65630103  0.81603727  0.75000000
   0.81603727  0.15973624  0.25000000
   0.33333333  0.66666667  0.75000000
   0.66666667  0.33333333  0.25000000
   0.96192175  0.63518395  0.75000000
   0.32673780  0.96192175  0.25000000
   0.63518395  0.67326220  0.25000000
   0.36481605  0.32673780  0.75000000
   0.03807825  0.36481605  0.25000000
   0.67326220  0.03807825  0.75000000
Direct configuration=    14
   0.18061310  0.84503739  0.75000000
   0.33557571  0.18061310  0.25000000
   0.84503739  0.66442429  0.25000000
   0.15496261  0.33557571  0.75000000
   0.66442429  0.81938690  0.75000000
   0.81938690  0.15496261  0.25000000
   0.33333333  0.66666667  0.75000000
   0.66666667  0.33333333  0.25000000
   0.96021182  0.64028842  0.75000000
   0.31992340  0.96021182  0.25000000
   0.64028842  0.68007660  0.25000000
   0.35971158  0.31992340  0.75000000
   0.03978818  0.35971158  0.25000000
   0.68007660  0.03978818  0.75000000
Direct configuration=    15
   0.18223232  0.84272980  0.75000000
   0.33950252  0.18223232  0.25000000
   0.84272980  0.66049748  0.25000000
   0.15727020  0.33950252  0.75000000
   0.66049748  0.81776768  0.75000000
   0.81776768  0.15727020  0.25000000
   0.33333333  0.66666667  0.75000000
   0.66666667  0.33333333  0.25000000
   0.96103841  0.63782090  0.75000000
   0.32321750  0.96103841  0.25000000
   0.63782090  0.67678250  0.25000000
   0.36217910  0.32321750  0.75000000
   0.03896159  0.36217910  0.25000000
   0.67678250  0.03896159  0.75000000
Direct configuration=    16
   0.18279891  0.84300898  0.75000000
   0.33978993  0.18279891  0.25000000
   0.84300898  0.66021007  0.25000000
   0.15699102  0.33978993  0.75000000
   0.66021007  0.81720109  0.75000000
   0.81720109  0.15699102  0.25000000
   0.33333333  0.66666667  0.75000000
   0.66666667  0.33333333  0.25000000
   0.96076353  0.63720041  0.75000000
   0.32356313  0.96076353  0.25000000
   0.63720041  0.67643687  0.25000000
   0.36279959  0.32356313  0.75000000
   0.03923647  0.36279959  0.25000000
   0.67643687  0.03923647  0.75000000
Direct configuration=    17
   0.18449866  0.84384650  0.75000000
   0.34065217  0.18449866  0.25000000
   0.84384650  0.65934783  0.25000000
   0.15615350  0.34065217  0.75000000
   0.65934783  0.81550134  0.75000000
   0.81550134  0.15615350  0.25000000
   0.33333333  0.66666667  0.75000000
   0.66666667  0.33333333  0.25000000
   0.95993892  0.63533892  0.75000000
   0.32460000  0.95993892  0.25000000
   0.63533892  0.67540000  0.25000000
   0.36466108  0.32460000  0.75000000
   0.04006108  0.36466108  0.25000000
   0.67540000  0.04006108  0.75000000
Direct configuration=    18
   0.18532456  0.84425344  0.75000000
   0.34107112  0.18532456  0.25000000
   0.84425344  0.65892888  0.25000000
   0.15574656  0.34107112  0.75000000
   0.65892888  0.81467544  0.75000000
   0.81467544  0.15574656  0.25000000
   0.33333333  0.66666667  0.75000000
   0.66666667  0.33333333  0.25000000
   0.95953825  0.63443444  0.75000000
   0.32510381  0.95953825  0.25000000
   0.63443444  0.67489619  0.25000000
   0.36556556  0.32510381  0.75000000
   0.04046175  0.36556556  0.25000000
   0.67489619  0.04046175  0.75000000
Direct configuration=    19
   0.18533809  0.84441893  0.75000000
   0.34091916  0.18533809  0.25000000
   0.84441893  0.65908084  0.25000000
   0.15558107  0.34091916  0.75000000
   0.65908084  0.81466191  0.75000000
   0.81466191  0.15558107  0.25000000
   0.33333333  0.66666667  0.75000000
   0.66666667  0.33333333  0.25000000
   0.95970871  0.63438651  0.75000000
   0.32532220  0.95970871  0.25000000
   0.63438651  0.67467780  0.25000000
   0.36561349  0.32532220  0.75000000
   0.04029129  0.36561349  0.25000000
   0.67467780  0.04029129  0.75000000
Direct configuration=    20
   0.18537867  0.84491540  0.75000000
   0.34046327  0.18537867  0.25000000
   0.84491540  0.65953673  0.25000000
   0.15508460  0.34046327  0.75000000
   0.65953673  0.81462133  0.75000000
   0.81462133  0.15508460  0.25000000
   0.33333333  0.66666667  0.75000000
   0.66666667  0.33333333  0.25000000
   0.96022012  0.63424273  0.75000000
   0.32597738  0.96022012  0.25000000
   0.63424273  0.67402262  0.25000000
   0.36575727  0.32597738  0.75000000
   0.03977988  0.36575727  0.25000000
   0.67402262  0.03977988  0.75000000
Direct configuration=    21
   0.18545983  0.84590834  0.75000000
   0.33955149  0.18545983  0.25000000
   0.84590834  0.66044851  0.25000000
   0.15409166  0.33955149  0.75000000
   0.66044851  0.81454017  0.75000000
   0.81454017  0.15409166  0.25000000
   0.33333333  0.66666667  0.75000000
   0.66666667  0.33333333  0.25000000
   0.96124292  0.63395517  0.75000000
   0.32728775  0.96124292  0.25000000
   0.63395517  0.67271225  0.25000000
   0.36604483  0.32728775  0.75000000
   0.03875708  0.36604483  0.25000000
   0.67271225  0.03875708  0.75000000
Direct configuration=    22
   0.18594217  0.84612865  0.75000000
   0.33981352  0.18594217  0.25000000
   0.84612865  0.66018648  0.25000000
   0.15387135  0.33981352  0.75000000
   0.66018648  0.81405783  0.75000000
   0.81405783  0.15387135  0.25000000
   0.33333333  0.66666667  0.75000000
   0.66666667  0.33333333  0.25000000
   0.96134625  0.63436571  0.75000000
   0.32698054  0.96134625  0.25000000
   0.63436571  0.67301946  0.25000000
   0.36563429  0.32698054  0.75000000
   0.03865375  0.36563429  0.25000000
   0.67301946  0.03865375  0.75000000
Direct configuration=    23
   0.18684245  0.84653985  0.75000000
   0.34030259  0.18684245  0.25000000
   0.84653985  0.65969741  0.25000000
   0.15346015  0.34030259  0.75000000
   0.65969741  0.81315755  0.75000000
   0.81315755  0.15346015  0.25000000
   0.33333333  0.66666667  0.75000000
   0.66666667  0.33333333  0.25000000
   0.96153911  0.63513198  0.75000000
   0.32640713  0.96153911  0.25000000
   0.63513198  0.67359287  0.25000000
   0.36486802  0.32640713  0.75000000
   0.03846089  0.36486802  0.25000000
   0.67359287  0.03846089  0.75000000
Direct configuration=    24
   0.18705415  0.84678584  0.75000000
   0.34026830  0.18705415  0.25000000
   0.84678584  0.65973170  0.25000000
   0.15321416  0.34026830  0.75000000
   0.65973170  0.81294585  0.75000000
   0.81294585  0.15321416  0.25000000
   0.33333333  0.66666667  0.75000000
   0.66666667  0.33333333  0.25000000
   0.96210824  0.63554979  0.75000000
   0.32655845  0.96210824  0.25000000
   0.63554979  0.67344155  0.25000000
   0.36445021  0.32655845  0.75000000
   0.03789176  0.36445021  0.25000000
   0.67344155  0.03789176  0.75000000
Direct configuration=    25
   0.18768926  0.84752381  0.75000000
   0.34016544  0.18768926  0.25000000
   0.84752381  0.65983456  0.25000000
   0.15247619  0.34016544  0.75000000
   0.65983456  0.81231074  0.75000000
   0.81231074  0.15247619  0.25000000
   0.33333333  0.66666667  0.75000000
   0.66666667  0.33333333  0.25000000
   0.96381562  0.63680320  0.75000000
   0.32701242  0.96381562  0.25000000
   0.63680320  0.67298758  0.25000000
   0.36319680  0.32701242  0.75000000
   0.03618438  0.36319680  0.25000000
   0.67298758  0.03618438  0.75000000
Direct configuration=    26
   0.18800837  0.84812144  0.75000000
   0.33988694  0.18800837  0.25000000
   0.84812144  0.66011306  0.25000000
   0.15187856  0.33988694  0.75000000
   0.66011306  0.81199163  0.75000000
   0.81199163  0.15187856  0.25000000
   0.33333333  0.66666667  0.75000000
   0.66666667  0.33333333  0.25000000
   0.96423423  0.63687351  0.75000000
   0.32736071  0.96423423  0.25000000
   0.63687351  0.67263929  0.25000000
   0.36312649  0.32736071  0.75000000
   0.03576577  0.36312649  0.25000000
   0.67263929  0.03576577  0.75000000
Direct configuration=    27
   0.18896572  0.84991430  0.75000000
   0.33905142  0.18896572  0.25000000
   0.84991430  0.66094858  0.25000000
   0.15008570  0.33905142  0.75000000
   0.66094858  0.81103428  0.75000000
   0.81103428  0.15008570  0.25000000
   0.33333333  0.66666667  0.75000000
   0.66666667  0.33333333  0.25000000
   0.96549005  0.63708445  0.75000000
   0.32840560  0.96549005  0.25000000
   0.63708445  0.67159440  0.25000000
   0.36291555  0.32840560  0.75000000
   0.03450995  0.36291555  0.25000000
   0.67159440  0.03450995  0.75000000
Direct configuration=    28
   0.18908015  0.84997946  0.75000000
   0.33910069  0.18908015  0.25000000
   0.84997946  0.66089931  0.25000000
   0.15002054  0.33910069  0.75000000
   0.66089931  0.81091985  0.75000000
   0.81091985  0.15002054  0.25000000
   0.33333333  0.66666667  0.75000000
   0.66666667  0.33333333  0.25000000
   0.96571808  0.63732882  0.75000000
   0.32838926  0.96571808  0.25000000
   0.63732882  0.67161074  0.25000000
   0.36267118  0.32838926  0.75000000
   0.03428192  0.36267118  0.25000000
   0.67161074  0.03428192  0.75000000
Direct configuration=    29
   0.18931469  0.85011303  0.75000000
   0.33920167  0.18931469  0.25000000
   0.85011303  0.66079833  0.25000000
   0.14988697  0.33920167  0.75000000
   0.66079833  0.81068531  0.75000000
   0.81068531  0.14988697  0.25000000
   0.33333333  0.66666667  0.75000000
   0.66666667  0.33333333  0.25000000
   0.96618548  0.63782970  0.75000000
   0.32835578  0.96618548  0.25000000
   0.63782970  0.67164422  0.25000000
   0.36217030  0.32835578  0.75000000
   0.03381452  0.36217030  0.25000000
   0.67164422  0.03381452  0.75000000
Direct configuration=    30
   0.18947710  0.85033180  0.75000000
   0.33914529  0.18947710  0.25000000
   0.85033180  0.66085471  0.25000000
   0.14966820  0.33914529  0.75000000
   0.66085471  0.81052290  0.75000000
   0.81052290  0.14966820  0.25000000
   0.33333333  0.66666667  0.75000000
   0.66666667  0.33333333  0.25000000
   0.96636231  0.63792092  0.75000000
   0.32844139  0.96636231  0.25000000
   0.63792092  0.67155861  0.25000000
   0.36207908  0.32844139  0.75000000
   0.03363769  0.36207908  0.25000000
   0.67155861  0.03363769  0.75000000
Direct configuration=    31
   0.18996430  0.85098813  0.75000000
   0.33897617  0.18996430  0.25000000
   0.85098813  0.66102383  0.25000000
   0.14901187  0.33897617  0.75000000
   0.66102383  0.81003570  0.75000000
   0.81003570  0.14901187  0.25000000
   0.33333333  0.66666667  0.75000000
   0.66666667  0.33333333  0.25000000
   0.96689280  0.63819458  0.75000000
   0.32869822  0.96689280  0.25000000
   0.63819458  0.67130178  0.25000000
   0.36180542  0.32869822  0.75000000
   0.03310720  0.36180542  0.25000000
   0.67130178  0.03310720  0.75000000
Direct configuration=    32
   0.18992007  0.85108579  0.75000000
   0.33883428  0.18992007  0.25000000
   0.85108579  0.66116572  0.25000000
   0.14891421  0.33883428  0.75000000
   0.66116572  0.81007993  0.75000000
   0.81007993  0.14891421  0.25000000
   0.33333333  0.66666667  0.75000000
   0.66666667  0.33333333  0.25000000
   0.96700528  0.63813667  0.75000000
   0.32886861  0.96700528  0.25000000
   0.63813667  0.67113139  0.25000000
   0.36186333  0.32886861  0.75000000
   0.03299472  0.36186333  0.25000000
   0.67113139  0.03299472  0.75000000
Direct configuration=    33
   0.18989522  0.85114068  0.75000000
   0.33875454  0.18989522  0.25000000
   0.85114068  0.66124546  0.25000000
   0.14885932  0.33875454  0.75000000
   0.66124546  0.81010478  0.75000000
   0.81010478  0.14885932  0.25000000
   0.33333333  0.66666667  0.75000000
   0.66666667  0.33333333  0.25000000
   0.96706850  0.63810412  0.75000000
   0.32896438  0.96706850  0.25000000
   0.63810412  0.67103562  0.25000000
   0.36189588  0.32896438  0.75000000
   0.03293150  0.36189588  0.25000000
   0.67103562  0.03293150  0.75000000
