  56  56   0   0
  0.1267206E+02  0.8919595E-09  0.8919595E-09  0.8919595E-09  0.5000000E-15
  1.000000000000000E-004
  CAR 
 unknown system                          
     12.42629966    -10.85923965  301      8.09460217      1.00000000
    -10.859  0.0000E+00  0.0000E+00
    -10.782  0.0000E+00  0.0000E+00
    -10.704  0.0000E+00  0.0000E+00
    -10.626  0.3923E-30  0.3045E-31
    -10.549  0.5849E-25  0.4540E-26
    -10.471  0.2534E-20  0.1967E-21
    -10.394  0.3175E-16  0.2465E-17
    -10.316  0.1147E-12  0.8907E-14
    -10.238  0.1184E-09  0.9195E-11
    -10.161  0.3460E-07  0.2695E-08
    -10.083  0.2784E-05  0.2187E-06
    -10.005  0.5369E-04  0.4386E-05
     -9.928  0.3961E-04  0.7460E-05
     -9.850 -0.1093E-02 -0.7736E-04
     -9.773  0.7535E-02  0.5075E-03
     -9.695  0.3013E-01  0.2846E-02
     -9.617  0.5290E-01  0.6952E-02
     -9.540  0.6937E-01  0.1234E-01
     -9.462  0.8017E-01  0.1856E-01
     -9.384  0.1184E+00  0.2775E-01
     -9.307  0.1386E+00  0.3851E-01
     -9.229  0.2149E+00  0.5519E-01
     -9.152  0.1990E+00  0.7064E-01
     -9.074  0.1768E+00  0.8436E-01
     -8.996  0.4114E+00  0.1163E+00
     -8.919  0.3825E+00  0.1460E+00
     -8.841  0.1669E+00  0.1589E+00
     -8.764  0.1815E-01  0.1604E+00
     -8.686 -0.3839E-02  0.1601E+00
     -8.608 -0.6385E-02  0.1596E+00
     -8.531  0.6641E-02  0.1601E+00
     -8.453  0.2561E+00  0.1799E+00
     -8.375  0.4549E+00  0.2153E+00
     -8.298  0.2566E+00  0.2352E+00
     -8.220  0.8330E-01  0.2416E+00
     -8.143  0.4230E-01  0.2449E+00
     -8.065  0.4762E-01  0.2486E+00
     -7.987  0.1378E+00  0.2593E+00
     -7.910  0.1487E+00  0.2709E+00
     -7.832  0.5490E-01  0.2751E+00
     -7.755  0.1412E+00  0.2861E+00
     -7.677  0.1616E+00  0.2986E+00
     -7.599  0.7481E-01  0.3044E+00
     -7.522  0.6870E-01  0.3098E+00
     -7.444  0.7229E-01  0.3154E+00
     -7.366 -0.4046E-01  0.3122E+00
     -7.289  0.2658E+00  0.3329E+00
     -7.211  0.1384E+01  0.4403E+00
     -7.134  0.5981E+00  0.4867E+00
     -7.056 -0.8879E-01  0.4798E+00
     -6.978 -0.8828E-03  0.4797E+00
     -6.901  0.3370E-02  0.4800E+00
     -6.823  0.1334E-03  0.4800E+00
     -6.745  0.1104E-05  0.4800E+00
     -6.668  0.2345E-08  0.4800E+00
     -6.590  0.1370E-11  0.4800E+00
     -6.513  0.2252E-15  0.4800E+00
     -6.435  0.0000E+00  0.4800E+00
     -6.357  0.0000E+00  0.4800E+00
     -6.280  0.0000E+00  0.4800E+00
     -6.202  0.0000E+00  0.4800E+00
     -6.125  0.0000E+00  0.4800E+00
     -6.047  0.0000E+00  0.4800E+00
     -5.969  0.0000E+00  0.4800E+00
     -5.892  0.0000E+00  0.4800E+00
     -5.814  0.0000E+00  0.4800E+00
     -5.736  0.0000E+00  0.4800E+00
     -5.659  0.0000E+00  0.4800E+00
     -5.581  0.0000E+00  0.4800E+00
     -5.504  0.0000E+00  0.4800E+00
     -5.426  0.0000E+00  0.4800E+00
     -5.348  0.0000E+00  0.4800E+00
     -5.271  0.0000E+00  0.4800E+00
     -5.193  0.0000E+00  0.4800E+00
     -5.115  0.0000E+00  0.4800E+00
     -5.038  0.0000E+00  0.4800E+00
     -4.960  0.0000E+00  0.4800E+00
     -4.883  0.0000E+00  0.4800E+00
     -4.805  0.0000E+00  0.4800E+00
     -4.727  0.0000E+00  0.4800E+00
     -4.650  0.0000E+00  0.4800E+00
     -4.572  0.0000E+00  0.4800E+00
     -4.495  0.0000E+00  0.4800E+00
     -4.417  0.0000E+00  0.4800E+00
     -4.339  0.0000E+00  0.4800E+00
     -4.262  0.0000E+00  0.4800E+00
     -4.184  0.0000E+00  0.4800E+00
     -4.106  0.0000E+00  0.4800E+00
     -4.029  0.0000E+00  0.4800E+00
     -3.951  0.0000E+00  0.4800E+00
     -3.874  0.0000E+00  0.4800E+00
     -3.796  0.0000E+00  0.4800E+00
     -3.718  0.0000E+00  0.4800E+00
     -3.641  0.0000E+00  0.4800E+00
     -3.563  0.0000E+00  0.4800E+00
     -3.485  0.0000E+00  0.4800E+00
     -3.408  0.0000E+00  0.4800E+00
     -3.330  0.0000E+00  0.4800E+00
     -3.253  0.0000E+00  0.4800E+00
     -3.175  0.0000E+00  0.4800E+00
     -3.097  0.0000E+00  0.4800E+00
     -3.020  0.0000E+00  0.4800E+00
     -2.942  0.0000E+00  0.4800E+00
     -2.865  0.0000E+00  0.4800E+00
     -2.787  0.0000E+00  0.4800E+00
     -2.709  0.0000E+00  0.4800E+00
     -2.632  0.0000E+00  0.4800E+00
     -2.554  0.5103E-28  0.4800E+00
     -2.476  0.6337E-23  0.4800E+00
     -2.399  0.2291E-18  0.4800E+00
     -2.321  0.2397E-14  0.4800E+00
     -2.244  0.7158E-11  0.4800E+00
     -2.166  0.5977E-08  0.4800E+00
     -2.088  0.1338E-05  0.4800E+00
     -2.011  0.7234E-04  0.4800E+00
     -1.933  0.6247E-03  0.4801E+00
     -1.855 -0.2516E-02  0.4799E+00
     -1.778  0.3092E-02  0.4801E+00
     -1.700  0.8767E-01  0.4869E+00
     -1.623  0.2532E+00  0.5066E+00
     -1.545  0.3373E+00  0.5327E+00
     -1.467  0.3125E+00  0.5570E+00
     -1.390  0.4851E+00  0.5946E+00
     -1.312  0.4581E+00  0.6302E+00
     -1.235  0.3089E+00  0.6542E+00
     -1.157  0.3131E+00  0.6785E+00
     -1.079  0.2420E+00  0.6973E+00
     -1.002  0.1584E+00  0.7096E+00
     -0.924  0.2171E+00  0.7264E+00
     -0.846  0.1730E+00  0.7398E+00
     -0.769  0.2372E+00  0.7583E+00
     -0.691  0.2947E+00  0.7811E+00
     -0.614  0.1600E+00  0.7935E+00
     -0.536  0.2157E+00  0.8103E+00
     -0.458  0.2539E+00  0.8300E+00
     -0.381  0.1438E+00  0.8412E+00
     -0.303  0.9607E-01  0.8486E+00
     -0.226  0.2981E+00  0.8717E+00
     -0.148  0.4518E+00  0.9068E+00
     -0.070  0.3647E+00  0.9351E+00
      0.007  0.1957E+00  0.9503E+00
      0.085  0.9094E-01  0.9574E+00
      0.163  0.1048E+00  0.9655E+00
      0.240  0.2114E+00  0.9819E+00
      0.318  0.2656E+00  0.1003E+01
      0.395  0.2186E+00  0.1019E+01
      0.473  0.1931E+00  0.1034E+01
      0.551  0.9525E-01  0.1042E+01
      0.628  0.1117E+00  0.1051E+01
      0.706  0.8444E-01  0.1057E+01
      0.784  0.2958E-01  0.1059E+01
      0.861  0.9960E-01  0.1067E+01
      0.939  0.1334E+00  0.1077E+01
      1.016  0.1014E+00  0.1085E+01
      1.094  0.1772E+00  0.1099E+01
      1.172  0.1079E+00  0.1107E+01
      1.249  0.8279E-01  0.1114E+01
      1.327  0.4878E-01  0.1118E+01
      1.404  0.8038E-01  0.1124E+01
      1.482  0.2153E+00  0.1141E+01
      1.560  0.4160E+00  0.1173E+01
      1.637  0.2669E+00  0.1194E+01
      1.715  0.1495E+00  0.1205E+01
      1.793  0.3140E+00  0.1230E+01
      1.870  0.4398E+00  0.1264E+01
      1.948  0.4114E+00  0.1296E+01
      2.025  0.3771E+00  0.1325E+01
      2.103  0.2894E+00  0.1347E+01
      2.181  0.4321E+00  0.1381E+01
      2.258  0.3946E+00  0.1412E+01
      2.336  0.2933E+00  0.1434E+01
      2.414  0.2336E+00  0.1453E+01
      2.491  0.2509E+00  0.1472E+01
      2.569  0.2573E+00  0.1492E+01
      2.646  0.2967E+00  0.1515E+01
      2.724  0.5768E+00  0.1560E+01
      2.802  0.4534E+00  0.1595E+01
      2.879  0.2719E+00  0.1616E+01
      2.957  0.2271E+00  0.1634E+01
      3.034  0.2746E+00  0.1655E+01
      3.112  0.1979E+00  0.1670E+01
      3.190  0.9430E-01  0.1678E+01
      3.267  0.1959E+00  0.1693E+01
      3.345  0.1350E+00  0.1703E+01
      3.423  0.1130E+00  0.1712E+01
      3.500  0.1246E+00  0.1722E+01
      3.578  0.1041E+00  0.1730E+01
      3.655  0.1123E+00  0.1739E+01
      3.733  0.8759E-01  0.1745E+01
      3.811  0.1581E+00  0.1758E+01
      3.888  0.8892E-01  0.1765E+01
      3.966  0.9800E-01  0.1772E+01
      4.044  0.1931E+00  0.1787E+01
      4.121  0.9423E-01  0.1794E+01
      4.199  0.5824E-01  0.1799E+01
      4.276  0.1720E+00  0.1812E+01
      4.354  0.2425E+00  0.1831E+01
      4.432  0.2339E+00  0.1849E+01
      4.509  0.3474E+00  0.1876E+01
      4.587  0.2355E+00  0.1895E+01
      4.664  0.1824E+00  0.1909E+01
      4.742  0.9428E-01  0.1916E+01
      4.820  0.9136E-01  0.1923E+01
      4.897  0.3472E-01  0.1926E+01
      4.975  0.1153E-01  0.1927E+01
      5.053  0.1604E-01  0.1928E+01
      5.130  0.7485E-01  0.1934E+01
      5.208  0.9257E-01  0.1941E+01
      5.285  0.4703E-01  0.1945E+01
      5.363  0.6208E-01  0.1949E+01
      5.441  0.8753E-01  0.1956E+01
      5.518  0.1464E+00  0.1968E+01
      5.596  0.6469E-01  0.1973E+01
      5.673  0.3586E-01  0.1975E+01
      5.751  0.1395E+00  0.1986E+01
      5.829  0.1120E+00  0.1995E+01
      5.906  0.9630E-01  0.2002E+01
      5.984  0.9890E-01  0.2010E+01
      6.062  0.8169E-01  0.2016E+01
      6.139  0.8865E-01  0.2023E+01
      6.217  0.1674E+00  0.2036E+01
      6.294  0.2825E+00  0.2058E+01
      6.372  0.2503E+00  0.2078E+01
      6.450  0.2615E+00  0.2098E+01
      6.527  0.1407E+00  0.2109E+01
      6.605  0.2100E+00  0.2125E+01
      6.683  0.2677E+00  0.2146E+01
      6.760  0.1599E+00  0.2158E+01
      6.838  0.2323E+00  0.2176E+01
      6.915  0.1178E+00  0.2186E+01
      6.993  0.1395E+00  0.2196E+01
      7.071  0.3259E+00  0.2222E+01
      7.148  0.3342E+00  0.2248E+01
      7.226  0.1867E+00  0.2262E+01
      7.303  0.2352E+00  0.2280E+01
      7.381  0.3271E+00  0.2306E+01
      7.459  0.3258E+00  0.2331E+01
      7.536  0.1820E+00  0.2345E+01
      7.614  0.2160E+00  0.2362E+01
      7.692  0.2234E+00  0.2379E+01
      7.769  0.2226E+00  0.2397E+01
      7.847  0.3330E+00  0.2422E+01
      7.924  0.3101E+00  0.2446E+01
      8.002  0.2117E+00  0.2463E+01
      8.080  0.1874E+00  0.2477E+01
      8.157  0.1253E+00  0.2487E+01
      8.235  0.2599E-01  0.2489E+01
      8.313  0.8059E-01  0.2495E+01
      8.390  0.1423E+00  0.2506E+01
      8.468  0.6759E-01  0.2512E+01
      8.545  0.1713E+00  0.2525E+01
      8.623  0.2896E+00  0.2547E+01
      8.701  0.1156E+00  0.2556E+01
      8.778  0.1937E+00  0.2571E+01
      8.856  0.1390E+00  0.2582E+01
      8.933  0.1658E+00  0.2595E+01
      9.011  0.2218E+00  0.2612E+01
      9.089  0.3136E+00  0.2637E+01
      9.166  0.2807E+00  0.2658E+01
      9.244  0.1468E+00  0.2670E+01
      9.322  0.1589E+00  0.2682E+01
      9.399  0.2614E+00  0.2703E+01
      9.477  0.4597E+00  0.2738E+01
      9.554  0.4373E+00  0.2772E+01
      9.632  0.3094E+00  0.2796E+01
      9.710  0.2845E+00  0.2818E+01
      9.787  0.2703E+00  0.2839E+01
      9.865  0.2802E+00  0.2861E+01
      9.943  0.3803E+00  0.2890E+01
     10.020  0.4110E+00  0.2922E+01
     10.098  0.2701E+00  0.2943E+01
     10.175  0.1953E+00  0.2958E+01
     10.253  0.2042E+00  0.2974E+01
     10.331  0.1606E+00  0.2987E+01
     10.408  0.1362E+00  0.2997E+01
     10.486  0.2076E+00  0.3013E+01
     10.563  0.2634E+00  0.3034E+01
     10.641  0.3145E+00  0.3058E+01
     10.719  0.1748E+00  0.3072E+01
     10.796  0.1470E+00  0.3083E+01
     10.874  0.1887E+00  0.3098E+01
     10.952  0.9224E-01  0.3105E+01
     11.029  0.7011E-01  0.3111E+01
     11.107  0.5755E-01  0.3115E+01
     11.184  0.4525E-01  0.3119E+01
     11.262  0.1226E-01  0.3119E+01
     11.340  0.6911E-03  0.3120E+01
     11.417  0.5655E-02  0.3120E+01
     11.495  0.4466E-03  0.3120E+01
     11.572 -0.2211E-03  0.3120E+01
     11.650  0.3381E-04  0.3120E+01
     11.728  0.3672E-05  0.3120E+01
     11.805  0.5703E-07  0.3120E+01
     11.883  0.2076E-09  0.3120E+01
     11.961  0.1992E-12  0.3120E+01
     12.038  0.5287E-16  0.3120E+01
     12.116  0.0000E+00  0.3120E+01
     12.193  0.0000E+00  0.3120E+01
     12.271  0.0000E+00  0.3120E+01
     12.349  0.0000E+00  0.3120E+01
     12.426  0.0000E+00  0.3120E+01
