       N       E                     dE             d eps       ncg     rms          rms(c)
DAV:   1     0.863203580664E+03    0.86320E+03   -0.96389E+04  3120   0.115E+03
DAV:   2    -0.237951891235E+03   -0.11012E+04   -0.10548E+04  3892   0.231E+02
DAV:   3    -0.350428083152E+03   -0.11248E+03   -0.10837E+03  3968   0.702E+01
DAV:   4    -0.354847484204E+03   -0.44194E+01   -0.42934E+01  4048   0.133E+01
DAV:   5    -0.354979339130E+03   -0.13185E+00   -0.13051E+00  3936   0.207E+00    0.334E+01
RMM:   6    -0.330681920659E+03    0.24297E+02   -0.16873E+02  3143   0.207E+01    0.155E+01
RMM:   7    -0.329224668365E+03    0.14573E+01   -0.46224E+00  3275   0.351E+00    0.883E+00
RMM:   8    -0.329115752308E+03    0.10892E+00   -0.39944E+00  3120   0.390E+00    0.264E+00
RMM:   9    -0.328861465409E+03    0.25429E+00   -0.55547E-01  3149   0.124E+00    0.664E-01
RMM:  10    -0.328868231985E+03   -0.67666E-02   -0.15017E-01  3388   0.538E-01    0.354E-01
RMM:  11    -0.328865699452E+03    0.25325E-02   -0.13837E-02  3146   0.218E-01    0.769E-02
RMM:  12    -0.328865776280E+03   -0.76828E-04   -0.17318E-03  3198   0.532E-02    0.521E-02
RMM:  13    -0.328865711054E+03    0.65226E-04   -0.24651E-04  2006   0.253E-02
   1 F= -.32886571E+03 E0= -.32886441E+03  d E =-.328866E+03
       N       E                     dE             d eps       ncg     rms          rms(c)
DAV:   1    -0.328891630896E+03   -0.25855E-01   -0.79208E-01  3648   0.224E+00    0.362E-01
RMM:   2    -0.328901573629E+03   -0.99427E-02   -0.13784E-01  3223   0.776E-01    0.418E-01
RMM:   3    -0.328899946993E+03    0.16266E-02   -0.76640E-03  3405   0.133E-01    0.334E-01
RMM:   4    -0.328899409023E+03    0.53797E-03   -0.73531E-03  3133   0.145E-01    0.127E-01
RMM:   5    -0.328899142081E+03    0.26694E-03   -0.11253E-03  2799   0.479E-02    0.379E-02
RMM:   6    -0.328899146592E+03   -0.45106E-05   -0.29540E-04  2159   0.228E-02
   2 F= -.32889915E+03 E0= -.32889730E+03  d E =-.334355E-01
       N       E                     dE             d eps       ncg     rms          rms(c)
DAV:   1    -0.328899962513E+03   -0.82043E-03   -0.18675E-02  3440   0.351E-01    0.546E-02
RMM:   2    -0.328900211637E+03   -0.24912E-03   -0.40197E-03  3188   0.127E-01    0.686E-02
RMM:   3    -0.328900146374E+03    0.65262E-04   -0.13824E-04  1825   0.227E-02
   3 F= -.32890015E+03 E0= -.32889837E+03  d E =-.344353E-01
