 vasp.5.4.4.18Apr17-6-g9f103f2a35 (build Nov 01 2019 12:17:22) complex          
  
 executed on             LinuxIFC date 2023.05.19  18:21:57
 running on   16 total cores
 distrk:  each k-point on   16 cores,    1 groups
 distr:  one band on NCORES_PER_BAND=   4 cores,    4 groups


--------------------------------------------------------------------------------------------------------


 INCAR:
 POTCAR:    PAW_PBE N 08Apr2002                   
 POTCAR:    PAW_PBE Si 05Jan2001                  
 POTCAR:    PAW_PBE N 08Apr2002                   
   VRHFIN =N: s2p3                                                              
   LEXCH  = PE                                                                  
   EATOM  =   264.5486 eV,   19.4438 Ry                                         
                                                                                
   TITEL  = PAW_PBE N 08Apr2002                                                 
   LULTRA =        F    use ultrasoft PP ?                                      
   IUNSCR =        1    unscreen: 0-lin 1-nonlin 2-no                           
   RPACOR =    1.200    partial core radius                                     
   POMASS =   14.001; ZVAL   =    5.000    mass and valenz                      
   RCORE  =    1.500    outmost cutoff radius                                   
   RWIGS  =    1.400; RWIGS  =    0.741    wigner-seitz radius (au A)           
   ENMAX  =  400.000; ENMIN  =  300.000 eV                                      
   ICORE  =        2    local potential                                         
   LCOR   =        T    correct aug charges                                     
   LPAW   =        T    paw PP                                                  
   EAUG   =  627.112                                                            
   DEXC   =    0.000                                                            
   RMAX   =    1.529    core radius for proj-oper                               
   RAUG   =    1.300    factor for augmentation sphere                          
   RDEP   =    1.514    radius for radial grids                                 
   RDEPT  =    1.338    core radius for aug-charge                              
                                                                                
   Atomic configuration                                                         
    4 entries                                                                   
     n  l   j            E        occ.                                          
     1  0  0.50      -384.7179   2.0000                                         
     2  0  0.50       -18.5828   2.0000                                         
     2  1  0.50        -7.0898   3.0000                                         
     3  2  1.50        -6.8029   0.0000                                         
   Description                                                                  
     l       E           TYP  RCUT    TYP  RCUT                                 
     0    -18.5828119     23  1.200                                             
     0    -13.5018863     23  1.200                                             
     1     -7.0897853     23  1.500                                             
     1      9.5240782     23  1.500                                             
     2     -6.8029130      7  1.500                                             
  local pseudopotential read in
  partial core-charges read in
  partial kinetic energy density read in
  atomic valenz-charges read in
  non local Contribution for L=           0  read in
    real space projection operators read in
  non local Contribution for L=           0  read in
    real space projection operators read in
  non local Contribution for L=           1  read in
    real space projection operators read in
  non local Contribution for L=           1  read in
    real space projection operators read in
    PAW grid and wavefunctions read in
 
   number of l-projection  operators is LMAX  =           4
   number of lm-projection operators is LMMAX =           8
 
 POTCAR:    PAW_PBE Si 05Jan2001                  
   VRHFIN =Si: s2p2                                                             
   LEXCH  = PE                                                                  
   EATOM  =   103.0669 eV,    7.5752 Ry                                         
                                                                                
   TITEL  = PAW_PBE Si 05Jan2001                                                
   LULTRA =        F    use ultrasoft PP ?                                      
   IUNSCR =        1    unscreen: 0-lin 1-nonlin 2-no                           
   RPACOR =    1.500    partial core radius                                     
   POMASS =   28.085; ZVAL   =    4.000    mass and valenz                      
   RCORE  =    1.900    outmost cutoff radius                                   
   RWIGS  =    2.480; RWIGS  =    1.312    wigner-seitz radius (au A)           
   ENMAX  =  245.345; ENMIN  =  184.009 eV                                      
   ICORE  =        2    local potential                                         
   LCOR   =        T    correct aug charges                                     
   LPAW   =        T    paw PP                                                  
   EAUG   =  322.069                                                            
   DEXC   =    0.000                                                            
   RMAX   =    1.950    core radius for proj-oper                               
   RAUG   =    1.300    factor for augmentation sphere                          
   RDEP   =    1.993    radius for radial grids                                 
   RDEPT  =    1.837    core radius for aug-charge                              
                                                                                
   Atomic configuration                                                         
    6 entries                                                                   
     n  l   j            E        occ.                                          
     1  0  0.50     -1785.8828   2.0000                                         
     2  0  0.50      -139.4969   2.0000                                         
     2  1  1.50       -95.5546   6.0000                                         
     3  0  0.50       -10.8127   2.0000                                         
     3  1  0.50        -4.0811   2.0000                                         
     3  2  1.50        -4.0817   0.0000                                         
   Description                                                                  
     l       E           TYP  RCUT    TYP  RCUT                                 
     0    -10.8127223     23  1.900                                             
     0     -7.6451159     23  1.900                                             
     1     -4.0811372     23  1.900                                             
     1      2.4879257     23  1.900                                             
     2     -4.0817478      7  1.900                                             
  local pseudopotential read in
  partial core-charges read in
  partial kinetic energy density read in
  atomic valenz-charges read in
  non local Contribution for L=           0  read in
    real space projection operators read in
  non local Contribution for L=           0  read in
    real space projection operators read in
  non local Contribution for L=           1  read in
    real space projection operators read in
  non local Contribution for L=           1  read in
    real space projection operators read in
    PAW grid and wavefunctions read in
 
   number of l-projection  operators is LMAX  =           4
   number of lm-projection operators is LMMAX =           8
 
 Optimization of the real space projectors (new method)

 maximal supplied QI-value         = 25.13
 optimisation between [QCUT,QGAM] = [ 10.05, 20.36] = [ 28.30,116.06] Ry 
 Optimized for a Real-space Cutoff    1.70 Angstroem

   l    n(q)    QCUT    max X(q) W(low)/X(q) W(high)/X(q)  e(spline) 
   0     10    10.053    79.467    0.61E-04    0.98E-04    0.61E-06
   0     10    10.053    66.151    0.60E-04    0.98E-04    0.61E-06
   1     10    10.053     8.350    0.17E-03    0.71E-03    0.45E-05
   1     10    10.053     5.531    0.18E-03    0.77E-03    0.49E-05
 Optimization of the real space projectors (new method)

 maximal supplied QI-value         = 19.84
 optimisation between [QCUT,QGAM] = [ 10.12, 20.44] = [ 28.68,116.96] Ry 
 Optimized for a Real-space Cutoff    1.38 Angstroem

   l    n(q)    QCUT    max X(q) W(low)/X(q) W(high)/X(q)  e(spline) 
   0      8    10.119   159.560    0.58E-04    0.11E-03    0.54E-07
   0      8    10.119   115.863    0.56E-04    0.11E-03    0.54E-07
   1      8    10.119    88.339    0.22E-03    0.17E-03    0.19E-06
   1      8    10.119    48.592    0.22E-03    0.17E-03    0.18E-06
  PAW_PBE N 08Apr2002                   :
 energy of atom  1       EATOM= -264.5486
 kinetic energy error for atom=    0.0736 (will be added to EATOM!!)
  PAW_PBE Si 05Jan2001                  :
 energy of atom  2       EATOM= -103.0669
 kinetic energy error for atom=    0.0012 (will be added to EATOM!!)
 
 
 POSCAR: Si24 N32                                
  positions in direct lattice
  No initial velocities read in
 exchange correlation table for  LEXCH =        8
   RHO(1)=    0.500       N(1)  =     2000
   RHO(2)=  100.500       N(2)  =     4000
 


--------------------------------------------------------------------------------------------------------


 ion  position               nearest neighbor table
   1  0.875  0.875  0.125-  26 2.24  28 2.24  47 2.24  49 2.24  54 2.24  56 2.24
   2  0.375  0.125  0.375-  25 2.24  27 2.24  29 2.24  31 2.24  32 2.24  42 2.24
   3  0.625  0.875  0.375-  27 2.24  31 2.24  44 2.24  49 2.24  53 2.24  54 2.24
   4  0.125  0.125  0.125-  26 2.24  28 2.24  29 2.24  30 2.24  32 2.24  43 2.24
   5  0.250  0.750  0.250-  28 1.91  50 1.91  51 1.91  31 1.91
   6  0.000  0.000  0.500-  38 1.91  48 1.91  29 1.91  49 1.91
   7  0.875  0.375  0.625-  34 2.24  36 2.24  41 2.24  46 2.24  48 2.24  55 2.24
   8  0.375  0.625  0.875-  33 2.24  35 2.24  37 2.24  39 2.24  40 2.24  50 2.24
   9  0.625  0.375  0.875-  35 2.24  39 2.24  41 2.24  45 2.24  46 2.24  52 2.24
  10  0.125  0.625  0.625-  34 2.24  36 2.24  37 2.24  38 2.24  40 2.24  51 2.24
  11  0.250  0.250  0.750-  36 1.91  42 1.91  43 1.91  39 1.91
  12  0.000  0.500  0.000-  30 1.91  56 1.91  37 1.91  41 1.91
  13  0.375  0.875  0.625-  31 2.24  33 2.24  38 2.24  40 2.24  42 2.24  44 2.24
  14  0.875  0.125  0.875-  26 2.24  41 2.24  43 2.24  45 2.24  47 2.24  48 2.24
  15  0.125  0.875  0.875-  28 2.24  33 2.24  37 2.24  38 2.24  43 2.24  47 2.24
  16  0.625  0.125  0.625-  27 2.24  42 2.24  44 2.24  45 2.24  46 2.24  48 2.24
  17  0.750  0.750  0.750-  34 1.91  44 1.91  35 1.91  47 1.91
  18  0.500  0.000  0.000-  32 1.91  54 1.91  45 1.91  33 1.91
  19  0.375  0.375  0.125-  25 2.24  30 2.24  32 2.24  39 2.24  50 2.24  52 2.24
  20  0.875  0.625  0.375-  34 2.24  49 2.24  51 2.24  53 2.24  55 2.24  56 2.24
  21  0.125  0.375  0.375-  25 2.24  29 2.24  30 2.24  36 2.24  51 2.24  55 2.24
  22  0.625  0.625  0.125-  35 2.24  50 2.24  52 2.24  53 2.24  54 2.24  56 2.24
  23  0.750  0.250  0.250-  26 1.91  52 1.91  27 1.91  55 1.91
  24  0.500  0.500  0.500-  40 1.91  46 1.91  53 1.91  25 1.91
  25  0.376  0.376  0.376-  24 1.91  19 2.24  21 2.24   2 2.24  40 3.12  46 3.12  53 3.12
  26  0.874  0.126  0.126-  23 1.91   4 2.24  14 2.24   1 2.24  27 3.12  52 3.12  55 3.12
  27  0.626  0.126  0.374-  23 1.91   3 2.24  16 2.24   2 2.24  26 3.12  52 3.12  55 3.12
  28  0.126  0.874  0.126-   5 1.91   4 2.24   1 2.24  15 2.24  31 3.12  50 3.12  51 3.12
  29  0.124  0.124  0.376-   6 1.91   4 2.24   2 2.24  21 2.24  38 3.12  48 3.12  49 3.12
  30  0.124  0.376  0.124-  12 1.91   4 2.24  19 2.24  21 2.24  37 3.12  41 3.12  56 3.12
  31  0.374  0.874  0.374-   5 1.91   3 2.24   2 2.24  13 2.24  28 3.12  50 3.12  51 3.12
  32  0.376  0.124  0.124-  18 1.91   4 2.24   2 2.24  19 2.24  33 3.12  45 3.12  54 3.12
  33  0.376  0.876  0.876-  18 1.91  13 2.24  15 2.24   8 2.24  32 3.12  54 3.12  45 3.12
  34  0.874  0.626  0.626-  17 1.91  10 2.24   7 2.24  20 2.24  35 3.12  44 3.12  47 3.12
  35  0.626  0.626  0.874-  17 1.91   9 2.24   8 2.24  22 2.24  34 3.12  44 3.12  47 3.12
  36  0.126  0.374  0.626-  11 1.91  10 2.24   7 2.24  21 2.24  39 3.12  42 3.12  43 3.12
  37  0.124  0.624  0.876-  12 1.91  10 2.24   8 2.24  15 2.24  30 3.12  56 3.12  41 3.12
  38  0.124  0.876  0.624-   6 1.91  10 2.24  13 2.24  15 2.24  29 3.12  48 3.12  49 3.12
  39  0.374  0.374  0.874-  11 1.91   9 2.24   8 2.24  19 2.24  36 3.12  42 3.12  43 3.12
  40  0.376  0.624  0.624-  24 1.91  10 2.24  13 2.24   8 2.24  25 3.12  46 3.12  53 3.12
  41  0.876  0.376  0.876-  12 1.91   9 2.24   7 2.24  14 2.24  30 3.12  56 3.12  37 3.12
  42  0.374  0.126  0.626-  11 1.91   2 2.24  13 2.24  16 2.24  36 3.12  39 3.12  43 3.12
  43  0.126  0.126  0.874-  11 1.91   4 2.24  14 2.24  15 2.24  36 3.12  42 3.12  39 3.12
  44  0.626  0.874  0.626-  17 1.91  13 2.24  16 2.24   3 2.24  34 3.12  35 3.12  47 3.12
  45  0.624  0.124  0.876-  18 1.91  14 2.24  16 2.24   9 2.24  32 3.12  54 3.12  33 3.12
  46  0.624  0.376  0.624-  24 1.91   9 2.24  16 2.24   7 2.24  25 3.12  40 3.12  53 3.12
  47  0.874  0.874  0.874-  17 1.91  14 2.24  15 2.24   1 2.24  34 3.12  44 3.12  35 3.12
  48  0.876  0.124  0.624-   6 1.91   7 2.24  14 2.24  16 2.24  29 3.12  38 3.12  49 3.12
  49  0.876  0.876  0.376-   6 1.91   3 2.24   1 2.24  20 2.24  38 3.12  48 3.12  29 3.12
  50  0.374  0.626  0.126-   5 1.91   8 2.24  19 2.24  22 2.24  28 3.12  31 3.12  51 3.12
  51  0.126  0.626  0.374-   5 1.91  10 2.24  20 2.24  21 2.24  28 3.12  50 3.12  31 3.12
  52  0.626  0.374  0.126-  23 1.91  19 2.24  22 2.24   9 2.24  26 3.12  27 3.12  55 3.12
  53  0.624  0.624  0.376-  24 1.91  20 2.24  22 2.24   3 2.24  40 3.12  46 3.12  25 3.12
  54  0.624  0.876  0.124-  18 1.91   3 2.24   1 2.24  22 2.24  32 3.12  33 3.12  45 3.12
  55  0.874  0.374  0.374-  23 1.91  20 2.24  21 2.24   7 2.24  26 3.12  52 3.12  27 3.12
  56  0.876  0.624  0.124-  12 1.91   1 2.24  20 2.24  22 2.24  30 3.12  37 3.12  41 3.12
 
  LATTYP: Found a simple cubic cell.
 ALAT       =     8.9195943925
  
  Lattice vectors:
  
 A1 = (   8.9195943925,   0.0000000000,   0.0000000000)
 A2 = (   0.0000000000,   8.9195943925,   0.0000000000)
 A3 = (   0.0000000000,   0.0000000000,   8.9195943925)


Analysis of symmetry for initial positions (statically):
=====================================================================
 Subroutine PRICEL returns following result:
 
  LATTYP: Found a face centered cubic cell.
 ALAT       =     8.9195943925
  
  Lattice vectors:
  
 A1 = (   4.4597971962,   4.4597971962,   0.0000000000)
 A2 = (   4.4597971962,   0.0000000000,  -4.4597971962)
 A3 = (   0.0000000000,   4.4597971962,  -4.4597971962)
 
   4 primitive cells build up your supercell.
 

 Routine SETGRP: Setting up the symmetry group for a 
 simple cubic supercell.


 Subroutine GETGRP returns: Found 48 space group operations
 (whereof 24 operations were pure point group operations)
 out of a pool of 48 trial point group operations.


The static configuration has the point symmetry T_d .
 The point group associated with its full space group is O_h .


Analysis of symmetry for dynamics (positions and initial velocities):
=====================================================================
 Subroutine PRICEL returns following result:
 
  LATTYP: Found a face centered cubic cell.
 ALAT       =     8.9195943925
  
  Lattice vectors:
  
 A1 = (   4.4597971962,   4.4597971962,   0.0000000000)
 A2 = (   4.4597971962,   0.0000000000,  -4.4597971962)
 A3 = (   0.0000000000,   4.4597971962,  -4.4597971962)
 
   4 primitive cells build up your supercell.
 

 Routine SETGRP: Setting up the symmetry group for a 
 simple cubic supercell.


 Subroutine GETGRP returns: Found 48 space group operations
 (whereof 24 operations were pure point group operations)
 out of a pool of 48 trial point group operations.


The dynamic configuration has the point symmetry T_d .
 The point group associated with its full space group is O_h .


 Subroutine INISYM returns: Found 48 space group operations
 (whereof 24 operations are pure point group operations),
 and found     4 'primitive' translations

 
 
 KPOINTS: Automatic mesh                          

Automatic generation of k-mesh.
 generate k-points for:    5    5    5
Space group operators:
 irot       det(A)        alpha          n_x          n_y          n_z        tau_x        tau_y        tau_z
    1     1.000000     0.000000     1.000000     0.000000     0.000000     0.000000     0.000000    -0.000000
    2     1.000000   120.000000    -0.577350    -0.577350    -0.577350     0.000000     0.000000    -0.000000
    3     1.000000   120.000000     0.577350     0.577350     0.577350     0.000000     0.000000    -0.000000
    4    -1.000000    90.000000     0.000000     0.000000    -1.000000     0.000000     0.000000    -0.000000
    5    -1.000000   180.000000     0.000000    -0.707107    -0.707107     0.000000     0.000000    -0.000000
    6    -1.000000    90.000000     0.000000     1.000000     0.000000     0.000000     0.000000    -0.000000
    7     1.000000   180.000000    -0.000000    -0.000000     1.000000     0.000000     0.000000    -0.000000
    8     1.000000   120.000000    -0.577350     0.577350     0.577350     0.000000     0.000000    -0.000000
    9     1.000000   120.000000    -0.577350     0.577350    -0.577350     0.000000     0.000000    -0.000000
   10    -1.000000    90.000000    -0.000000    -0.000000     1.000000     0.000000     0.000000    -0.000000
   11    -1.000000    90.000000    -1.000000     0.000000    -0.000000     0.000000     0.000000    -0.000000
   12    -1.000000   180.000000    -0.707107     0.000000    -0.707107     0.000000     0.000000    -0.000000
   13     1.000000   120.000000     0.577350    -0.577350     0.577350     0.000000     0.000000    -0.000000
   14     1.000000   120.000000    -0.577350    -0.577350     0.577350     0.000000     0.000000    -0.000000
   15     1.000000   180.000000     1.000000     0.000000     0.000000     0.000000     0.000000    -0.000000
   16    -1.000000    90.000000    -0.000000    -1.000000     0.000000     0.000000     0.000000    -0.000000
   17    -1.000000   180.000000     0.707107     0.707107     0.000000     0.000000     0.000000    -0.000000
   18    -1.000000    90.000000     1.000000    -0.000000    -0.000000     0.000000     0.000000    -0.000000
   19     1.000000   120.000000     0.577350    -0.577350    -0.577350     0.000000     0.000000    -0.000000
   20     1.000000   180.000000    -0.000000     1.000000     0.000000     0.000000     0.000000    -0.000000
   21     1.000000   120.000000     0.577350     0.577350    -0.577350     0.000000     0.000000    -0.000000
   22    -1.000000   180.000000    -0.000000    -0.707107     0.707107     0.000000     0.000000    -0.000000
   23    -1.000000   180.000000     0.707107    -0.707107     0.000000     0.000000     0.000000    -0.000000
   24    -1.000000   180.000000     0.707107    -0.000000    -0.707107     0.000000     0.000000    -0.000000
   25    -1.000000     0.000000     1.000000     0.000000     0.000000     0.750000     0.750000    -0.750000
   26    -1.000000   120.000000    -0.577350    -0.577350    -0.577350     0.750000     0.750000    -0.750000
   27    -1.000000   120.000000     0.577350     0.577350     0.577350     0.750000     0.750000    -0.750000
   28     1.000000    90.000000     0.000000     0.000000    -1.000000     0.750000     0.750000    -0.750000
   29     1.000000   180.000000     0.000000    -0.707107    -0.707107     0.750000     0.750000    -0.750000
   30     1.000000    90.000000     0.000000     1.000000     0.000000     0.750000     0.750000    -0.750000
   31    -1.000000   180.000000    -0.000000    -0.000000     1.000000     0.750000     0.750000    -0.750000
   32    -1.000000   120.000000    -0.577350     0.577350     0.577350     0.750000     0.750000    -0.750000
   33    -1.000000   120.000000    -0.577350     0.577350    -0.577350     0.750000     0.750000    -0.750000
   34     1.000000    90.000000    -0.000000    -0.000000     1.000000     0.750000     0.750000    -0.750000
   35     1.000000    90.000000    -1.000000     0.000000    -0.000000     0.750000     0.750000    -0.750000
   36     1.000000   180.000000    -0.707107     0.000000    -0.707107     0.750000     0.750000    -0.750000
   37    -1.000000   120.000000     0.577350    -0.577350     0.577350     0.750000     0.750000    -0.750000
   38    -1.000000   120.000000    -0.577350    -0.577350     0.577350     0.750000     0.750000    -0.750000
   39    -1.000000   180.000000     1.000000     0.000000     0.000000     0.750000     0.750000    -0.750000
   40     1.000000    90.000000    -0.000000    -1.000000     0.000000     0.750000     0.750000    -0.750000
   41     1.000000   180.000000     0.707107     0.707107     0.000000     0.750000     0.750000    -0.750000
   42     1.000000    90.000000     1.000000    -0.000000    -0.000000     0.750000     0.750000    -0.750000
   43    -1.000000   120.000000     0.577350    -0.577350    -0.577350     0.750000     0.750000    -0.750000
   44    -1.000000   180.000000    -0.000000     1.000000     0.000000     0.750000     0.750000    -0.750000
   45    -1.000000   120.000000     0.577350     0.577350    -0.577350     0.750000     0.750000    -0.750000
   46     1.000000   180.000000    -0.000000    -0.707107     0.707107     0.750000     0.750000    -0.750000
   47     1.000000   180.000000     0.707107    -0.707107     0.000000     0.750000     0.750000    -0.750000
   48     1.000000   180.000000     0.707107    -0.000000    -0.707107     0.750000     0.750000    -0.750000
 
 Subroutine IBZKPT returns following result:
 ===========================================
 
 Found     10 irreducible k-points:
 
 Following reciprocal coordinates:
            Coordinates               Weight
  0.000000  0.000000  0.000000      1.000000
  0.200000  0.000000  0.000000      6.000000
  0.400000  0.000000  0.000000      6.000000
  0.200000  0.200000  0.000000     12.000000
  0.400000  0.200000  0.000000     24.000000
  0.400000  0.400000  0.000000     12.000000
  0.200000  0.200000  0.200000      8.000000
  0.400000  0.200000  0.200000     24.000000
  0.400000  0.400000  0.200000     24.000000
  0.400000  0.400000  0.400000      8.000000
 
 Following cartesian coordinates:
            Coordinates               Weight
  0.000000  0.000000  0.000000      1.000000
  0.022423  0.000000  0.000000      6.000000
  0.044845  0.000000  0.000000      6.000000
  0.022423  0.022423  0.000000     12.000000
  0.044845  0.022423  0.000000     24.000000
  0.044845  0.044845  0.000000     12.000000
  0.022423  0.022423  0.022423      8.000000
  0.044845  0.022423  0.022423     24.000000
  0.044845  0.044845  0.022423     24.000000
  0.044845  0.044845  0.044845      8.000000
 


--------------------------------------------------------------------------------------------------------




 Dimension of arrays:
   k-points           NKPTS =     10   k-points in BZ     NKDIM =     10   number of bands    NBANDS=    156
   number of dos      NEDOS =    301   number of ions     NIONS =     56
   non local maximal  LDIM  =      4   non local SUM 2l+1 LMDIM =      8
   total plane-waves  NPLWV = 216000
   max r-space proj   IRMAX =   6290   max aug-charges    IRDMAX=  10375
   dimension x,y,z NGX =    60 NGY =   60 NGZ =   60
   dimension x,y,z NGXF=   120 NGYF=  120 NGZF=  120
   support grid    NGXF=   120 NGYF=  120 NGZF=  120
   ions per type =              24  32
   NGX,Y,Z   is equivalent  to a cutoff of  11.18, 11.18, 11.18 a.u.
   NGXF,Y,Z  is equivalent  to a cutoff of  22.37, 22.37, 22.37 a.u.

 SYSTEM =  unknown system                          
 POSCAR =  Si24 N32                                

 Startparameter for this run:
   NWRITE =      2    write-flag & timer
   PREC   = accura    normal or accurate (medium, high low for compatibility)
   ISTART =      0    job   : 0-new  1-cont  2-samecut
   ICHARG =      2    charge: 1-file 2-atom 10-const
   ISPIN  =      1    spin polarized calculation?
   LNONCOLLINEAR =      F non collinear calculations
   LSORBIT =      F    spin-orbit coupling
   INIWAV =      1    electr: 0-lowe 1-rand  2-diag
   LASPH  =      F    aspherical Exc in radial PAW
   METAGGA=      F    non-selfconsistent MetaGGA calc.

 Electronic Relaxation 1
   ENCUT  =  400.0 eV  29.40 Ry    5.42 a.u.  14.55 14.55 14.55*2*pi/ulx,y,z
   ENINI  =  400.0     initial cutoff
   ENAUG  =  627.1 eV  augmentation charge cutoff
   NELM   =     60;   NELMIN=  2; NELMDL= -5     # of ELM steps 
   EDIFF  = 0.1E-03   stopping-criterion for ELM
   LREAL  =      T    real-space projection
   NLSPLINE    = F    spline interpolate recip. space projectors
   LCOMPAT=      F    compatible to vasp.4.4
   GGA_COMPAT  = T    GGA compatible to vasp.4.4-vasp.4.6
   LMAXPAW     = -100 max onsite density
   LMAXMIX     =    2 max onsite mixed and CHGCAR
   VOSKOWN=      0    Vosko Wilk Nusair interpolation
   ROPT   =   -0.00025  -0.00025
 Ionic relaxation
   EDIFFG = 0.1E-02   stopping-criterion for IOM
   NSW    =    100    number of steps for IOM
   NBLOCK =      1;   KBLOCK =    100    inner block; outer block 
   IBRION =      2    ionic relax: 0-MD 1-quasi-New 2-CG
   NFREE  =      1    steps in history (QN), initial steepest desc. (CG)
   ISIF   =      2    stress and relaxation
   IWAVPR =     11    prediction:  0-non 1-charg 2-wave 3-comb
   ISYM   =      2    0-nonsym 1-usesym 2-fastsym
   LCORR  =      T    Harris-Foulkes like correction to forces

   POTIM  = 0.5000    time-step for ionic-motion
   TEIN   =    0.0    initial temperature
   TEBEG  =    0.0;   TEEND  =   0.0 temperature during run
   SMASS  =  -3.00    Nose mass-parameter (am)
   estimated Nose-frequenzy (Omega)   =  0.10E-29 period in steps =****** mass=  -0.182E-26a.u.
   SCALEE = 1.0000    scale energy and forces
   NPACO  =    256;   APACO  = 16.0  distance and # of slots for P.C.
   PSTRESS=    0.0 pullay stress

  Mass of Ions in am
   POMASS =  14.00 28.09
  Ionic Valenz
   ZVAL   =   5.00  4.00
  Atomic Wigner-Seitz radii
   RWIGS  =  -1.00 -1.00
  virtual crystal weights 
   VCA    =   1.00  1.00
   NELECT =     248.0000    total number of electrons
   NUPDOWN=      -1.0000    fix difference up-down

 DOS related values:
   EMIN   =  10.00;   EMAX   =-10.00  energy-range for DOS
   EFERMI =   0.00
   ISMEAR =     2;   SIGMA  =   0.10  broadening in eV -4-tet -1-fermi 0-gaus

 Electronic relaxation 2 (details)
   IALGO  =     68    algorithm
   LDIAG  =      T    sub-space diagonalisation (order eigenvalues)
   LSUBROT=      F    optimize rotation matrix (better conditioning)
   TURBO    =      0    0=normal 1=particle mesh
   IRESTART =      0    0=no restart 2=restart with 2 vectors
   NREBOOT  =      0    no. of reboots
   NMIN     =      0    reboot dimension
   EREF     =   0.00    reference energy to select bands
   IMIX   =      4    mixing-type and parameters
     AMIX     =   0.40;   BMIX     =  1.00
     AMIX_MAG =   1.60;   BMIX_MAG =  1.00
     AMIN     =   0.10
     WC   =   100.;   INIMIX=   1;  MIXPRE=   1;  MAXMIX= -45

 Intra band minimization:
   WEIMIN = 0.0010     energy-eigenvalue tresh-hold
   EBREAK =  0.16E-06  absolut break condition
   DEPER  =   0.30     relativ break condition  

   TIME   =   0.40     timestep for ELM

  volume/ion in A,a.u.               =      12.67        85.52
  Fermi-wavevector in a.u.,A,eV,Ry     =   1.153135  2.179110 18.091954  1.329721
  Thomas-Fermi vector in A             =   2.289781
 
 Write flags
   LWAVE        =      F    write WAVECAR
   LDOWNSAMPLE  =      F    k-point downsampling of WAVECAR
   LCHARG       =      F    write CHGCAR
   LVTOT        =      F    write LOCPOT, total local potential
   LVHAR        =      F    write LOCPOT, Hartree potential only
   LELF         =      F    write electronic localiz. function (ELF)
   LORBIT       =      0    0 simple, 1 ext, 2 COOP (PROOUT), +10 PAW based schemes


 Dipole corrections
   LMONO  =      F    monopole corrections only (constant potential shift)
   LDIPOL =      F    correct potential (dipole corrections)
   IDIPOL =      0    1-x, 2-y, 3-z, 4-all directions 
   EPSILON=  1.0000000 bulk dielectric constant

 Exchange correlation treatment:
   GGA     =    --    GGA type
   LEXCH   =     8    internal setting for exchange type
   VOSKOWN=      0    Vosko Wilk Nusair interpolation
   LHFCALC =     F    Hartree Fock is set to
   LHFONE  =     F    Hartree Fock one center treatment
   AEXX    =    0.0000 exact exchange contribution

 Linear response parameters
   LEPSILON=     F    determine dielectric tensor
   LRPA    =     F    only Hartree local field effects (RPA)
   LNABLA  =     F    use nabla operator in PAW spheres
   LVEL    =     F    velocity operator in full k-point grid
   LINTERFAST=   F  fast interpolation
   KINTER  =     0    interpolate to denser k-point grid
   CSHIFT  =0.1000    complex shift for real part using Kramers Kronig
   OMEGAMAX=  -1.0    maximum frequency
   DEG_THRESHOLD= 0.2000000E-02 threshold for treating states as degnerate
   RTIME   =   -0.100 relaxation time in fs
  (WPLASMAI=    0.000 imaginary part of plasma frequency in eV, 0.658/RTIME)
   DFIELD  = 0.0000000 0.0000000 0.0000000 field for delta impulse in time
 
 Orbital magnetization related:
   ORBITALMAG=     F  switch on orbital magnetization
   LCHIMAG   =     F  perturbation theory with respect to B field
   DQ        =  0.001000  dq finite difference perturbation B field
   LLRAUG    =     F  two centre corrections for induced B field



--------------------------------------------------------------------------------------------------------


 conjugate gradient relaxation of ions
 charge density and potential will be updated during run
 non-spin polarized calculation
 RMM-DIIS sequential band-by-band and
  variant of blocked Davidson during initial phase
 perform sub-space diagonalisation
    before iterative eigenvector-optimisation
 modified Broyden-mixing scheme, WC =      100.0
 initial mixing is a Kerker type mixing with AMIX =  0.4000 and BMIX =      1.0000
 Hartree-type preconditioning will be used
 using additional bands           32
 real space projection scheme for non local part
 use partial core corrections
 calculate Harris-corrections to forces 
   (improved forces if not selfconsistent)
 use gradient corrections 
 use of overlap-Matrix (Vanderbilt PP)
 Methfessel and Paxton  Order N= 2 SIGMA  =   0.10


--------------------------------------------------------------------------------------------------------


  energy-cutoff  :      400.00
  volume of cell :      709.64
      direct lattice vectors                 reciprocal lattice vectors
     8.919594392  0.000000000  0.000000000     0.112112721 -0.000000000  0.000000000
     0.000000000  8.919594392  0.000000000    -0.000000000  0.112112721  0.000000000
     0.000000000  0.000000000  8.919594392    -0.000000000 -0.000000000  0.112112721

  length of vectors
     8.919594392  8.919594392  8.919594392     0.112112721  0.112112721  0.112112721


 
 k-points in units of 2pi/SCALE and weight: Automatic mesh                          
   0.00000000  0.00000000  0.00000000       0.008
   0.02242254  0.00000000  0.00000000       0.048
   0.04484509  0.00000000  0.00000000       0.048
   0.02242254  0.02242254  0.00000000       0.096
   0.04484509  0.02242254  0.00000000       0.192
   0.04484509  0.04484509  0.00000000       0.096
   0.02242254  0.02242254  0.02242254       0.064
   0.04484509  0.02242254  0.02242254       0.192
   0.04484509  0.04484509  0.02242254       0.192
   0.04484509  0.04484509  0.04484509       0.064
 
 k-points in reciprocal lattice and weights: Automatic mesh                          
   0.00000000  0.00000000  0.00000000       0.008
   0.20000000  0.00000000  0.00000000       0.048
   0.40000000  0.00000000  0.00000000       0.048
   0.20000000  0.20000000  0.00000000       0.096
   0.40000000  0.20000000  0.00000000       0.192
   0.40000000  0.40000000  0.00000000       0.096
   0.20000000  0.20000000  0.20000000       0.064
   0.40000000  0.20000000  0.20000000       0.192
   0.40000000  0.40000000  0.20000000       0.192
   0.40000000  0.40000000  0.40000000       0.064
 
 position of ions in fractional coordinates (direct lattice) 
   0.87500000  0.87500000  0.12500000
   0.37500000  0.12500000  0.37500000
   0.62500000  0.87500000  0.37500000
   0.12500000  0.12500000  0.12500000
   0.25000000  0.75000000  0.25000000
   0.00000000  0.00000000  0.50000000
   0.87500000  0.37500000  0.62500000
   0.37500000  0.62500000  0.87500000
   0.62500000  0.37500000  0.87500000
   0.12500000  0.62500000  0.62500000
   0.25000000  0.25000000  0.75000000
   0.00000000  0.50000000  0.00000000
   0.37500000  0.87500000  0.62500000
   0.87500000  0.12500000  0.87500000
   0.12500000  0.87500000  0.87500000
   0.62500000  0.12500000  0.62500000
   0.75000000  0.75000000  0.75000000
   0.50000000  0.00000000  0.00000000
   0.37500000  0.37500000  0.12500000
   0.87500000  0.62500000  0.37500000
   0.12500000  0.37500000  0.37500000
   0.62500000  0.62500000  0.12500000
   0.75000000  0.25000000  0.25000000
   0.50000000  0.50000000  0.50000000
   0.37630293  0.37630293  0.37630293
   0.87369707  0.12630293  0.12630293
   0.62630293  0.12630293  0.37369707
   0.12630293  0.87369707  0.12630293
   0.12369707  0.12369707  0.37630293
   0.12369707  0.37630293  0.12369707
   0.37369707  0.87369707  0.37369707
   0.37630293  0.12369707  0.12369707
   0.37630293  0.87630293  0.87630293
   0.87369707  0.62630293  0.62630293
   0.62630293  0.62630293  0.87369707
   0.12630293  0.37369707  0.62630293
   0.12369707  0.62369707  0.87630293
   0.12369707  0.87630293  0.62369707
   0.37369707  0.37369707  0.87369707
   0.37630293  0.62369707  0.62369707
   0.87630293  0.37630293  0.87630293
   0.37369707  0.12630293  0.62630293
   0.12630293  0.12630293  0.87369707
   0.62630293  0.87369707  0.62630293
   0.62369707  0.12369707  0.87630293
   0.62369707  0.37630293  0.62369707
   0.87369707  0.87369707  0.87369707
   0.87630293  0.12369707  0.62369707
   0.87630293  0.87630293  0.37630293
   0.37369707  0.62630293  0.12630293
   0.12630293  0.62630293  0.37369707
   0.62630293  0.37369707  0.12630293
   0.62369707  0.62369707  0.37630293
   0.62369707  0.87630293  0.12369707
   0.87369707  0.37369707  0.37369707
   0.87630293  0.62369707  0.12369707
 
 position of ions in cartesian coordinates  (Angst):
   7.80464509  7.80464509  1.11494930
   3.34484790  1.11494930  3.34484790
   5.57474650  7.80464509  3.34484790
   1.11494930  1.11494930  1.11494930
   2.22989860  6.68969579  2.22989860
   0.00000000  0.00000000  4.45979720
   7.80464509  3.34484790  5.57474650
   3.34484790  5.57474650  7.80464509
   5.57474650  3.34484790  7.80464509
   1.11494930  5.57474650  5.57474650
   2.22989860  2.22989860  6.68969579
   0.00000000  4.45979720  0.00000000
   3.34484790  7.80464509  5.57474650
   7.80464509  1.11494930  7.80464509
   1.11494930  7.80464509  7.80464509
   5.57474650  1.11494930  5.57474650
   6.68969579  6.68969579  6.68969579
   4.45979720  0.00000000  0.00000000
   3.34484790  3.34484790  1.11494930
   7.80464509  5.57474650  3.34484790
   1.11494930  3.34484790  3.34484790
   5.57474650  5.57474650  1.11494930
   6.68969579  2.22989860  2.22989860
   4.45979720  4.45979720  4.45979720
   3.35646954  3.35646954  3.35646954
   7.79302345  1.12657094  1.12657094
   5.58636813  1.12657094  3.33322626
   1.12657094  7.79302345  1.12657094
   1.10332766  1.10332766  3.35646954
   1.10332766  3.35646954  1.10332766
   3.33322626  7.79302345  3.33322626
   3.35646954  1.10332766  1.10332766
   3.35646954  7.81626673  7.81626673
   7.79302345  5.58636813  5.58636813
   5.58636813  5.58636813  7.79302345
   1.12657094  3.33322626  5.58636813
   1.10332766  5.56312486  7.81626673
   1.10332766  7.81626673  5.56312486
   3.33322626  3.33322626  7.79302345
   3.35646954  5.56312486  5.56312486
   7.81626673  3.35646954  7.81626673
   3.33322626  1.12657094  5.58636813
   1.12657094  1.12657094  7.79302345
   5.58636813  7.79302345  5.58636813
   5.56312486  1.10332766  7.81626673
   5.56312486  3.35646954  5.56312486
   7.79302345  7.79302345  7.79302345
   7.81626673  1.10332766  5.56312486
   7.81626673  7.81626673  3.35646954
   3.33322626  5.58636813  1.12657094
   1.12657094  5.58636813  3.33322626
   5.58636813  3.33322626  1.12657094
   5.56312486  5.56312486  3.35646954
   5.56312486  7.81626673  1.10332766
   7.79302345  3.33322626  3.33322626
   7.81626673  5.56312486  1.10332766
 


--------------------------------------------------------------------------------------------------------


 k-point  1 :   0.0000 0.0000 0.0000  plane waves:   12965
 k-point  2 :   0.2000 0.0000 0.0000  plane waves:   12897
 k-point  3 :   0.4000 0.0000 0.0000  plane waves:   12889
 k-point  4 :   0.2000 0.2000 0.0000  plane waves:   12905
 k-point  5 :   0.4000 0.2000 0.0000  plane waves:   12890
 k-point  6 :   0.4000 0.4000 0.0000  plane waves:   12884
 k-point  7 :   0.2000 0.2000 0.2000  plane waves:   12929
 k-point  8 :   0.4000 0.2000 0.2000  plane waves:   12873
 k-point  9 :   0.4000 0.4000 0.2000  plane waves:   12879
 k-point 10 :   0.4000 0.4000 0.4000  plane waves:   12889

 maximum and minimum number of plane-waves per node :      3257     3192

 maximum number of plane-waves:     12965
 maximum index in each direction: 
   IXMAX=   14   IYMAX=   14   IZMAX=   14
   IXMIN=  -14   IYMIN=  -14   IZMIN=  -14


 real space projection operators:
  total allocation   :      15511.50 KBytes
  max/ min on nodes  :       3877.88       3877.88


 parallel 3D FFT for wavefunctions:
    minimum data exchange during FFTs selected (reduces bandwidth)
 parallel 3D FFT for charge:
    minimum data exchange during FFTs selected (reduces bandwidth)


 total amount of memory used by VASP MPI-rank0    75803. kBytes
=======================================================================

   base      :      30000. kBytes
   nonlr-proj:      10709. kBytes
   fftplans  :       5458. kBytes
   grid      :       8702. kBytes
   one-center:         43. kBytes
   wavefun   :      20891. kBytes
 
     INWAV:  cpu time    0.0000: real time    0.0000
 Broyden mixing: mesh for mixing (old mesh)
   NGX = 29   NGY = 29   NGZ = 29
  (NGX  =120   NGY  =120   NGZ  =120)
  gives a total of  24389 points

 initial charge density was supplied:
 charge density of overlapping atoms calculated
 number of electron     248.0000000 magnetization 
 keeping initial charge density in first step


--------------------------------------------------------------------------------------------------------


 Maximum index for non-local projection operator         1534
 Maximum index for augmentation-charges          708 (set IRDMAX)


--------------------------------------------------------------------------------------------------------


 First call to EWALD:  gamma=   0.199
 Maximum number of real-space cells 3x 3x 3
 Maximum number of reciprocal cells 3x 3x 3

    FEWALD:  cpu time    0.0170: real time    0.0170


--------------------------------------- Iteration      1(   1)  ---------------------------------------


    POTLOK:  cpu time    0.5609: real time    0.8213
    SETDIJ:  cpu time    0.0907: real time    0.1036
     EDDAV:  cpu time   41.4049: real time   44.5895
       DOS:  cpu time    0.0018: real time    0.0018
    --------------------------------------------
      LOOP:  cpu time   42.0583: real time   45.5161

 eigenvalue-minimisations  :  3120
 total energy-change (2. order) : 0.8632036E+03  (-0.9638891E+04)
 number of electron     248.0000000 magnetization 
 augmentation part      248.0000000 magnetization 

 Free energy of the ion-electron system (eV)
  ---------------------------------------------------
  alpha Z        PSCENC =       274.85726572
  Ewald energy   TEWEN  =     -9325.61592287
  -Hartree energ DENC   =     -1606.55511877
  -exchange      EXHF   =         0.00000000
  -V(xc)+E(xc)   XCENC  =       178.40117093
  PAW double counting   =      7738.34714636    -7203.94574617
  entropy T*S    EENTRO =         0.00227058
  eigenvalues    EBANDS =      1162.20857764
  atomic energy  EATOM  =      9645.50393724
  Solvation  Ediel_sol  =         0.00000000
  ---------------------------------------------------
  free energy    TOTEN  =       863.20358066 eV

  energy without entropy =      863.20131009  energy(sigma->0) =      863.20301302


--------------------------------------------------------------------------------------------------------




--------------------------------------- Iteration      1(   2)  ---------------------------------------


     EDDAV:  cpu time    9.9574: real time    9.9809
       DOS:  cpu time    0.0018: real time    0.0018
    --------------------------------------------
      LOOP:  cpu time    9.9592: real time    9.9827

 eigenvalue-minimisations  :  3892
 total energy-change (2. order) :-0.1101155E+04  (-0.1054753E+04)
 number of electron     248.0000000 magnetization 
 augmentation part      248.0000000 magnetization 

 Free energy of the ion-electron system (eV)
  ---------------------------------------------------
  alpha Z        PSCENC =       274.85726572
  Ewald energy   TEWEN  =     -9325.61592287
  -Hartree energ DENC   =     -1606.55511877
  -exchange      EXHF   =         0.00000000
  -V(xc)+E(xc)   XCENC  =       178.40117093
  PAW double counting   =      7738.34714636    -7203.94574617
  entropy T*S    EENTRO =        -0.00787130
  eigenvalues    EBANDS =        61.06324761
  atomic energy  EATOM  =      9645.50393724
  Solvation  Ediel_sol  =         0.00000000
  ---------------------------------------------------
  free energy    TOTEN  =      -237.95189123 eV

  energy without entropy =     -237.94401994  energy(sigma->0) =     -237.94992341


--------------------------------------------------------------------------------------------------------




--------------------------------------- Iteration      1(   3)  ---------------------------------------


     EDDAV:  cpu time   10.0336: real time   10.0506
       DOS:  cpu time    0.0018: real time    0.0018
    --------------------------------------------
      LOOP:  cpu time   10.0354: real time   10.0524

 eigenvalue-minimisations  :  3968
 total energy-change (2. order) :-0.1124762E+03  (-0.1083692E+03)
 number of electron     248.0000000 magnetization 
 augmentation part      248.0000000 magnetization 

 Free energy of the ion-electron system (eV)
  ---------------------------------------------------
  alpha Z        PSCENC =       274.85726572
  Ewald energy   TEWEN  =     -9325.61592287
  -Hartree energ DENC   =     -1606.55511877
  -exchange      EXHF   =         0.00000000
  -V(xc)+E(xc)   XCENC  =       178.40117093
  PAW double counting   =      7738.34714636    -7203.94574617
  entropy T*S    EENTRO =         0.00324727
  eigenvalues    EBANDS =       -51.42406287
  atomic energy  EATOM  =      9645.50393724
  Solvation  Ediel_sol  =         0.00000000
  ---------------------------------------------------
  free energy    TOTEN  =      -350.42808315 eV

  energy without entropy =     -350.43133042  energy(sigma->0) =     -350.42889497


--------------------------------------------------------------------------------------------------------




--------------------------------------- Iteration      1(   4)  ---------------------------------------


     EDDAV:  cpu time   10.2283: real time   10.2522
       DOS:  cpu time    0.0019: real time    0.0019
    --------------------------------------------
      LOOP:  cpu time   10.2303: real time   10.2541

 eigenvalue-minimisations  :  4048
 total energy-change (2. order) :-0.4419401E+01  (-0.4293445E+01)
 number of electron     248.0000000 magnetization 
 augmentation part      248.0000000 magnetization 

 Free energy of the ion-electron system (eV)
  ---------------------------------------------------
  alpha Z        PSCENC =       274.85726572
  Ewald energy   TEWEN  =     -9325.61592287
  -Hartree energ DENC   =     -1606.55511877
  -exchange      EXHF   =         0.00000000
  -V(xc)+E(xc)   XCENC  =       178.40117093
  PAW double counting   =      7738.34714636    -7203.94574617
  entropy T*S    EENTRO =        -0.00506039
  eigenvalues    EBANDS =       -55.83515627
  atomic energy  EATOM  =      9645.50393724
  Solvation  Ediel_sol  =         0.00000000
  ---------------------------------------------------
  free energy    TOTEN  =      -354.84748420 eV

  energy without entropy =     -354.84242382  energy(sigma->0) =     -354.84621911


--------------------------------------------------------------------------------------------------------




--------------------------------------- Iteration      1(   5)  ---------------------------------------


     EDDAV:  cpu time   10.0037: real time   10.0425
       DOS:  cpu time    0.0019: real time    0.0019
    CHARGE:  cpu time    0.3774: real time    0.3777
    MIXING:  cpu time    0.0156: real time    0.0156
    --------------------------------------------
      LOOP:  cpu time   10.3986: real time   10.4377

 eigenvalue-minimisations  :  3936
 total energy-change (2. order) :-0.1318549E+00  (-0.1305084E+00)
 number of electron     247.9999959 magnetization 
 augmentation part       -1.5159871 magnetization 

 Broyden mixing:
  rms(total) = 0.33433E+01    rms(broyden)= 0.33427E+01
  rms(prec ) = 0.47536E+01
  weight for this iteration     100.00

 Free energy of the ion-electron system (eV)
  ---------------------------------------------------
  alpha Z        PSCENC =       274.85726572
  Ewald energy   TEWEN  =     -9325.61592287
  -Hartree energ DENC   =     -1606.55511877
  -exchange      EXHF   =         0.00000000
  -V(xc)+E(xc)   XCENC  =       178.40117093
  PAW double counting   =      7738.34714636    -7203.94574617
  entropy T*S    EENTRO =        -0.00577990
  eigenvalues    EBANDS =       -55.96629168
  atomic energy  EATOM  =      9645.50393724
  Solvation  Ediel_sol  =         0.00000000
  ---------------------------------------------------
  free energy    TOTEN  =      -354.97933913 eV

  energy without entropy =     -354.97355923  energy(sigma->0) =     -354.97789416


--------------------------------------------------------------------------------------------------------




--------------------------------------- Iteration      1(   6)  ---------------------------------------


    POTLOK:  cpu time    0.0867: real time    0.1025
    SETDIJ:  cpu time    0.0083: real time    0.0084
    EDDIAG:  cpu time    1.0282: real time    1.0292
  RMM-DIIS:  cpu time    5.2654: real time    5.2722
    ORTHCH:  cpu time    0.1258: real time    0.1259
       DOS:  cpu time    0.0018: real time    0.0018
    CHARGE:  cpu time    0.3759: real time    0.3763
    MIXING:  cpu time    0.0024: real time    0.0024
    --------------------------------------------
      LOOP:  cpu time    6.8944: real time    6.9187

 eigenvalue-minimisations  :  3143
 total energy-change (2. order) : 0.2429742E+02  (-0.1687275E+02)
 number of electron     247.9999966 magnetization 
 augmentation part       -4.4909451 magnetization 

 Broyden mixing:
  rms(total) = 0.15523E+01    rms(broyden)= 0.15509E+01
  rms(prec ) = 0.17196E+01
  weight for this iteration     100.00

 eigenvalues of (default mixing * dielectric matrix)
  average eigenvalue GAMMA=   0.8443
  0.8443

 Free energy of the ion-electron system (eV)
  ---------------------------------------------------
  alpha Z        PSCENC =       274.85726572
  Ewald energy   TEWEN  =     -9325.61592287
  -Hartree energ DENC   =     -1884.11347279
  -exchange      EXHF   =         0.00000000
  -V(xc)+E(xc)   XCENC  =       196.03578049
  PAW double counting   =     11625.94912969   -11092.56708318
  entropy T*S    EENTRO =         0.00258164
  eigenvalues    EBANDS =       229.26586341
  atomic energy  EATOM  =      9645.50393724
  Solvation  Ediel_sol  =         0.00000000
  ---------------------------------------------------
  free energy    TOTEN  =      -330.68192066 eV

  energy without entropy =     -330.68450229  energy(sigma->0) =     -330.68256607


--------------------------------------------------------------------------------------------------------




--------------------------------------- Iteration      1(   7)  ---------------------------------------


    POTLOK:  cpu time    0.0863: real time    0.1021
    SETDIJ:  cpu time    0.0076: real time    0.0076
    EDDIAG:  cpu time    1.0189: real time    1.0210
  RMM-DIIS:  cpu time    5.4653: real time    5.4792
    ORTHCH:  cpu time    0.1239: real time    0.1250
       DOS:  cpu time    0.0019: real time    0.0019
    CHARGE:  cpu time    0.3823: real time    0.3826
    MIXING:  cpu time    0.0024: real time    0.0024
    --------------------------------------------
      LOOP:  cpu time    7.0886: real time    7.1219

 eigenvalue-minimisations  :  3275
 total energy-change (2. order) : 0.1457252E+01  (-0.4622430E+00)
 number of electron     247.9999966 magnetization 
 augmentation part       -4.4344216 magnetization 

 Broyden mixing:
  rms(total) = 0.88288E+00    rms(broyden)= 0.88283E+00
  rms(prec ) = 0.97322E+00
  weight for this iteration     100.00

 eigenvalues of (default mixing * dielectric matrix)
  average eigenvalue GAMMA=   1.4670
  0.9900  1.9440

 Free energy of the ion-electron system (eV)
  ---------------------------------------------------
  alpha Z        PSCENC =       274.85726572
  Ewald energy   TEWEN  =     -9325.61592287
  -Hartree energ DENC   =     -1845.59989797
  -exchange      EXHF   =         0.00000000
  -V(xc)+E(xc)   XCENC  =       193.64799804
  PAW double counting   =     13897.74657041   -13364.10947870
  entropy T*S    EENTRO =        -0.00200339
  eigenvalues    EBANDS =       194.34686316
  atomic energy  EATOM  =      9645.50393724
  Solvation  Ediel_sol  =         0.00000000
  ---------------------------------------------------
  free energy    TOTEN  =      -329.22466837 eV

  energy without entropy =     -329.22266498  energy(sigma->0) =     -329.22416752


--------------------------------------------------------------------------------------------------------




--------------------------------------- Iteration      1(   8)  ---------------------------------------


    POTLOK:  cpu time    0.0936: real time    0.1959
    SETDIJ:  cpu time    0.0061: real time    0.0101
    EDDIAG:  cpu time    1.5294: real time    1.5379
  RMM-DIIS:  cpu time    5.2798: real time    5.2855
    ORTHCH:  cpu time    0.1252: real time    0.1253
       DOS:  cpu time    0.0019: real time    0.0019
    CHARGE:  cpu time    0.3873: real time    0.3875
    MIXING:  cpu time    0.0025: real time    0.0025
    --------------------------------------------
      LOOP:  cpu time    7.4258: real time    7.5466

 eigenvalue-minimisations  :  3120
 total energy-change (2. order) : 0.1089161E+00  (-0.3994434E+00)
 number of electron     247.9999965 magnetization 
 augmentation part       -4.0801510 magnetization 

 Broyden mixing:
  rms(total) = 0.26419E+00    rms(broyden)= 0.26402E+00
  rms(prec ) = 0.39665E+00
  weight for this iteration     100.00

 eigenvalues of (default mixing * dielectric matrix)
  average eigenvalue GAMMA=   1.3825
  2.2952  0.9262  0.9262

 Free energy of the ion-electron system (eV)
  ---------------------------------------------------
  alpha Z        PSCENC =       274.85726572
  Ewald energy   TEWEN  =     -9325.61592287
  -Hartree energ DENC   =     -1807.84372577
  -exchange      EXHF   =         0.00000000
  -V(xc)+E(xc)   XCENC  =       191.39601745
  PAW double counting   =     17156.37724492   -16622.40461412
  entropy T*S    EENTRO =        -0.00884633
  eigenvalues    EBANDS =       158.62289146
  atomic energy  EATOM  =      9645.50393724
  Solvation  Ediel_sol  =         0.00000000
  ---------------------------------------------------
  free energy    TOTEN  =      -329.11575231 eV

  energy without entropy =     -329.10690598  energy(sigma->0) =     -329.11354073


--------------------------------------------------------------------------------------------------------




--------------------------------------- Iteration      1(   9)  ---------------------------------------


    POTLOK:  cpu time    0.0858: real time    0.1011
    SETDIJ:  cpu time    0.0075: real time    0.0076
    EDDIAG:  cpu time    1.0521: real time    1.0541
  RMM-DIIS:  cpu time    5.2323: real time    5.2344
    ORTHCH:  cpu time    0.1249: real time    0.1250
       DOS:  cpu time    0.0019: real time    0.0019
    CHARGE:  cpu time    0.3831: real time    0.3832
    MIXING:  cpu time    0.0025: real time    0.0025
    --------------------------------------------
      LOOP:  cpu time    6.8902: real time    6.9097

 eigenvalue-minimisations  :  3149
 total energy-change (2. order) : 0.2542869E+00  (-0.5554704E-01)
 number of electron     247.9999965 magnetization 
 augmentation part       -4.2477015 magnetization 

 Broyden mixing:
  rms(total) = 0.66377E-01    rms(broyden)= 0.66350E-01
  rms(prec ) = 0.83068E-01
  weight for this iteration     100.00

 eigenvalues of (default mixing * dielectric matrix)
  average eigenvalue GAMMA=   1.5835
  2.1721  2.1721  0.9948  0.9948

 Free energy of the ion-electron system (eV)
  ---------------------------------------------------
  alpha Z        PSCENC =       274.85726572
  Ewald energy   TEWEN  =     -9325.61592287
  -Hartree energ DENC   =     -1830.53332386
  -exchange      EXHF   =         0.00000000
  -V(xc)+E(xc)   XCENC  =       192.87848772
  PAW double counting   =     17749.72245302   -17215.82356450
  entropy T*S    EENTRO =        -0.00544535
  eigenvalues    EBANDS =       180.15464748
  atomic energy  EATOM  =      9645.50393724
  Solvation  Ediel_sol  =         0.00000000
  ---------------------------------------------------
  free energy    TOTEN  =      -328.86146541 eV

  energy without entropy =     -328.85602006  energy(sigma->0) =     -328.86010407


--------------------------------------------------------------------------------------------------------




--------------------------------------- Iteration      1(  10)  ---------------------------------------


    POTLOK:  cpu time    0.0911: real time    0.1018
    SETDIJ:  cpu time    0.0076: real time    0.0076
    EDDIAG:  cpu time    1.0157: real time    1.0161
  RMM-DIIS:  cpu time    5.6752: real time    5.6796
    ORTHCH:  cpu time    0.1247: real time    0.1247
       DOS:  cpu time    0.0019: real time    0.0019
    CHARGE:  cpu time    0.3794: real time    0.3796
    MIXING:  cpu time    0.0027: real time    0.0027
    --------------------------------------------
      LOOP:  cpu time    7.2983: real time    7.3139

 eigenvalue-minimisations  :  3388
 total energy-change (2. order) :-0.6766576E-02  (-0.1501685E-01)
 number of electron     247.9999965 magnetization 
 augmentation part       -4.3123457 magnetization 

 Broyden mixing:
  rms(total) = 0.35433E-01    rms(broyden)= 0.35370E-01
  rms(prec ) = 0.46865E-01
  weight for this iteration     100.00

 eigenvalues of (default mixing * dielectric matrix)
  average eigenvalue GAMMA=   1.6091
  2.6418  2.2502  1.0914  1.0311  1.0311

 Free energy of the ion-electron system (eV)
  ---------------------------------------------------
  alpha Z        PSCENC =       274.85726572
  Ewald energy   TEWEN  =     -9325.61592287
  -Hartree energ DENC   =     -1834.91919614
  -exchange      EXHF   =         0.00000000
  -V(xc)+E(xc)   XCENC  =       193.19912188
  PAW double counting   =     17601.61638443   -17067.78741235
  entropy T*S    EENTRO =        -0.00486253
  eigenvalues    EBANDS =       184.28245265
  atomic energy  EATOM  =      9645.50393724
  Solvation  Ediel_sol  =         0.00000000
  ---------------------------------------------------
  free energy    TOTEN  =      -328.86823198 eV

  energy without entropy =     -328.86336945  energy(sigma->0) =     -328.86701635


--------------------------------------------------------------------------------------------------------




--------------------------------------- Iteration      1(  11)  ---------------------------------------


    POTLOK:  cpu time    0.0859: real time    0.1016
    SETDIJ:  cpu time    0.0077: real time    0.0077
    EDDIAG:  cpu time    1.0173: real time    1.0175
  RMM-DIIS:  cpu time    5.2542: real time    5.2576
    ORTHCH:  cpu time    0.1246: real time    0.1247
       DOS:  cpu time    0.0019: real time    0.0019
    CHARGE:  cpu time    0.3819: real time    0.3820
    MIXING:  cpu time    0.0028: real time    0.0028
    --------------------------------------------
      LOOP:  cpu time    6.8764: real time    6.8959

 eigenvalue-minimisations  :  3146
 total energy-change (2. order) : 0.2532533E-02  (-0.1383658E-02)
 number of electron     247.9999965 magnetization 
 augmentation part       -4.2923201 magnetization 

 Broyden mixing:
  rms(total) = 0.76932E-02    rms(broyden)= 0.76890E-02
  rms(prec ) = 0.88726E-02
  weight for this iteration     100.00

 eigenvalues of (default mixing * dielectric matrix)
  average eigenvalue GAMMA=   1.5331
  2.6084  2.3488  1.0726  1.0726  0.9866  1.1096

 Free energy of the ion-electron system (eV)
  ---------------------------------------------------
  alpha Z        PSCENC =       274.85726572
  Ewald energy   TEWEN  =     -9325.61592287
  -Hartree energ DENC   =     -1832.22328324
  -exchange      EXHF   =         0.00000000
  -V(xc)+E(xc)   XCENC  =       193.05188891
  PAW double counting   =     17643.27812826   -17109.44188161
  entropy T*S    EENTRO =        -0.00530179
  eigenvalues    EBANDS =       181.72946994
  atomic energy  EATOM  =      9645.50393724
  Solvation  Ediel_sol  =         0.00000000
  ---------------------------------------------------
  free energy    TOTEN  =      -328.86569945 eV

  energy without entropy =     -328.86039766  energy(sigma->0) =     -328.86437400


--------------------------------------------------------------------------------------------------------




--------------------------------------- Iteration      1(  12)  ---------------------------------------


    POTLOK:  cpu time    0.0860: real time    0.1018
    SETDIJ:  cpu time    0.0076: real time    0.0076
    EDDIAG:  cpu time    1.0169: real time    1.0172
  RMM-DIIS:  cpu time    5.3774: real time    5.3792
    ORTHCH:  cpu time    0.1274: real time    0.1274
       DOS:  cpu time    0.0018: real time    0.0018
    CHARGE:  cpu time    0.3794: real time    0.3795
    MIXING:  cpu time    0.0033: real time    0.0033
    --------------------------------------------
      LOOP:  cpu time    6.9996: real time    7.0177

 eigenvalue-minimisations  :  3198
 total energy-change (2. order) :-0.7682849E-04  (-0.1731800E-03)
 number of electron     247.9999965 magnetization 
 augmentation part       -4.2976085 magnetization 

 Broyden mixing:
  rms(total) = 0.52134E-02    rms(broyden)= 0.52124E-02
  rms(prec ) = 0.72166E-02
  weight for this iteration     100.00

 eigenvalues of (default mixing * dielectric matrix)
  average eigenvalue GAMMA=   1.6396
  2.6233  2.6233  2.3415  1.0216  1.0216  0.9231  0.9231

 Free energy of the ion-electron system (eV)
  ---------------------------------------------------
  alpha Z        PSCENC =       274.85726572
  Ewald energy   TEWEN  =     -9325.61592287
  -Hartree energ DENC   =     -1833.02653856
  -exchange      EXHF   =         0.00000000
  -V(xc)+E(xc)   XCENC  =       193.10259589
  PAW double counting   =     17621.40292533   -17087.56692664
  entropy T*S    EENTRO =        -0.00518929
  eigenvalues    EBANDS =       182.48207690
  atomic energy  EATOM  =      9645.50393724
  Solvation  Ediel_sol  =         0.00000000
  ---------------------------------------------------
  free energy    TOTEN  =      -328.86577628 eV

  energy without entropy =     -328.86058699  energy(sigma->0) =     -328.86447896


--------------------------------------------------------------------------------------------------------




--------------------------------------- Iteration      1(  13)  ---------------------------------------


    POTLOK:  cpu time    0.0936: real time    0.1017
    SETDIJ:  cpu time    0.0084: real time    0.0084
    EDDIAG:  cpu time    1.0231: real time    1.0234
  RMM-DIIS:  cpu time    3.5162: real time    3.5189
    ORTHCH:  cpu time    0.1278: real time    0.1278
       DOS:  cpu time    0.0020: real time    0.0020
    --------------------------------------------
      LOOP:  cpu time    4.7711: real time    4.7822

 eigenvalue-minimisations  :  2006
 total energy-change (2. order) : 0.6522564E-04  (-0.2465101E-04)
 number of electron     247.9999965 magnetization 
 augmentation part       -4.2976085 magnetization 

 Free energy of the ion-electron system (eV)
  ---------------------------------------------------
  alpha Z        PSCENC =       274.85726572
  Ewald energy   TEWEN  =     -9325.61592287
  -Hartree energ DENC   =     -1832.67037618
  -exchange      EXHF   =         0.00000000
  -V(xc)+E(xc)   XCENC  =       193.07910875
  PAW double counting   =     17606.70436284   -17072.86216415
  entropy T*S    EENTRO =        -0.00522198
  eigenvalues    EBANDS =       182.14329958
  atomic energy  EATOM  =      9645.50393724
  Solvation  Ediel_sol  =         0.00000000
  ---------------------------------------------------
  free energy    TOTEN  =      -328.86571105 eV

  energy without entropy =     -328.86048907  energy(sigma->0) =     -328.86440556


--------------------------------------------------------------------------------------------------------




 average (electrostatic) potential at core
  the test charge radii are     0.7089  0.9892
  (the norm of the test charge is              1.0000)
       1 -62.2172       2 -62.2172       3 -62.2172       4 -62.2172       5 -62.1518
       6 -62.1518       7 -62.2172       8 -62.2172       9 -62.2172      10 -62.2172
      11 -62.1518      12 -62.1518      13 -62.2172      14 -62.2172      15 -62.2172
      16 -62.2172      17 -62.1518      18 -62.1518      19 -62.2172      20 -62.2172
      21 -62.2172      22 -62.2172      23 -62.1518      24 -62.1518      25 -82.5408
      26 -82.5408      27 -82.5408      28 -82.5408      29 -82.5408      30 -82.5408
      31 -82.5408      32 -82.5408      33 -82.5408      34 -82.5408      35 -82.5408
      36 -82.5408      37 -82.5408      38 -82.5408      39 -82.5408      40 -82.5408
      41 -82.5408      42 -82.5408      43 -82.5408      44 -82.5408      45 -82.5408
      46 -82.5408      47 -82.5408      48 -82.5408      49 -82.5408      50 -82.5408
      51 -82.5408      52 -82.5408      53 -82.5408      54 -82.5408      55 -82.5408
      56 -82.5408
 
 
 
 E-fermi :   8.0719     XC(G=0): -10.9030     alpha+bet :-13.7539


 k-point     1 :       0.0000    0.0000    0.0000
  band No.  band energies     occupation 
      1      -9.8510      2.00000
      2      -9.2178      2.00000
      3      -9.2178      2.00000
      4      -9.2178      2.00000
      5      -9.2178      2.00000
      6      -9.2178      2.00000
      7      -9.2178      2.00000
      8      -8.9605      2.00000
      9      -8.2938      2.00000
     10      -8.1480      2.00000
     11      -8.1480      2.00000
     12      -8.1480      2.00000
     13      -8.1480      2.00000
     14      -8.1480      2.00000
     15      -8.1480      2.00000
     16      -7.2360      2.00000
     17      -7.2360      2.00000
     18      -7.2360      2.00000
     19      -7.2360      2.00000
     20      -7.2360      2.00000
     21      -7.2360      2.00000
     22      -7.1467      2.00000
     23      -7.1467      2.00000
     24      -7.1467      2.00000
     25      -1.7494      2.00000
     26      -1.7494      2.00000
     27      -1.7494      2.00000
     28      -1.4407      2.00000
     29      -1.4407      2.00000
     30      -1.4407      2.00000
     31      -1.4407      2.00000
     32      -1.4407      2.00000
     33      -1.4407      2.00000
     34      -1.2590      2.00000
     35      -0.5342      2.00000
     36      -0.5342      2.00000
     37      -0.5342      2.00000
     38      -0.5342      2.00000
     39      -0.5342      2.00000
     40      -0.5342      2.00000
     41      -0.3025      2.00000
     42      -0.3025      2.00000
     43      -0.3025      2.00000
     44      -0.0601      2.00000
     45      -0.0601      2.00000
     46      -0.0601      2.00000
     47      -0.0601      2.00000
     48      -0.0601      2.00000
     49      -0.0601      2.00000
     50       0.2232      2.00000
     51       0.2232      2.00000
     52       0.2232      2.00000
     53       0.2232      2.00000
     54       0.2232      2.00000
     55       0.2232      2.00000
     56       0.8806      2.00000
     57       0.8806      2.00000
     58       2.0885      2.00000
     59       2.0885      2.00000
     60       2.0885      2.00000
     61       2.0885      2.00000
     62       2.0885      2.00000
     63       2.0885      2.00000
     64       2.1180      2.00000
     65       2.1180      2.00000
     66       2.1180      2.00000
     67       2.1180      2.00000
     68       2.1180      2.00000
     69       2.1180      2.00000
     70       2.1519      2.00000
     71       2.1519      2.00000
     72       2.1519      2.00000
     73       2.1519      2.00000
     74       2.1519      2.00000
     75       2.1519      2.00000
     76       2.2122      2.00000
     77       2.2122      2.00000
     78       2.2122      2.00000
     79       2.6310      2.00000
     80       2.6310      2.00000
     81       2.6310      2.00000
     82       2.6310      2.00000
     83       2.6310      2.00000
     84       2.6310      2.00000
     85       3.2652      2.00000
     86       3.8781      2.00000
     87       3.8781      2.00000
     88       3.8781      2.00000
     89       4.5132      2.00000
     90       4.5132      2.00000
     91       4.5132      2.00000
     92       4.5132      2.00000
     93       4.5132      2.00000
     94       4.5132      2.00000
     95       4.9320      2.00000
     96       4.9320      2.00000
     97       4.9320      2.00000
     98       5.9012      2.00000
     99       5.9012      2.00000
    100       5.9012      2.00000
    101       6.4098      2.00000
    102       6.4098      2.00000
    103       6.4098      2.00000
    104       6.4098      2.00000
    105       6.4098      2.00000
    106       6.4098      2.00000
    107       7.0785      2.00000
    108       7.0785      2.00000
    109       7.0785      2.00000
    110       7.0785      2.00000
    111       7.0785      2.00000
    112       7.0785      2.00000
    113       7.1666      2.00000
    114       7.1666      2.00000
    115       7.1666      2.00000
    116       7.1666      2.00000
    117       7.1666      2.00000
    118       7.1666      2.00000
    119       7.4982      2.00000
    120       7.4982      2.00000
    121       7.4982      2.00000
    122       7.4982      2.00000
    123       7.4982      2.00000
    124       7.4982      2.00000
    125       7.5108      2.00000
    126       7.5108      2.00000
    127       7.5108      2.00000
    128       9.1709      0.00000
    129       9.3584      0.00000
    130       9.3584      0.00000
    131       9.3584      0.00000
    132       9.3584      0.00000
    133       9.3584      0.00000
    134       9.3584      0.00000
    135       9.3642      0.00000
    136       9.4637      0.00000
    137       9.4637      0.00000
    138       9.4637      0.00000
    139       9.4637      0.00000
    140       9.4638      0.00000
    141       9.4639      0.00000
    142       9.5921      0.00000
    143       9.5921      0.00000
    144       9.5921      0.00000
    145       9.5922      0.00000
    146       9.5923      0.00000
    147       9.5926      0.00000
    148       9.6238      0.00000
    149       9.6238      0.00000
    150      10.1566      0.00000
    151      10.1567      0.00000
    152      10.1573      0.00000
    153      11.3593      0.00000
    154      11.3719      0.00000
    155      11.4116      0.00000
    156      11.7143      0.00000

 k-point     2 :       0.2000    0.0000    0.0000
  band No.  band energies     occupation 
      1      -9.8131      2.00000
      2      -9.3668      2.00000
      3      -9.2129      2.00000
      4      -9.2129      2.00000
      5      -9.2129      2.00000
      6      -9.2129      2.00000
      7      -9.1166      2.00000
      8      -8.9717      2.00000
      9      -8.3058      2.00000
     10      -8.2931      2.00000
     11      -8.1668      2.00000
     12      -8.1668      2.00000
     13      -8.1668      2.00000
     14      -8.1668      2.00000
     15      -7.9085      2.00000
     16      -7.2276      2.00000
     17      -7.2276      2.00000
     18      -7.2180      2.00000
     19      -7.2180      2.00000
     20      -7.2180      2.00000
     21      -7.2180      2.00000
     22      -7.2069      2.00000
     23      -7.1554      2.00000
     24      -7.1554      2.00000
     25      -1.7389      2.00000
     26      -1.7389      2.00000
     27      -1.6432      2.00000
     28      -1.4936      2.00000
     29      -1.4936      2.00000
     30      -1.3916      2.00000
     31      -1.3916      2.00000
     32      -1.3916      2.00000
     33      -1.3916      2.00000
     34      -1.1911      2.00000
     35      -0.8100      2.00000
     36      -0.6923      2.00000
     37      -0.6923      2.00000
     38      -0.6923      2.00000
     39      -0.6923      2.00000
     40      -0.4979      2.00000
     41      -0.4642      2.00000
     42      -0.2123      2.00000
     43      -0.2098      2.00000
     44      -0.2098      2.00000
     45      -0.0986      2.00000
     46      -0.0986      2.00000
     47      -0.0986      2.00000
     48      -0.0986      2.00000
     49       0.0450      2.00000
     50       0.2548      2.00000
     51       0.2548      2.00000
     52       0.3854      2.00000
     53       0.3854      2.00000
     54       0.3854      2.00000
     55       0.3854      2.00000
     56       0.9341      2.00000
     57       1.2368      2.00000
     58       1.6981      2.00000
     59       1.7413      2.00000
     60       1.7413      2.00000
     61       1.7413      2.00000
     62       1.7413      2.00000
     63       1.8470      2.00000
     64       1.9897      2.00000
     65       1.9897      2.00000
     66       2.1608      2.00000
     67       2.1608      2.00000
     68       2.1793      2.00000
     69       2.1793      2.00000
     70       2.1793      2.00000
     71       2.1793      2.00000
     72       2.2435      2.00000
     73       2.3196      2.00000
     74       2.5126      2.00000
     75       2.5126      2.00000
     76       2.5126      2.00000
     77       2.5126      2.00000
     78       2.5842      2.00000
     79       2.6771      2.00000
     80       2.6771      2.00000
     81       2.6771      2.00000
     82       2.6771      2.00000
     83       2.8061      2.00000
     84       2.8061      2.00000
     85       3.4183      2.00000
     86       3.6778      2.00000
     87       3.6778      2.00000
     88       3.7705      2.00000
     89       4.3591      2.00000
     90       4.3591      2.00000
     91       4.3591      2.00000
     92       4.3591      2.00000
     93       4.5382      2.00000
     94       4.5382      2.00000
     95       4.8345      2.00000
     96       4.8345      2.00000
     97       4.9589      2.00000
     98       5.9569      2.00000
     99       6.0373      2.00000
    100       6.2329      2.00000
    101       6.2781      2.00000
    102       6.2781      2.00000
    103       6.3870      2.00000
    104       6.3870      2.00000
    105       6.3870      2.00000
    106       6.3870      2.00000
    107       6.6176      2.00000
    108       6.7895      2.00000
    109       6.7895      2.00000
    110       6.7895      2.00000
    111       6.7895      2.00000
    112       6.9867      2.00000
    113       7.0991      2.00000
    114       7.0991      2.00000
    115       7.2582      2.00000
    116       7.2582      2.00000
    117       7.2582      2.00000
    118       7.2582      2.00000
    119       7.5002      2.00000
    120       7.5002      2.00000
    121       7.7375      1.99990
    122       7.7375      1.99990
    123       7.8673      1.99017
    124       7.8673      1.99017
    125       7.8673      1.99017
    126       7.8673      1.99017
    127       7.8904      1.99365
    128       8.9636      0.00000
    129       8.9636      0.00000
    130       8.9636      0.00000
    131       8.9637      0.00000
    132       9.2118      0.00000
    133       9.2120      0.00000
    134       9.2627      0.00000
    135       9.3746      0.00000
    136       9.3988      0.00000
    137       9.5151      0.00000
    138       9.5865      0.00000
    139       9.5897      0.00000
    140       9.5897      0.00000
    141       9.5898      0.00000
    142       9.5900      0.00000
    143       9.6404      0.00000
    144       9.8489      0.00000
    145       9.8489      0.00000
    146       9.8490      0.00000
    147       9.8501      0.00000
    148       9.9733      0.00000
    149      10.0575      0.00000
    150      10.0998      0.00000
    151      10.1006      0.00000
    152      10.1441      0.00000
    153      11.1154      0.00000
    154      11.1850      0.00000
    155      11.2000      0.00000
    156      11.2963      0.00000

 k-point     3 :       0.4000    0.0000    0.0000
  band No.  band energies     occupation 
      1      -9.7045      2.00000
      2      -9.5441      2.00000
      3      -9.2050      2.00000
      4      -9.2050      2.00000
      5      -9.2050      2.00000
      6      -9.2050      2.00000
      7      -9.0500      2.00000
      8      -9.0025      2.00000
      9      -8.3413      2.00000
     10      -8.3314      2.00000
     11      -8.1965      2.00000
     12      -8.1965      2.00000
     13      -8.1965      2.00000
     14      -8.1965      2.00000
     15      -7.6296      2.00000
     16      -7.3778      2.00000
     17      -7.2056      2.00000
     18      -7.2056      2.00000
     19      -7.1901      2.00000
     20      -7.1901      2.00000
     21      -7.1901      2.00000
     22      -7.1901      2.00000
     23      -7.1781      2.00000
     24      -7.1781      2.00000
     25      -1.6939      2.00000
     26      -1.6939      2.00000
     27      -1.6027      2.00000
     28      -1.6027      2.00000
     29      -1.3422      2.00000
     30      -1.2526      2.00000
     31      -1.2526      2.00000
     32      -1.2526      2.00000
     33      -1.2526      2.00000
     34      -1.0318      2.00000
     35      -0.9666      2.00000
     36      -0.9666      2.00000
     37      -0.9666      2.00000
     38      -0.9666      2.00000
     39      -0.9492      2.00000
     40      -0.9016      2.00000
     41      -0.6922      2.00000
     42      -0.5306      2.00000
     43      -0.1248      2.00000
     44      -0.1248      2.00000
     45      -0.1248      2.00000
     46      -0.1248      2.00000
     47       0.0150      2.00000
     48       0.0150      2.00000
     49       0.2191      2.00000
     50       0.2191      2.00000
     51       0.5681      2.00000
     52       0.5904      2.00000
     53       0.5904      2.00000
     54       0.5904      2.00000
     55       0.5904      2.00000
     56       1.0921      2.00000
     57       1.2045      2.00000
     58       1.3502      2.00000
     59       1.4738      2.00000
     60       1.4738      2.00000
     61       1.4738      2.00000
     62       1.4738      2.00000
     63       1.8768      2.00000
     64       1.8898      2.00000
     65       1.8898      2.00000
     66       2.0131      2.00000
     67       2.0131      2.00000
     68       2.3040      2.00000
     69       2.3087      2.00000
     70       2.3087      2.00000
     71       2.3087      2.00000
     72       2.3087      2.00000
     73       2.6474      2.00000
     74       2.6474      2.00000
     75       2.6474      2.00000
     76       2.6474      2.00000
     77       2.8203      2.00000
     78       2.8997      2.00000
     79       2.8997      2.00000
     80       2.8997      2.00000
     81       2.8997      2.00000
     82       3.0552      2.00000
     83       3.0555      2.00000
     84       3.0555      2.00000
     85       3.2955      2.00000
     86       3.3323      2.00000
     87       3.3323      2.00000
     88       3.4737      2.00000
     89       4.0756      2.00000
     90       4.0756      2.00000
     91       4.0756      2.00000
     92       4.0756      2.00000
     93       4.6066      2.00000
     94       4.6066      2.00000
     95       4.7114      2.00000
     96       4.7114      2.00000
     97       5.2585      2.00000
     98       5.7655      2.00000
     99       5.7749      2.00000
    100       6.1172      2.00000
    101       6.1836      2.00000
    102       6.2467      2.00000
    103       6.2467      2.00000
    104       6.2467      2.00000
    105       6.2467      2.00000
    106       6.3541      2.00000
    107       6.7486      2.00000
    108       6.7486      2.00000
    109       6.7486      2.00000
    110       6.7486      2.00000
    111       6.8698      2.00000
    112       6.8698      2.00000
    113       7.0586      2.00000
    114       7.0586      2.00000
    115       7.2621      2.00000
    116       7.2621      2.00000
    117       7.2621      2.00000
    118       7.2621      2.00000
    119       7.5794      2.00000
    120       7.5794      2.00000
    121       7.9004      1.99895
    122       7.9004      1.99895
    123       8.2744      0.00987
    124       8.2744      0.00987
    125       8.2744      0.00987
    126       8.2744      0.00987
    127       8.6528      0.00000
    128       8.6838      0.00000
    129       8.6838      0.00000
    130       8.6838      0.00000
    131       8.6838      0.00000
    132       9.1515      0.00000
    133       9.1524      0.00000
    134       9.1786      0.00000
    135       9.3748      0.00000
    136       9.4214      0.00000
    137       9.4534      0.00000
    138       9.4992      0.00000
    139       9.6209      0.00000
    140       9.6211      0.00000
    141       9.6214      0.00000
    142       9.6217      0.00000
    143       9.7044      0.00000
    144       9.7074      0.00000
    145       9.9501      0.00000
    146      10.0836      0.00000
    147      10.0841      0.00000
    148      10.0857      0.00000
    149      10.0882      0.00000
    150      10.3259      0.00000
    151      10.4168      0.00000
    152      10.4867      0.00000
    153      10.7965      0.00000
    154      11.0068      0.00000
    155      11.0252      0.00000
    156      11.1314      0.00000

 k-point     4 :       0.2000    0.2000    0.0000
  band No.  band energies     occupation 
      1      -9.7761      2.00000
      2      -9.3494      2.00000
      3      -9.3494      2.00000
[...]
    120       7.6537      2.00000
    121       7.6537      2.00000
    122       7.8020      1.99916
    123       7.8020      1.99916
    124       7.8020      1.99916
    125       8.7562      0.00000
    126       8.7562      0.00000
    127       8.7562      0.00000
    128       8.9750      0.00000
    129       8.9750      0.00000
    130       8.9750      0.00000
    131       8.9836      0.00000
    132       8.9836      0.00000
    133       9.0732      0.00000
    134       9.0732      0.00000
    135       9.0732      0.00000
    136       9.4230      0.00000
    137       9.4230      0.00000
    138       9.4230      0.00000
    139       9.5181      0.00000
    140       9.5181      0.00000
    141       9.6130      0.00000
    142       9.9371      0.00000
    143       9.9371      0.00000
    144       9.9371      0.00000
    145      10.2438      0.00000
    146      10.2439      0.00000
    147      10.2442      0.00000
    148      10.3274      0.00000
    149      10.3275      0.00000
    150      10.3275      0.00000
    151      10.4619      0.00000
    152      10.5898      0.00000
    153      10.5948      0.00000
    154      10.5958      0.00000
    155      10.5984      0.00000
    156      10.6127      0.00000


--------------------------------------------------------------------------------------------------------


 soft charge-density along one line, spin component           1
         0         1         2         3         4         5         6         7         8         9
 total charge-density along one line
 
 pseudopotential strength for first ion, spin component:           1
 12.511  14.997  -0.000  -0.000  -0.000  -0.000  -0.000  -0.000
 14.997  17.979  -0.000  -0.000  -0.000  -0.000  -0.000  -0.000
 -0.000  -0.000  -5.992  -0.004   0.004  -8.020  -0.006   0.006
 -0.000  -0.000  -0.004  -5.992  -0.004  -0.006  -8.020  -0.006
 -0.000  -0.000   0.004  -0.004  -5.992   0.006  -0.006  -8.020
 -0.000  -0.000  -8.020  -0.006   0.006 -10.027  -0.008   0.008
 -0.000  -0.000  -0.006  -8.020  -0.006  -0.008 -10.027  -0.008
 -0.000  -0.000   0.006  -0.006  -8.020   0.008  -0.008 -10.027
 total augmentation occupancy for first ion, spin component:           1
  5.018  -2.165  -0.000  -0.000  -0.000   0.000  -0.000   0.000
 -2.165   1.464   0.000  -0.000  -0.000   0.000  -0.000   0.000
 -0.000   0.000   1.686  -0.045   0.045  -0.232   0.002  -0.002
 -0.000  -0.000  -0.045   1.686  -0.045   0.002  -0.232   0.002
 -0.000  -0.000   0.045  -0.045   1.686  -0.002   0.002  -0.232
  0.000   0.000  -0.232   0.002  -0.002   0.041   0.000  -0.000
 -0.000  -0.000   0.002  -0.232   0.002   0.000   0.041   0.000
  0.000   0.000  -0.002   0.002  -0.232  -0.000   0.000   0.041


------------------------ aborting loop because EDIFF is reached ----------------------------------------


    CHARGE:  cpu time    0.3769: real time    0.3770
    FORLOC:  cpu time    0.0320: real time    0.0321
    FORNL :  cpu time    2.3895: real time    2.3903
    STRESS:  cpu time    7.1846: real time    7.1871
    FORCOR:  cpu time    0.1151: real time    0.1151
    FORHAR:  cpu time    0.0503: real time    0.0503
    MIXING:  cpu time    0.0026: real time    0.0026
    OFIELD:  cpu time    0.0000: real time    0.0000

  FORCE on cell =-STRESS in cart. coord.  units (eV):
  Direction    XX          YY          ZZ          XY          YZ          ZX
  --------------------------------------------------------------------------------------
  Alpha Z   274.85727   274.85727   274.85727
  Ewald   -3107.98776 -3107.98776 -3107.98776     0.00000    -0.00000    -0.00000
  Hartree   611.83741   611.83741   611.83741    -0.00000    -0.00000    -0.00000
  E(xc)    -901.11122  -901.11122  -901.11122     0.00000    -0.00000     0.00000
  Local    -878.72110  -878.72110  -878.72110     0.00000     0.00000     0.00000
  n-local   982.24753   982.77672   984.27071    -0.35777     0.74231     0.05963
  augment  -185.35752  -185.35752  -185.35752     0.00000    -0.00000    -0.00000
  Kinetic  3145.40175  3156.89821  3162.32880    -2.27683    -2.87651    -1.27201
  Fock        0.00000     0.00000     0.00000     0.00000     0.00000     0.00000
  -------------------------------------------------------------------------------------
  Total     -48.50834   -48.50834   -48.50834    -0.00000    -0.00000    -0.00000
  in kB    -109.51956  -109.51956  -109.51956    -0.00000    -0.00000    -0.00000
  external pressure =     -109.52 kB  Pullay stress =        0.00 kB


 VOLUME and BASIS-vectors are now :
 -----------------------------------------------------------------------------
  energy-cutoff  :      400.00
  volume of cell :      709.64
      direct lattice vectors                 reciprocal lattice vectors
     8.919594392  0.000000000  0.000000000     0.112112721 -0.000000000  0.000000000
     0.000000000  8.919594392  0.000000000    -0.000000000  0.112112721  0.000000000
     0.000000000  0.000000000  8.919594392    -0.000000000 -0.000000000  0.112112721

  length of vectors
     8.919594392  8.919594392  8.919594392     0.112112721  0.112112721  0.112112721


 FORCES acting on ions
    electron-ion (+dipol)            ewald-force                    non-local-force                 convergence-correction
 -----------------------------------------------------------------------------------------------
   0.261E-11 -.151E-11 -.868E-12   -.493E-13 0.000E+00 0.117E-14   -.243E-21 0.453E-22 0.203E-21   -.150E-13 0.228E-12 -.933E-12
   -.351E-12 -.134E-11 -.711E-12   -.159E-13 -.286E-13 0.155E-13   0.100E-21 -.412E-22 -.727E-22   0.398E-12 0.101E-11 -.739E-12
   -.110E-12 -.231E-12 -.376E-12   -.355E-14 0.888E-14 -.178E-14   -.396E-21 0.283E-22 -.425E-22   0.107E-13 0.904E-12 0.103E-12
   0.205E-12 0.448E-12 0.159E-11   -.187E-13 0.241E-13 0.835E-14   0.299E-22 0.907E-22 0.364E-22   0.759E-12 -.825E-13 0.957E-12
   0.224E-13 0.863E-13 -.254E-12   0.000E+00 -.249E-13 -.888E-15   0.250E-17 0.157E-18 -.712E-17   0.500E-12 -.133E-12 -.846E-12
   0.633E-14 -.291E-14 0.184E-12   -.351E-13 0.799E-14 -.133E-13   0.256E-17 0.363E-17 0.898E-17   -.102E-11 0.128E-11 0.132E-13
   -.180E-11 -.545E-12 -.128E-11   -.191E-13 0.533E-14 0.385E-13   -.419E-22 -.656E-23 -.504E-22   -.373E-12 0.159E-11 -.172E-11
   -.147E-12 0.718E-12 -.128E-11   -.252E-13 -.535E-14 0.195E-13   -.437E-21 0.231E-21 0.128E-21   -.220E-12 0.134E-11 -.534E-12
   0.332E-13 -.638E-13 -.564E-12   -.533E-14 0.888E-14 0.000E+00   -.248E-21 -.145E-22 -.125E-21   0.727E-13 0.116E-11 -.352E-12
   0.207E-12 0.581E-13 0.959E-12   -.160E-13 0.200E-13 0.245E-13   -.187E-21 -.154E-21 0.279E-22   -.841E-12 0.236E-13 0.121E-11
   0.224E-13 -.153E-12 -.261E-13   0.138E-13 -.102E-13 0.182E-13   -.141E-17 -.373E-17 -.902E-17   0.108E-12 0.123E-12 -.793E-12
   0.318E-13 0.140E-12 0.461E-13   0.142E-13 0.355E-13 -.213E-13   0.237E-17 -.963E-18 0.888E-17   -.998E-12 0.201E-11 -.977E-12
   0.298E-12 -.163E-12 -.674E-12   -.702E-14 -.102E-13 -.129E-13   0.158E-22 -.107E-21 -.824E-22   -.962E-13 -.463E-12 0.118E-11
   0.234E-11 -.240E-11 0.226E-12   -.836E-14 -.185E-13 -.711E-14   -.732E-22 -.825E-22 -.144E-21   -.546E-13 -.118E-11 0.875E-13
   0.231E-12 0.360E-12 0.858E-12   -.178E-14 0.124E-13 0.124E-13   0.317E-21 -.312E-22 -.690E-21   0.145E-12 -.120E-11 -.261E-12
   0.306E-12 0.283E-12 0.243E-12   0.107E-13 0.611E-14 -.235E-13   0.150E-21 0.255E-21 0.264E-21   0.173E-12 0.279E-12 -.158E-11
   0.188E-12 -.216E-11 -.133E-11   0.426E-13 -.711E-14 0.195E-13   -.314E-17 -.369E-17 -.991E-17   0.388E-12 -.939E-12 0.435E-12
   0.156E-12 0.105E-13 -.128E-11   0.400E-13 0.133E-13 -.471E-13   -.171E-17 0.157E-17 0.711E-17   0.665E-12 -.722E-12 0.235E-12
   -.637E-12 -.336E-12 -.617E-13   -.269E-13 -.266E-13 0.868E-14   -.102E-21 0.617E-22 -.101E-21   0.225E-12 -.465E-12 0.102E-11
   -.686E-12 0.656E-12 -.667E-12   -.225E-13 -.102E-13 0.000E+00   0.272E-21 0.137E-22 0.435E-22   -.254E-12 -.142E-11 0.161E-11
   0.210E-12 0.341E-12 0.150E-11   -.107E-13 0.124E-13 0.142E-13   -.298E-21 0.301E-23 0.931E-22   -.281E-12 -.754E-12 0.459E-12
   0.897E-12 0.570E-12 -.606E-13   0.213E-13 0.377E-14 -.250E-14   -.186E-21 0.583E-21 0.523E-21   -.817E-13 -.470E-12 -.900E-12
   0.160E-12 -.313E-11 -.231E-11   0.488E-13 -.142E-13 -.888E-15   -.211E-17 0.154E-18 -.893E-17   -.133E-11 -.258E-12 0.237E-11
   0.172E-12 0.842E-12 0.976E-13   0.302E-13 0.391E-13 -.142E-13   0.719E-18 0.454E-17 0.882E-17   0.161E-11 -.122E-11 -.153E-12
   -.366E+01 -.366E+01 -.366E+01   0.390E+01 0.390E+01 0.390E+01   -.245E+00 -.245E+00 -.245E+00   -.297E-02 -.297E-02 -.297E-02
   0.366E+01 -.366E+01 -.366E+01   -.390E+01 0.390E+01 0.390E+01   0.245E+00 -.245E+00 -.245E+00   0.297E-02 -.297E-02 -.297E-02
   -.366E+01 -.366E+01 0.366E+01   0.390E+01 0.390E+01 -.390E+01   -.245E+00 -.245E+00 0.245E+00   -.297E-02 -.297E-02 0.297E-02
   -.366E+01 0.366E+01 -.366E+01   0.390E+01 -.390E+01 0.390E+01   -.245E+00 0.245E+00 -.245E+00   -.297E-02 0.297E-02 -.297E-02
   0.366E+01 0.366E+01 -.366E+01   -.390E+01 -.390E+01 0.390E+01   0.245E+00 0.245E+00 -.245E+00   0.297E-02 0.297E-02 -.297E-02
   0.366E+01 -.366E+01 0.366E+01   -.390E+01 0.390E+01 -.390E+01   0.245E+00 -.245E+00 0.245E+00   0.297E-02 -.297E-02 0.297E-02
   0.366E+01 0.366E+01 0.366E+01   -.390E+01 -.390E+01 -.390E+01   0.245E+00 0.245E+00 0.245E+00   0.297E-02 0.297E-02 0.297E-02
   -.366E+01 0.366E+01 0.366E+01   0.390E+01 -.390E+01 -.390E+01   -.245E+00 0.245E+00 0.245E+00   -.297E-02 0.297E-02 0.297E-02
   -.366E+01 -.366E+01 -.366E+01   0.390E+01 0.390E+01 0.390E+01   -.245E+00 -.245E+00 -.245E+00   -.297E-02 -.297E-02 -.297E-02
   0.366E+01 -.366E+01 -.366E+01   -.390E+01 0.390E+01 0.390E+01   0.245E+00 -.245E+00 -.245E+00   0.297E-02 -.297E-02 -.297E-02
   -.366E+01 -.366E+01 0.366E+01   0.390E+01 0.390E+01 -.390E+01   -.245E+00 -.245E+00 0.245E+00   -.297E-02 -.297E-02 0.297E-02
   -.366E+01 0.366E+01 -.366E+01   0.390E+01 -.390E+01 0.390E+01   -.245E+00 0.245E+00 -.245E+00   -.297E-02 0.297E-02 -.297E-02
   0.366E+01 0.366E+01 -.366E+01   -.390E+01 -.390E+01 0.390E+01   0.245E+00 0.245E+00 -.245E+00   0.297E-02 0.297E-02 -.297E-02
   0.366E+01 -.366E+01 0.366E+01   -.390E+01 0.390E+01 -.390E+01   0.245E+00 -.245E+00 0.245E+00   0.297E-02 -.297E-02 0.297E-02
   0.366E+01 0.366E+01 0.366E+01   -.390E+01 -.390E+01 -.390E+01   0.245E+00 0.245E+00 0.245E+00   0.297E-02 0.297E-02 0.297E-02
   -.366E+01 0.366E+01 0.366E+01   0.390E+01 -.390E+01 -.390E+01   -.245E+00 0.245E+00 0.245E+00   -.297E-02 0.297E-02 0.297E-02
   -.366E+01 -.366E+01 -.366E+01   0.390E+01 0.390E+01 0.390E+01   -.245E+00 -.245E+00 -.245E+00   -.297E-02 -.297E-02 -.297E-02
   0.366E+01 -.366E+01 -.366E+01   -.390E+01 0.390E+01 0.390E+01   0.245E+00 -.245E+00 -.245E+00   0.297E-02 -.297E-02 -.297E-02
   -.366E+01 -.366E+01 0.366E+01   0.390E+01 0.390E+01 -.390E+01   -.245E+00 -.245E+00 0.245E+00   -.297E-02 -.297E-02 0.297E-02
   -.366E+01 0.366E+01 -.366E+01   0.390E+01 -.390E+01 0.390E+01   -.245E+00 0.245E+00 -.245E+00   -.297E-02 0.297E-02 -.297E-02
   0.366E+01 0.366E+01 -.366E+01   -.390E+01 -.390E+01 0.390E+01   0.245E+00 0.245E+00 -.245E+00   0.297E-02 0.297E-02 -.297E-02
   0.366E+01 -.366E+01 0.366E+01   -.390E+01 0.390E+01 -.390E+01   0.245E+00 -.245E+00 0.245E+00   0.297E-02 -.297E-02 0.297E-02
   0.366E+01 0.366E+01 0.366E+01   -.390E+01 -.390E+01 -.390E+01   0.245E+00 0.245E+00 0.245E+00   0.297E-02 0.297E-02 0.297E-02
   -.366E+01 0.366E+01 0.366E+01   0.390E+01 -.390E+01 -.390E+01   -.245E+00 0.245E+00 0.245E+00   -.297E-02 0.297E-02 0.297E-02
   -.366E+01 -.366E+01 -.366E+01   0.390E+01 0.390E+01 0.390E+01   -.245E+00 -.245E+00 -.245E+00   -.297E-02 -.297E-02 -.297E-02
   0.366E+01 -.366E+01 -.366E+01   -.390E+01 0.390E+01 0.390E+01   0.245E+00 -.245E+00 -.245E+00   0.297E-02 -.297E-02 -.297E-02
   -.366E+01 -.366E+01 0.366E+01   0.390E+01 0.390E+01 -.390E+01   -.245E+00 -.245E+00 0.245E+00   -.297E-02 -.297E-02 0.297E-02
   -.366E+01 0.366E+01 -.366E+01   0.390E+01 -.390E+01 0.390E+01   -.245E+00 0.245E+00 -.245E+00   -.297E-02 0.297E-02 -.297E-02
   0.366E+01 0.366E+01 -.366E+01   -.390E+01 -.390E+01 0.390E+01   0.245E+00 0.245E+00 -.245E+00   0.297E-02 0.297E-02 -.297E-02
   0.366E+01 -.366E+01 0.366E+01   -.390E+01 0.390E+01 -.390E+01   0.245E+00 -.245E+00 0.245E+00   0.297E-02 -.297E-02 0.297E-02
   0.366E+01 0.366E+01 0.366E+01   -.390E+01 -.390E+01 -.390E+01   0.245E+00 0.245E+00 0.245E+00   0.297E-02 0.297E-02 0.297E-02
   -.366E+01 0.366E+01 0.366E+01   0.390E+01 -.390E+01 -.390E+01   -.245E+00 0.245E+00 0.245E+00   -.297E-02 0.297E-02 0.297E-02
 -----------------------------------------------------------------------------------------------
   0.857E-11 -.102E-10 -.782E-11   -.751E-13 -.213E-13 0.675E-13   0.125E-14 0.555E-16 0.833E-16   -.510E-12 0.552E-12 -.105E-12
 
 
 POSITION                                       TOTAL-FORCE (eV/Angst)
 -----------------------------------------------------------------------------------
      7.80465      7.80465      1.11495        -0.000000     -0.000000     -0.000000
      3.34485      1.11495      3.34485        -0.000000     -0.000000     -0.000000
      5.57475      7.80465      3.34485        -0.000000     -0.000000     -0.000000
      1.11495      1.11495      1.11495        -0.000000     -0.000000     -0.000000
      2.22990      6.68970      2.22990        -0.000000     -0.000000     -0.000000
      0.00000     -0.00000      4.45980        -0.000000     -0.000000     -0.000000
      7.80465      3.34485      5.57475        -0.000000     -0.000000     -0.000000
      3.34485      5.57475      7.80465        -0.000000     -0.000000     -0.000000
      5.57475      3.34485      7.80465        -0.000000     -0.000000     -0.000000
      1.11495      5.57475      5.57475        -0.000000     -0.000000     -0.000000
      2.22990      2.22990      6.68970        -0.000000     -0.000000     -0.000000
      0.00000      4.45980      0.00000        -0.000000     -0.000000     -0.000000
      3.34485      7.80465      5.57475        -0.000000     -0.000000     -0.000000
      7.80465      1.11495      7.80465        -0.000000     -0.000000     -0.000000
      1.11495      7.80465      7.80465        -0.000000     -0.000000     -0.000000
      5.57475      1.11495      5.57475        -0.000000     -0.000000     -0.000000
      6.68970      6.68970      6.68970        -0.000000     -0.000000     -0.000000
      4.45980      0.00000      0.00000        -0.000000     -0.000000     -0.000000
      3.34485      3.34485      1.11495        -0.000000     -0.000000     -0.000000
      7.80465      5.57475      3.34485        -0.000000     -0.000000     -0.000000
      1.11495      3.34485      3.34485        -0.000000     -0.000000     -0.000000
      5.57475      5.57475      1.11495        -0.000000     -0.000000     -0.000000
      6.68970      2.22990      2.22990        -0.000000     -0.000000     -0.000000
      4.45980      4.45980      4.45980        -0.000000     -0.000000     -0.000000
      3.35106      3.35106      3.35106        -0.000322     -0.000322     -0.000322
      7.79843      1.12116      1.12116         0.000322     -0.000322     -0.000322
      5.58096      1.12116      3.33864        -0.000322     -0.000322      0.000322
      1.12116      7.79843      1.12116        -0.000322      0.000322     -0.000322
      1.10874      1.10874      3.35106         0.000322      0.000322     -0.000322
      1.10874      3.35106      1.10874         0.000322     -0.000322      0.000322
      3.33864      7.79843      3.33864         0.000322      0.000322      0.000322
      3.35106      1.10874      1.10874        -0.000322      0.000322      0.000322
      3.35106      7.81086      7.81086        -0.000322     -0.000322     -0.000322
      7.79843      5.58096      5.58096         0.000322     -0.000322     -0.000322
      5.58096      5.58096      7.79843        -0.000322     -0.000322      0.000322
      1.12116      3.33864      5.58096        -0.000322      0.000322     -0.000322
      1.10874      5.56853      7.81086         0.000322      0.000322     -0.000322
      1.10874      7.81086      5.56853         0.000322     -0.000322      0.000322
      3.33864      3.33864      7.79843         0.000322      0.000322      0.000322
      3.35106      5.56853      5.56853        -0.000322      0.000322      0.000322
      7.81086      3.35106      7.81086        -0.000322     -0.000322     -0.000322
      3.33864      1.12116      5.58096         0.000322     -0.000322     -0.000322
      1.12116      1.12116      7.79843        -0.000322     -0.000322      0.000322
      5.58096      7.79843      5.58096        -0.000322      0.000322     -0.000322
      5.56853      1.10874      7.81086         0.000322      0.000322     -0.000322
      5.56853      3.35106      5.56853         0.000322     -0.000322      0.000322
      7.79843      7.79843      7.79843         0.000322      0.000322      0.000322
      7.81086      1.10874      5.56853        -0.000322      0.000322      0.000322
      7.81086      7.81086      3.35106        -0.000322     -0.000322     -0.000322
      3.33864      5.58096      1.12116         0.000322     -0.000322     -0.000322
      1.12116      5.58096      3.33864        -0.000322     -0.000322      0.000322
      5.58096      3.33864      1.12116        -0.000322      0.000322     -0.000322
      5.56853      5.56853      3.35106         0.000322      0.000322     -0.000322
      5.56853      7.81086      1.10874         0.000322     -0.000322      0.000322
      7.79843      3.33864      3.33864         0.000322      0.000322      0.000322
      7.81086      5.56853      1.10874        -0.000322      0.000322      0.000322
 -----------------------------------------------------------------------------------
    total drift:                                0.000000     -0.000000     -0.000000


--------------------------------------------------------------------------------------------------------



  FREE ENERGIE OF THE ION-ELECTRON SYSTEM (eV)
  ---------------------------------------------------
  free  energy   TOTEN  =      -328.90014637 eV

  energy  without entropy=     -328.89304180  energy(sigma->0) =     -328.89837023
 
 d Force = 0.1096073E-02[-0.301E-04, 0.222E-02]  d Energy = 0.9997826E-03 0.963E-04
 d Force = 0.3751404E+00[ 0.365E+00, 0.386E+00]  d Ewald  = 0.3751429E+00-0.247E-05


--------------------------------------------------------------------------------------------------------


    POTLOK:  cpu time    0.0935: real time    0.0936


--------------------------------------------------------------------------------------------------------




--------------------------------------------------------------------------------------------------------


  
 reached required accuracy - stopping structural energy minimisation
     LOOP+:  cpu time   63.2935: real time   66.7138
    4ORBIT:  cpu time    0.0000: real time    0.0000

 total amount of memory used by VASP MPI-rank0    75803. kBytes
=======================================================================

   base      :      30000. kBytes
   nonlr-proj:      10709. kBytes
   fftplans  :       5458. kBytes
   grid      :       8702. kBytes
   one-center:         43. kBytes
   wavefun   :      20891. kBytes
 
  
  
 General timing and accounting informations for this job:
 ========================================================
  
                  Total CPU time used (sec):      311.482
                            User time (sec):      310.085
                          System time (sec):        1.397
                         Elapsed time (sec):      326.778
  
                   Maximum memory used (kb):      104536.
                   Average memory used (kb):           0.
  
                          Minor page faults:       111954
                          Major page faults:            5
                 Voluntary context switches:         7191
