<?xml version="1.0" encoding="ISO-8859-1"?>
<modeling>
 <generator>
  <i name="program" type="string">vasp </i>
  <i name="version" type="string">5.4.4.18Apr17-6-g9f103f2a35  </i>
  <i name="subversion" type="string">(build Nov 01 2019 12:17:22) complex            parallel </i>
  <i name="platform" type="string">LinuxIFC </i>
  <i name="date" type="string">2023 05 19 </i>
  <i name="time" type="string">18:21:57 </i>
 </generator>
 <incar>
  <i type="string" name="PREC">accurate</i>
  <i type="string" name="ALGO"> Fast</i>
  <i type="int" name="IBRION">     2</i>
  <i type="int" name="NSW">   100</i>
  <i type="int" name="ISIF">     2</i>
  <i type="string" name="LREAL"> Auto</i>
  <i type="int" name="ISMEAR">     2</i>
  <i name="SIGMA">      0.10000000</i>
  <i type="logical" name="LWAVE"> F  </i>
  <i type="logical" name="LCHARG"> F  </i>
  <v type="int" name="KPOINT_BSE">    -1     0     0     0</v>
 </incar>
 <structure name="primitive_cell" >
  <crystal>
   <varray name="basis" >
    <v>       4.45979720       4.45979720       0.00000000 </v>
    <v>       4.45979720       0.00000000      -4.45979720 </v>
    <v>       0.00000000       4.45979720      -4.45979720 </v>
   </varray>
   <i name="volume">    177.40886855 </i>
   <varray name="rec_basis" >
    <v>       0.11211272       0.11211272       0.11211272 </v>
    <v>       0.11211272      -0.11211272      -0.11211272 </v>
    <v>      -0.11211272       0.11211272      -0.11211272 </v>
   </varray>
  </crystal>
  <varray name="positions" >
   <v>      -0.12500000      -0.12500000      -0.12500000 </v>
   <v>       0.12630293      -0.37890880       0.12630293 </v>
   <v>       0.12630293       0.12630293      -0.37890880 </v>
   <v>      -0.37890880       0.12630293       0.12630293 </v>
   <v>       0.12890880      -0.37630293      -0.37630293 </v>
   <v>      -0.37630293      -0.37630293       0.12890880 </v>
   <v>      -0.37630293       0.12890880      -0.37630293 </v>
   <v>      -0.12500000       0.37500000      -0.12500000 </v>
   <v>      -0.12500000      -0.12500000       0.37500000 </v>
   <v>       0.37500000      -0.12500000      -0.12500000 </v>
   <v>      -0.50000000      -0.50000000      -0.50000000 </v>
   <v>       0.25000000       0.25000000       0.25000000 </v>
   <v>       0.12630293       0.12630293       0.12630293 </v>
   <v>      -0.37630293      -0.37630293      -0.37630293 </v>
  </varray>
 </structure>
 <varray name="primitive_index" >
  <v type="int" >        1 </v>
  <v type="int" >       26 </v>
  <v type="int" >       28 </v>
  <v type="int" >       47 </v>
  <v type="int" >       49 </v>
  <v type="int" >       54 </v>
  <v type="int" >       56 </v>
  <v type="int" >        3 </v>
  <v type="int" >       14 </v>
  <v type="int" >        4 </v>
  <v type="int" >       12 </v>
  <v type="int" >       23 </v>
  <v type="int" >       27 </v>
  <v type="int" >       37 </v>
 </varray>
 <kpoints>
  <generation param="Auto">
   <i name="subdivisionlength">     45.00000000 </i>
   <v type="int" name="divisions">       5        5        5 </v>
   <v name="usershift">      0.00000000       0.00000000       0.00000000 </v>
   <v name="genvec1">      0.20000000      -0.00000000       0.00000000 </v>
   <v name="genvec2">     -0.00000000       0.20000000       0.00000000 </v>
   <v name="genvec3">      0.00000000      -0.00000000       0.20000000 </v>
   <v name="shift">      0.00000000       0.00000000       0.00000000 </v>
  </generation>
  <varray name="kpointlist" >
   <v>       0.00000000       0.00000000       0.00000000 </v>
   <v>       0.20000000       0.00000000       0.00000000 </v>
   <v>       0.40000000       0.00000000       0.00000000 </v>
   <v>       0.20000000       0.20000000       0.00000000 </v>
   <v>       0.40000000       0.20000000       0.00000000 </v>
   <v>       0.40000000       0.40000000       0.00000000 </v>
   <v>       0.20000000       0.20000000       0.20000000 </v>
   <v>       0.40000000       0.20000000       0.20000000 </v>
   <v>       0.40000000       0.40000000       0.20000000 </v>
   <v>       0.40000000       0.40000000       0.40000000 </v>
  </varray>
  <varray name="weights" >
   <v>       0.00800000 </v>
   <v>       0.04800000 </v>
   <v>       0.04800000 </v>
   <v>       0.09600000 </v>
   <v>       0.19200000 </v>
   <v>       0.09600000 </v>
   <v>       0.06400000 </v>
   <v>       0.19200000 </v>
   <v>       0.19200000 </v>
   <v>       0.06400000 </v>
  </varray>
 </kpoints>
 <parameters>
  <separator name="general" >
   <i type="string" name="SYSTEM">unknown system</i>
   <i type="logical" name="LCOMPAT"> F  </i>
  </separator>
  <separator name="electronic" >
   <i type="string" name="PREC">accura</i>
   <i name="ENMAX">    400.00000000</i>
   <i name="ENAUG">    627.11200000</i>
   <i name="EDIFF">      0.00010000</i>
   <i type="int" name="IALGO">    68</i>
   <i type="int" name="IWAVPR">    11</i>
   <i type="int" name="NBANDS">   156</i>
   <i name="NELECT">    248.00000000</i>
   <i type="int" name="TURBO">     0</i>
   <i type="int" name="IRESTART">     0</i>
   <i type="int" name="NREBOOT">     0</i>
   <i type="int" name="NMIN">     0</i>
   <i name="EREF">      0.00000000</i>
   <separator name="electronic smearing" >
    <i type="int" name="ISMEAR">     2</i>
    <i name="SIGMA">      0.10000000</i>
    <i name="KSPACING">      0.50000000</i>
    <i type="logical" name="KGAMMA"> T  </i>
   </separator>
   <separator name="electronic projectors" >
    <i type="logical" name="LREAL"> T  </i>
    <v name="ROPT">     -0.00025000     -0.00025000</v>
    <i type="int" name="LMAXPAW">  -100</i>
    <i type="int" name="LMAXMIX">     2</i>
    <i type="logical" name="NLSPLINE"> F  </i>
   </separator>
   <separator name="electronic startup" >
    <i type="int" name="ISTART">     0</i>
    <i type="int" name="ICHARG">     2</i>
    <i type="int" name="INIWAV">     1</i>
   </separator>
   <separator name="electronic spin" >
    <i type="int" name="ISPIN">     1</i>
    <i type="logical" name="LNONCOLLINEAR"> F  </i>
    <v name="MAGMOM">      1.00000000      1.00000000      1.00000000      1.00000000      1.00000000      1.00000000      1.00000000      1.00000000      1.00000000      1.00000000      1.00000000      1.00000000      1.00000000      1.00000000      1.00000000      1.00000000      1.00000000      1.00000000      1.00000000      1.00000000
      1.00000000      1.00000000      1.00000000      1.00000000      1.00000000      1.00000000      1.00000000      1.00000000      1.00000000      1.00000000      1.00000000      1.00000000      1.00000000      1.00000000      1.00000000      1.00000000      1.00000000      1.00000000      1.00000000      1.00000000
      1.00000000      1.00000000      1.00000000      1.00000000      1.00000000      1.00000000      1.00000000      1.00000000      1.00000000      1.00000000      1.00000000      1.00000000      1.00000000      1.00000000      1.00000000      1.00000000</v>
    <i name="NUPDOWN">     -1.00000000</i>
    <i type="logical" name="LSORBIT"> F  </i>
    <v name="SAXIS">      0.00000000      0.00000000      1.00000000</v>
    <i type="logical" name="LSPIRAL"> F  </i>
    <v name="QSPIRAL">      0.00000000      0.00000000      0.00000000</v>
    <i type="logical" name="LZEROZ"> F  </i>
   </separator>
   <separator name="electronic exchange-correlation" >
    <i type="logical" name="LASPH"> F  </i>
    <i type="logical" name="LMETAGGA"> F  </i>
   </separator>
   <separator name="electronic convergence" >
    <i type="int" name="NELM">    60</i>
    <i type="int" name="NELMDL">    -5</i>
    <i type="int" name="NELMIN">     2</i>
    <i name="ENINI">    400.00000000</i>
    <separator name="electronic convergence detail" >
     <i type="logical" name="LDIAG"> T  </i>
     <i type="logical" name="LSUBROT"> F  </i>
     <i name="WEIMIN">      0.00100000</i>
     <i name="EBREAK">      0.00000016</i>
     <i name="DEPER">      0.30000000</i>
     <i type="int" name="NRMM">     4</i>
     <i name="TIME">      0.40000000</i>
    </separator>
   </separator>
   <separator name="electronic mixer" >
    <i name="AMIX">      0.40000000</i>
    <i name="BMIX">      1.00000000</i>
    <i name="AMIN">      0.10000000</i>
    <i name="AMIX_MAG">      1.60000000</i>
    <i name="BMIX_MAG">      1.00000000</i>
    <separator name="electronic mixer details" >
     <i type="int" name="IMIX">     4</i>
     <i type="logical" name="MIXFIRST"> F  </i>
     <i type="int" name="MAXMIX">   -45</i>
     <i name="WC">    100.00000000</i>
     <i type="int" name="INIMIX">     1</i>
     <i type="int" name="MIXPRE">     1</i>
     <i type="int" name="MREMOVE">     5</i>
    </separator>
   </separator>
   <separator name="electronic dipolcorrection" >
    <i type="logical" name="LDIPOL"> F  </i>
    <i type="logical" name="LMONO"> F  </i>
    <i type="int" name="IDIPOL">     0</i>
    <i name="EPSILON">      1.00000000</i>
    <v name="DIPOL">   -100.00000000   -100.00000000   -100.00000000</v>
    <i name="EFIELD">      0.00000000</i>
   </separator>
  </separator>
  <separator name="grids" >
   <i type="int" name="NGX">    60</i>
   <i type="int" name="NGY">    60</i>
   <i type="int" name="NGZ">    60</i>
   <i type="int" name="NGXF">   120</i>
   <i type="int" name="NGYF">   120</i>
   <i type="int" name="NGZF">   120</i>
   <i type="logical" name="ADDGRID"> F  </i>
  </separator>
  <separator name="ionic" >
   <i type="int" name="NSW">   100</i>
   <i type="int" name="IBRION">     2</i>
   <i type="int" name="MDALGO">     0</i>
   <i type="int" name="ISIF">     2</i>
   <i name="PSTRESS">      0.00000000</i>
   <i name="EDIFFG">      0.00100000</i>
   <i type="int" name="NFREE">     1</i>
   <i name="POTIM">      0.50000000</i>
   <i name="SMASS">     -3.00000000</i>
   <i name="SCALEE">      1.00000000</i>
  </separator>
  <separator name="ionic md" >
   <i name="TEBEG">      0.00010000</i>
   <i name="TEEND">      0.00010000</i>
   <i type="int" name="NBLOCK">     1</i>
   <i type="int" name="KBLOCK">   100</i>
   <i type="int" name="NPACO">   256</i>
   <i name="APACO">     16.00000000</i>
  </separator>
  <separator name="symmetry" >
   <i type="int" name="ISYM">     2</i>
   <i name="SYMPREC">      0.00001000</i>
  </separator>
  <separator name="dos" >
   <i type="int" name="LORBIT">     0</i>
   <v name="RWIGS">     -1.00000000     -1.00000000</v>
   <i type="int" name="NEDOS">   301</i>
   <i name="EMIN">     10.00000000</i>
   <i name="EMAX">    -10.00000000</i>
   <i name="EFERMI">      0.00000000</i>
  </separator>
  <separator name="writing" >
   <i type="int" name="NWRITE">     2</i>
   <i type="logical" name="LWAVE"> F  </i>
   <i type="logical" name="LDOWNSAMPLE"> F  </i>
   <i type="logical" name="LCHARG"> F  </i>
   <i type="logical" name="LPARD"> F  </i>
   <i type="logical" name="LVTOT"> F  </i>
   <i type="logical" name="LVHAR"> F  </i>
   <i type="logical" name="LELF"> F  </i>
   <i type="logical" name="LOPTICS"> F  </i>
   <v name="STM">      0.00000000      0.00000000      0.00000000      0.00000000      0.00000000      0.00000000      0.00000000</v>
  </separator>
  <separator name="performance" >
   <i type="int" name="NPAR">     4</i>
   <i type="int" name="NSIM">     4</i>
   <i type="int" name="NBLK">    -1</i>
   <i type="logical" name="LPLANE"> T  </i>
   <i type="logical" name="LSCALAPACK"> F  </i>
   <i type="logical" name="LSCAAWARE"> F  </i>
   <i type="logical" name="LSCALU"> F  </i>
   <i type="logical" name="LASYNC"> F  </i>
   <i type="logical" name="LORBITALREAL"> F  </i>
  </separator>
  <separator name="miscellaneous" >
   <i type="int" name="IDIOT">     3</i>
   <i type="int" name="ISPECIAL">     0</i>
   <i type="logical" name="LMUSIC"> F  </i>
   <v name="POMASS">     14.00100000     28.08500000</v>
   <v name="DARWINR">      0.00000000      0.00000000</v>
   <v name="DARWINV">      1.00000000      1.00000000</v>
   <i type="logical" name="LCORR"> T  </i>
  </separator>
  <i type="logical" name="GGA_COMPAT"> T  </i>
  <i type="logical" name="LBERRY"> F  </i>
  <i type="int" name="ICORELEVEL">     0</i>
  <i type="logical" name="LDAU"> F  </i>
  <i type="int" name="I_CONSTRAINED_M">     0</i>
  <separator name="electronic exchange-correlation" >
   <i type="string" name="GGA">--</i>
   <i type="int" name="VOSKOWN">     0</i>
   <i type="logical" name="LHFCALC"> F  </i>
   <i type="string" name="PRECFOCK"></i>
   <i type="logical" name="LSYMGRAD"> F  </i>
   <i type="logical" name="LHFONE"> F  </i>
   <i type="logical" name="LRHFCALC"> F  </i>
   <i type="logical" name="LTHOMAS"> F  </i>
   <i type="logical" name="LMODELHF"> F  </i>
   <i name="ENCUT4O">     -1.00000000</i>
   <i type="int" name="EXXOEP">     0</i>
   <i type="int" name="FOURORBIT">     0</i>
   <i name="AEXX">      0.00000000</i>
   <i name="HFALPHA">      0.00000000</i>
   <i name="MCALPHA">      0.00000000</i>
   <i name="ALDAX">      1.00000000</i>
   <i name="AGGAX">      1.00000000</i>
   <i name="ALDAC">      1.00000000</i>
   <i name="AGGAC">      1.00000000</i>
   <i type="int" name="NKREDX">     1</i>
   <i type="int" name="NKREDY">     1</i>
   <i type="int" name="NKREDZ">     1</i>
   <i type="logical" name="SHIFTRED"> F  </i>
   <i type="logical" name="ODDONLY"> F  </i>
   <i type="logical" name="EVENONLY"> F  </i>
   <i type="int" name="LMAXFOCK">     0</i>
   <i type="int" name="NMAXFOCKAE">     0</i>
   <i type="logical" name="LFOCKAEDFT"> F  </i>
   <i name="HFSCREEN">      0.00000000</i>
   <i name="HFSCREENC">      0.00000000</i>
   <i type="int" name="NBANDSGWLOW">     0</i>
  </separator>
  <separator name="vdW DFT" >
   <i type="logical" name="LUSE_VDW"> F  </i>
   <i name="Zab_VDW">     -0.84910000</i>
   <i name="PARAM1">      0.12340000</i>
   <i name="PARAM2">      1.00000000</i>
   <i name="PARAM3">      0.00000000</i>
  </separator>
  <separator name="model GW" >
   <i type="int" name="MODEL_GW">     0</i>
   <i name="MODEL_EPS0">      7.60323722</i>
   <i name="MODEL_ALPHA">      1.00000000</i>
  </separator>
  <separator name="linear response parameters" >
   <i type="logical" name="LEPSILON"> F  </i>
   <i type="logical" name="LRPA"> F  </i>
   <i type="logical" name="LNABLA"> F  </i>
   <i type="logical" name="LVEL"> F  </i>
   <i type="int" name="KINTER">     0</i>
   <i name="CSHIFT">      0.10000000</i>
   <i name="OMEGAMAX">     -1.00000000</i>
   <i name="DEG_THRESHOLD">      0.00200000</i>
   <i name="RTIME">     -0.10000000</i>
   <i name="WPLASMAI">      0.00000000</i>
   <v name="DFIELD">      0.00000000      0.00000000      0.00000000</v>
   <v name="WPLASMA">      0.00000000      0.00000000      0.00000000      0.00000000      0.00000000      0.00000000      0.00000000      0.00000000      0.00000000</v>
  </separator>
  <separator name="orbital magnetization" >
   <i type="logical" name="NUCIND"> F  </i>
   <v name="MAGPOS">      0.00000000      0.00000000      0.00000000</v>
   <i type="logical" name="LNICSALL"> T  </i>
   <i type="logical" name="ORBITALMAG"> F  </i>
   <i type="logical" name="LMAGBLOCH"> F  </i>
   <i type="logical" name="LCHIMAG"> F  </i>
   <i type="logical" name="LGAUGE"> T  </i>
   <i type="int" name="MAGATOM">     0</i>
   <v name="MAGDIPOL">      0.00000000      0.00000000      0.00000000</v>
   <v name="AVECCONST">      0.00000000      0.00000000      0.00000000</v>
  </separator>
  <separator name="response functions" >
   <i type="logical" name="LADDER"> F  </i>
   <i type="logical" name="LRPAFORCE"> F  </i>
   <i type="logical" name="LFXC"> F  </i>
   <i type="logical" name="LHARTREE"> T  </i>
   <i type="int" name="IBSE">     0</i>
   <v type="int" name="KPOINT">    -1     0     0     0</v>
   <i type="logical" name="LTCTE"> F  </i>
   <i type="logical" name="LTETE"> F  </i>
   <i type="logical" name="LTRIPLET"> F  </i>
   <i type="logical" name="LFXCEPS"> F  </i>
   <i type="logical" name="LFXHEG"> F  </i>
   <i type="int" name="NATURALO">     2</i>
   <i type="logical" name="L2ORDER"> F  </i>
   <i type="logical" name="LMP2LT"> F  </i>
   <i type="logical" name="LUSEW"> F  </i>
   <i name="ENCUTGW">     -2.00000000</i>
   <i name="ENCUTGWSOFT">     -2.00000000</i>
   <i name="ENCUTLF">     -1.00000000</i>
   <i type="int" name="LMAXMP2">    -1</i>
   <i name="SCISSOR">      0.00000000</i>
   <i type="int" name="NOMEGA">     0</i>
   <i type="int" name="NOMEGAR">     0</i>
   <i type="int" name="NBANDSGW">    -1</i>
   <i type="int" name="NBANDSO">    -1</i>
   <i type="int" name="NBANDSV">    -1</i>
   <i type="int" name="NELM">     1</i>
   <i type="int" name="NELMHF">     1</i>
   <i type="int" name="DIM">     3</i>
   <i type="int" name="ANTIRES">     0</i>
   <i name="OMEGAMAX">    -30.00000000</i>
   <i name="OMEGAMIN">    -30.00000000</i>
   <i name="OMEGATL">   -200.00000000</i>
   <i type="int" name="OMEGAGRID">   140</i>
   <i name="CSHIFT">     -0.10000000</i>
   <i type="logical" name="SELFENERGY"> F  </i>
   <i type="logical" name="LSPECTRAL"> F  </i>
   <i type="logical" name="LSPECTRALGW"> F  </i>
   <i type="logical" name="LSINGLES"> F  </i>
   <i type="logical" name="LFERMIGW"> F  </i>
   <i type="logical" name="ODDONLYGW"> F  </i>
   <i type="logical" name="EVENONLYGW"> F  </i>
   <i type="int" name="NKREDLFX">     1</i>
   <i type="int" name="NKREDLFY">     1</i>
   <i type="int" name="NKREDLFZ">     1</i>
   <i type="int" name="MAXMEM">  2800</i>
   <i type="int" name="TELESCOPE">     0</i>
   <i type="int" name="TAUPAR">     1</i>
   <i type="int" name="OMEGAPAR">    -1</i>
   <i name="LAMBDA">      1.00000000</i>
  </separator>
  <separator name="External order field" >
   <i name="OFIELD_KAPPA">      0.00000000</i>
   <v name="OFIELD_K">      0.00000000      0.00000000      0.00000000</v>
   <i name="OFIELD_Q6_NEAR">      0.00000000</i>
   <i name="OFIELD_Q6_FAR">      0.00000000</i>
   <i name="OFIELD_A">      0.00000000</i>
  </separator>
 </parameters>
 <atominfo>
  <atoms>      56 </atoms>
  <types>       2 </types>
  <array name="atoms" >
   <dimension dim="1">ion</dimension>
   <field type="string">element</field>
   <field type="int">atomtype</field>
   <set>
    <rc><c>N </c><c>   1</c></rc>
    <rc><c>N </c><c>   1</c></rc>
    <rc><c>N </c><c>   1</c></rc>
    <rc><c>N </c><c>   1</c></rc>
    <rc><c>N </c><c>   1</c></rc>
    <rc><c>N </c><c>   1</c></rc>
    <rc><c>N </c><c>   1</c></rc>
    <rc><c>N </c><c>   1</c></rc>
    <rc><c>N </c><c>   1</c></rc>
    <rc><c>N </c><c>   1</c></rc>
    <rc><c>N </c><c>   1</c></rc>
    <rc><c>N </c><c>   1</c></rc>
    <rc><c>N </c><c>   1</c></rc>
    <rc><c>N </c><c>   1</c></rc>
    <rc><c>N </c><c>   1</c></rc>
    <rc><c>N </c><c>   1</c></rc>
    <rc><c>N </c><c>   1</c></rc>
    <rc><c>N </c><c>   1</c></rc>
    <rc><c>N </c><c>   1</c></rc>
    <rc><c>N </c><c>   1</c></rc>
    <rc><c>N </c><c>   1</c></rc>
    <rc><c>N </c><c>   1</c></rc>
    <rc><c>N </c><c>   1</c></rc>
    <rc><c>N </c><c>   1</c></rc>
    <rc><c>Si</c><c>   2</c></rc>
    <rc><c>Si</c><c>   2</c></rc>
    <rc><c>Si</c><c>   2</c></rc>
    <rc><c>Si</c><c>   2</c></rc>
    <rc><c>Si</c><c>   2</c></rc>
    <rc><c>Si</c><c>   2</c></rc>
    <rc><c>Si</c><c>   2</c></rc>
    <rc><c>Si</c><c>   2</c></rc>
    <rc><c>Si</c><c>   2</c></rc>
    <rc><c>Si</c><c>   2</c></rc>
    <rc><c>Si</c><c>   2</c></rc>
    <rc><c>Si</c><c>   2</c></rc>
    <rc><c>Si</c><c>   2</c></rc>
    <rc><c>Si</c><c>   2</c></rc>
    <rc><c>Si</c><c>   2</c></rc>
    <rc><c>Si</c><c>   2</c></rc>
    <rc><c>Si</c><c>   2</c></rc>
    <rc><c>Si</c><c>   2</c></rc>
    <rc><c>Si</c><c>   2</c></rc>
    <rc><c>Si</c><c>   2</c></rc>
    <rc><c>Si</c><c>   2</c></rc>
    <rc><c>Si</c><c>   2</c></rc>
    <rc><c>Si</c><c>   2</c></rc>
    <rc><c>Si</c><c>   2</c></rc>
    <rc><c>Si</c><c>   2</c></rc>
    <rc><c>Si</c><c>   2</c></rc>
    <rc><c>Si</c><c>   2</c></rc>
    <rc><c>Si</c><c>   2</c></rc>
    <rc><c>Si</c><c>   2</c></rc>
    <rc><c>Si</c><c>   2</c></rc>
    <rc><c>Si</c><c>   2</c></rc>
    <rc><c>Si</c><c>   2</c></rc>
   </set>
  </array>
  <array name="atomtypes" >
   <dimension dim="1">type</dimension>
   <field type="int">atomspertype</field>
   <field type="string">element</field>
   <field>mass</field>
   <field>valence</field>
   <field type="string">pseudopotential</field>
   <set>
    <rc><c>  24</c><c>N </c><c>     14.00100000</c><c>      5.00000000</c><c>  PAW_PBE N 08Apr2002                   </c></rc>
    <rc><c>  32</c><c>Si</c><c>     28.08500000</c><c>      4.00000000</c><c>  PAW_PBE Si 05Jan2001                  </c></rc>
   </set>
  </array>
 </atominfo>
 <structure name="initialpos" >
  <crystal>
   <varray name="basis" >
    <v>       8.91959439       0.00000000       0.00000000 </v>
    <v>       0.00000000       8.91959439       0.00000000 </v>
    <v>       0.00000000       0.00000000       8.91959439 </v>
   </varray>
   <i name="volume">    709.63547421 </i>
   <varray name="rec_basis" >
    <v>       0.11211272      -0.00000000       0.00000000 </v>
    <v>      -0.00000000       0.11211272       0.00000000 </v>
    <v>      -0.00000000      -0.00000000       0.11211272 </v>
   </varray>
  </crystal>
  <varray name="positions" >
   <v>       0.87500000       0.87500000       0.12500000 </v>
   <v>       0.37500000       0.12500000       0.37500000 </v>
   <v>       0.62500000       0.87500000       0.37500000 </v>
   <v>       0.12500000       0.12500000       0.12500000 </v>
   <v>       0.25000000       0.75000000       0.25000000 </v>
   <v>       0.00000000       0.00000000       0.50000000 </v>
   <v>       0.87500000       0.37500000       0.62500000 </v>
   <v>       0.37500000       0.62500000       0.87500000 </v>
   <v>       0.62500000       0.37500000       0.87500000 </v>
   <v>       0.12500000       0.62500000       0.62500000 </v>
   <v>       0.25000000       0.25000000       0.75000000 </v>
   <v>       0.00000000       0.50000000       0.00000000 </v>
   <v>       0.37500000       0.87500000       0.62500000 </v>
   <v>       0.87500000       0.12500000       0.87500000 </v>
   <v>       0.12500000       0.87500000       0.87500000 </v>
   <v>       0.62500000       0.12500000       0.62500000 </v>
   <v>       0.75000000       0.75000000       0.75000000 </v>
   <v>       0.50000000       0.00000000       0.00000000 </v>
   <v>       0.37500000       0.37500000       0.12500000 </v>
   <v>       0.87500000       0.62500000       0.37500000 </v>
   <v>       0.12500000       0.37500000       0.37500000 </v>
   <v>       0.62500000       0.62500000       0.12500000 </v>
   <v>       0.75000000       0.25000000       0.25000000 </v>
   <v>       0.50000000       0.50000000       0.50000000 </v>
   <v>       0.37630293       0.37630293       0.37630293 </v>
   <v>       0.87369707       0.12630293       0.12630293 </v>
   <v>       0.62630293       0.12630293       0.37369707 </v>
   <v>       0.12630293       0.87369707       0.12630293 </v>
   <v>       0.12369707       0.12369707       0.37630293 </v>
   <v>       0.12369707       0.37630293       0.12369707 </v>
   <v>       0.37369707       0.87369707       0.37369707 </v>
   <v>       0.37630293       0.12369707       0.12369707 </v>
   <v>       0.37630293       0.87630293       0.87630293 </v>
   <v>       0.87369707       0.62630293       0.62630293 </v>
   <v>       0.62630293       0.62630293       0.87369707 </v>
   <v>       0.12630293       0.37369707       0.62630293 </v>
   <v>       0.12369707       0.62369707       0.87630293 </v>
   <v>       0.12369707       0.87630293       0.62369707 </v>
   <v>       0.37369707       0.37369707       0.87369707 </v>
   <v>       0.37630293       0.62369707       0.62369707 </v>
   <v>       0.87630293       0.37630293       0.87630293 </v>
   <v>       0.37369707       0.12630293       0.62630293 </v>
   <v>       0.12630293       0.12630293       0.87369707 </v>
   <v>       0.62630293       0.87369707       0.62630293 </v>
   <v>       0.62369707       0.12369707       0.87630293 </v>
   <v>       0.62369707       0.37630293       0.62369707 </v>
   <v>       0.87369707       0.87369707       0.87369707 </v>
   <v>       0.87630293       0.12369707       0.62369707 </v>
   <v>       0.87630293       0.87630293       0.37630293 </v>
   <v>       0.37369707       0.62630293       0.12630293 </v>
   <v>       0.12630293       0.62630293       0.37369707 </v>
   <v>       0.62630293       0.37369707       0.12630293 </v>
   <v>       0.62369707       0.62369707       0.37630293 </v>
   <v>       0.62369707       0.87630293       0.12369707 </v>
   <v>       0.87369707       0.37369707       0.37369707 </v>
   <v>       0.87630293       0.62369707       0.12369707 </v>
  </varray>
 </structure>
 <calculation>
  <scstep>
   <time name="dav">   41.40   44.59</time>
   <time name="total">   42.06   45.52</time>
   <energy>
    <i name="alphaZ">    274.85726572 </i>
    <i name="ewald">  -9325.61592287 </i>
    <i name="hartreedc">  -1606.55511877 </i>
    <i name="XCdc">    178.40117093 </i>
    <i name="pawpsdc">   7738.34714636 </i>
    <i name="pawaedc">  -7203.94574617 </i>
    <i name="eentropy">      0.00227058 </i>
    <i name="bandstr">   1162.20857764 </i>
    <i name="atom">   9645.50393724 </i>
    <i name="e_fr_energy">    863.20358066 </i>
    <i name="e_wo_entrp">    863.20131009 </i>
    <i name="e_0_energy">    863.20301302 </i>
   </energy>
  </scstep>
  <scstep>
   <time name="dav">    9.96    9.98</time>
   <time name="total">    9.96    9.98</time>
   <energy>
    <i name="e_fr_energy">   -237.95189123 </i>
    <i name="e_wo_entrp">   -237.94401994 </i>
    <i name="e_0_energy">   -237.94992341 </i>
   </energy>
  </scstep>
  <scstep>
   <time name="dav">   10.03   10.05</time>
   <time name="total">   10.04   10.05</time>
   <energy>
    <i name="e_fr_energy">   -350.42808315 </i>
    <i name="e_wo_entrp">   -350.43133042 </i>
    <i name="e_0_energy">   -350.42889497 </i>
   </energy>
  </scstep>
  <scstep>
   <time name="dav">   10.23   10.25</time>
   <time name="total">   10.23   10.25</time>
   <energy>
    <i name="e_fr_energy">   -354.84748420 </i>
    <i name="e_wo_entrp">   -354.84242382 </i>
    <i name="e_0_energy">   -354.84621911 </i>
   </energy>
  </scstep>
  <scstep>
   <time name="dav">   10.00   10.04</time>
   <time name="total">   10.40   10.44</time>
   <energy>
    <i name="e_fr_energy">   -354.97933913 </i>
    <i name="e_wo_entrp">   -354.97355923 </i>
    <i name="e_0_energy">   -354.97789416 </i>
   </energy>
  </scstep>
  <scstep>
   <time name="diag">    1.03    1.03</time>
   <time name="diis">    5.27    5.27</time>
   <time name="orth">    0.13    0.13</time>
   <time name="total">    6.89    6.92</time>
   <energy>
    <i name="e_fr_energy">   -330.68192066 </i>
    <i name="e_wo_entrp">   -330.68450229 </i>
    <i name="e_0_energy">   -330.68256607 </i>
   </energy>
  </scstep>
  <scstep>
   <time name="diag">    1.02    1.02</time>
   <time name="diis">    5.47    5.48</time>
   <time name="orth">    0.12    0.13</time>
   <time name="total">    7.09    7.12</time>
   <energy>
    <i name="e_fr_energy">   -329.22466837 </i>
    <i name="e_wo_entrp">   -329.22266498 </i>
    <i name="e_0_energy">   -329.22416752 </i>
   </energy>
  </scstep>
  <scstep>
   <time name="diag">    1.53    1.54</time>
   <time name="diis">    5.28    5.29</time>
   <time name="orth">    0.13    0.13</time>
   <time name="total">    7.43    7.55</time>
   <energy>
    <i name="e_fr_energy">   -329.11575231 </i>
    <i name="e_wo_entrp">   -329.10690598 </i>
    <i name="e_0_energy">   -329.11354073 </i>
   </energy>
  </scstep>
  <scstep>
   <time name="diag">    1.05    1.05</time>
   <time name="diis">    5.23    5.23</time>
   <time name="orth">    0.12    0.12</time>
   <time name="total">    6.89    6.91</time>
   <energy>
    <i name="e_fr_energy">   -328.86146541 </i>
    <i name="e_wo_entrp">   -328.85602006 </i>
    <i name="e_0_energy">   -328.86010407 </i>
   </energy>
  </scstep>
  <scstep>
   <time name="diag">    1.02    1.02</time>
   <time name="diis">    5.68    5.68</time>
   <time name="orth">    0.12    0.12</time>
   <time name="total">    7.30    7.31</time>
   <energy>
    <i name="e_fr_energy">   -328.86823198 </i>
    <i name="e_wo_entrp">   -328.86336945 </i>
    <i name="e_0_energy">   -328.86701635 </i>
   </energy>
  </scstep>
  <scstep>
   <time name="diag">    1.02    1.02</time>
   <time name="diis">    5.25    5.26</time>
   <time name="orth">    0.12    0.12</time>
   <time name="total">    6.88    6.90</time>
   <energy>
    <i name="e_fr_energy">   -328.86569945 </i>
    <i name="e_wo_entrp">   -328.86039766 </i>
    <i name="e_0_energy">   -328.86437400 </i>
   </energy>
  </scstep>
  <scstep>
   <time name="diag">    1.02    1.02</time>
   <time name="diis">    5.38    5.38</time>
   <time name="orth">    0.13    0.13</time>
   <time name="total">    7.00    7.02</time>
   <energy>
    <i name="e_fr_energy">   -328.86577628 </i>
    <i name="e_wo_entrp">   -328.86058699 </i>
    <i name="e_0_energy">   -328.86447896 </i>
   </energy>
  </scstep>
  <scstep>
   <time name="diag">    1.02    1.02</time>
   <time name="diis">    3.52    3.52</time>
   <time name="orth">    0.13    0.13</time>
   <time name="total">    4.77    4.78</time>
   <energy>
    <i name="alphaZ">    274.85726572 </i>
    <i name="ewald">  -9325.61592287 </i>
    <i name="hartreedc">  -1832.67037618 </i>
    <i name="XCdc">    193.07910875 </i>
    <i name="pawpsdc">  17606.70436284 </i>
    <i name="pawaedc"> -17072.86216415 </i>
    <i name="eentropy">     -0.00522198 </i>
    <i name="bandstr">    182.14329958 </i>
    <i name="atom">   9645.50393724 </i>
    <i name="e_fr_energy">   -328.86571105 </i>
    <i name="e_wo_entrp">   -328.86048907 </i>
    <i name="e_0_energy">   -328.86440556 </i>
   </energy>
  </scstep>
  <structure>
   <crystal>
    <varray name="basis" >
     <v>       8.91959439       0.00000000       0.00000000 </v>
     <v>       0.00000000       8.91959439       0.00000000 </v>
     <v>       0.00000000       0.00000000       8.91959439 </v>
    </varray>
    <i name="volume">    709.63547421 </i>
    <varray name="rec_basis" >
     <v>       0.11211272      -0.00000000       0.00000000 </v>
     <v>      -0.00000000       0.11211272       0.00000000 </v>
     <v>      -0.00000000      -0.00000000       0.11211272 </v>
    </varray>
   </crystal>
   <varray name="positions" >
    <v>       0.87500000       0.87500000       0.12500000 </v>
    <v>       0.37500000       0.12500000       0.37500000 </v>
    <v>       0.62500000       0.87500000       0.37500000 </v>
    <v>       0.12500000       0.12500000       0.12500000 </v>
    <v>       0.25000000       0.75000000       0.25000000 </v>
    <v>       0.00000000       0.00000000       0.50000000 </v>
    <v>       0.87500000       0.37500000       0.62500000 </v>
    <v>       0.37500000       0.62500000       0.87500000 </v>
    <v>       0.62500000       0.37500000       0.87500000 </v>
    <v>       0.12500000       0.62500000       0.62500000 </v>
    <v>       0.25000000       0.25000000       0.75000000 </v>
    <v>       0.00000000       0.50000000       0.00000000 </v>
    <v>       0.37500000       0.87500000       0.62500000 </v>
    <v>       0.87500000       0.12500000       0.87500000 </v>
    <v>       0.12500000       0.87500000       0.87500000 </v>
    <v>       0.62500000       0.12500000       0.62500000 </v>
    <v>       0.75000000       0.75000000       0.75000000 </v>
    <v>       0.50000000       0.00000000       0.00000000 </v>
    <v>       0.37500000       0.37500000       0.12500000 </v>
    <v>       0.87500000       0.62500000       0.37500000 </v>
    <v>       0.12500000       0.37500000       0.37500000 </v>
    <v>       0.62500000       0.62500000       0.12500000 </v>
    <v>       0.75000000       0.25000000       0.25000000 </v>
    <v>       0.50000000       0.50000000       0.50000000 </v>
    <v>       0.37630293       0.37630293       0.37630293 </v>
    <v>       0.87369707       0.12630293       0.12630293 </v>
    <v>       0.62630293       0.12630293       0.37369707 </v>
    <v>       0.12630293       0.87369707       0.12630293 </v>
    <v>       0.12369707       0.12369707       0.37630293 </v>
    <v>       0.12369707       0.37630293       0.12369707 </v>
    <v>       0.37369707       0.87369707       0.37369707 </v>
    <v>       0.37630293       0.12369707       0.12369707 </v>
    <v>       0.37630293       0.87630293       0.87630293 </v>
    <v>       0.87369707       0.62630293       0.62630293 </v>
    <v>       0.62630293       0.62630293       0.87369707 </v>
    <v>       0.12630293       0.37369707       0.62630293 </v>
    <v>       0.12369707       0.62369707       0.87630293 </v>
    <v>       0.12369707       0.87630293       0.62369707 </v>
    <v>       0.37369707       0.37369707       0.87369707 </v>
    <v>       0.37630293       0.62369707       0.62369707 </v>
    <v>       0.87630293       0.37630293       0.87630293 </v>
    <v>       0.37369707       0.12630293       0.62630293 </v>
    <v>       0.12630293       0.12630293       0.87369707 </v>
    <v>       0.62630293       0.87369707       0.62630293 </v>
    <v>       0.62369707       0.12369707       0.87630293 </v>
    <v>       0.62369707       0.37630293       0.62369707 </v>
    <v>       0.87369707       0.87369707       0.87369707 </v>
    <v>       0.87630293       0.12369707       0.62369707 </v>
    <v>       0.87630293       0.87630293       0.37630293 </v>
    <v>       0.37369707       0.62630293       0.12630293 </v>
    <v>       0.12630293       0.62630293       0.37369707 </v>
    <v>       0.62630293       0.37369707       0.12630293 </v>
    <v>       0.62369707       0.62369707       0.37630293 </v>
    <v>       0.62369707       0.87630293       0.12369707 </v>
    <v>       0.87369707       0.37369707       0.37369707 </v>
    <v>       0.87630293       0.62369707       0.12369707 </v>
   </varray>
  </structure>
  <varray name="forces" >
   <v>       0.00000000      -0.00000000      -0.00000000 </v>
   <v>       0.00000000      -0.00000000      -0.00000000 </v>
   <v>       0.00000000      -0.00000000      -0.00000000 </v>
   <v>       0.00000000      -0.00000000      -0.00000000 </v>
   <v>       0.00000000       0.00000000      -0.00000000 </v>
   <v>       0.00000000      -0.00000000      -0.00000000 </v>
   <v>       0.00000000      -0.00000000      -0.00000000 </v>
   <v>       0.00000000      -0.00000000      -0.00000000 </v>
   <v>       0.00000000      -0.00000000      -0.00000000 </v>
   <v>       0.00000000       0.00000000      -0.00000000 </v>
   <v>       0.00000000       0.00000000      -0.00000000 </v>
   <v>       0.00000000      -0.00000000      -0.00000000 </v>
   <v>       0.00000000      -0.00000000      -0.00000000 </v>
   <v>       0.00000000      -0.00000000      -0.00000000 </v>
   <v>       0.00000000       0.00000000      -0.00000000 </v>
   <v>       0.00000000       0.00000000      -0.00000000 </v>
   <v>       0.00000000       0.00000000      -0.00000000 </v>
   <v>       0.00000000      -0.00000000      -0.00000000 </v>
   <v>       0.00000000      -0.00000000      -0.00000000 </v>
   <v>       0.00000000      -0.00000000      -0.00000000 </v>
   <v>       0.00000000       0.00000000      -0.00000000 </v>
   <v>       0.00000000      -0.00000000      -0.00000000 </v>
   <v>       0.00000000       0.00000000      -0.00000000 </v>
   <v>       0.00000000      -0.00000000      -0.00000000 </v>
   <v>      -0.13229336      -0.13229336      -0.13229336 </v>
   <v>       0.13229336      -0.13229336      -0.13229336 </v>
   <v>      -0.13229336      -0.13229336       0.13229336 </v>
   <v>      -0.13229336       0.13229336      -0.13229336 </v>
   <v>       0.13229336       0.13229336      -0.13229336 </v>
   <v>       0.13229336      -0.13229336       0.13229336 </v>
   <v>       0.13229336       0.13229336       0.13229336 </v>
   <v>      -0.13229336       0.13229336       0.13229336 </v>
   <v>      -0.13229336      -0.13229336      -0.13229336 </v>
   <v>       0.13229336      -0.13229336      -0.13229336 </v>
   <v>      -0.13229336      -0.13229336       0.13229336 </v>
   <v>      -0.13229336       0.13229336      -0.13229336 </v>
   <v>       0.13229336       0.13229336      -0.13229336 </v>
   <v>       0.13229336      -0.13229336       0.13229336 </v>
   <v>       0.13229336       0.13229336       0.13229336 </v>
   <v>      -0.13229336       0.13229336       0.13229336 </v>
   <v>      -0.13229336      -0.13229336      -0.13229336 </v>
   <v>       0.13229336      -0.13229336      -0.13229336 </v>
   <v>      -0.13229336      -0.13229336       0.13229336 </v>
   <v>      -0.13229336       0.13229336      -0.13229336 </v>
   <v>       0.13229336       0.13229336      -0.13229336 </v>
   <v>       0.13229336      -0.13229336       0.13229336 </v>
   <v>       0.13229336       0.13229336       0.13229336 </v>
   <v>      -0.13229336       0.13229336       0.13229336 </v>
   <v>      -0.13229336      -0.13229336      -0.13229336 </v>
   <v>       0.13229336      -0.13229336      -0.13229336 </v>
   <v>      -0.13229336      -0.13229336       0.13229336 </v>
   <v>      -0.13229336       0.13229336      -0.13229336 </v>
   <v>       0.13229336       0.13229336      -0.13229336 </v>
   <v>       0.13229336      -0.13229336       0.13229336 </v>
   <v>       0.13229336       0.13229336       0.13229336 </v>
   <v>      -0.13229336       0.13229336       0.13229336 </v>
  </varray>
  <varray name="stress" >
   <v>    -111.07434675      -0.00000000      -0.00000000 </v>
   <v>      -0.00000000    -111.07434675      -0.00000000 </v>
   <v>      -0.00000000      -0.00000000    -111.07434675 </v>
  </varray>
  <energy>
   <i name="e_fr_energy">   -328.86571105 </i>
   <i name="e_wo_entrp">   -328.86440556 </i>
   <i name="e_0_energy">     -0.00522198 </i>
  </energy>
  <time name="totalsc">  151.68  156.18</time>
 </calculation>
 <calculation>
  <scstep>
   <time name="dav">   31.08   31.61</time>
   <time name="total">   31.73   32.53</time>
   <energy>
    <i name="alphaZ">    274.85726572 </i>
    <i name="ewald">  -9323.53765105 </i>
    <i name="hartreedc">  -1836.51784718 </i>
    <i name="XCdc">    193.07177445 </i>
    <i name="pawpsdc">  17603.26384891 </i>
    <i name="pawaedc"> -17069.42060614 </i>
    <i name="eentropy">     -0.00677658 </i>
    <i name="bandstr">    183.89442373 </i>
    <i name="atom">   9645.50393724 </i>
    <i name="e_fr_energy">   -328.89163090 </i>
    <i name="e_wo_entrp">   -328.88485432 </i>
    <i name="e_0_energy">   -328.88993675 </i>
   </energy>
  </scstep>
  <scstep>
   <time name="diag">    1.03    1.03</time>
   <time name="diis">    5.41    5.41</time>
   <time name="orth">    0.13    0.13</time>
   <time name="total">    7.04    7.06</time>
   <energy>
    <i name="e_fr_energy">   -328.90157363 </i>
    <i name="e_wo_entrp">   -328.89463387 </i>
    <i name="e_0_energy">   -328.89983869 </i>
   </energy>
  </scstep>
  <scstep>
   <time name="diag">    1.02    1.02</time>
   <time name="diis">    5.66    5.66</time>
   <time name="orth">    0.13    0.13</time>
   <time name="total">    7.29    7.30</time>
   <energy>
    <i name="e_fr_energy">   -328.89994699 </i>
    <i name="e_wo_entrp">   -328.89275686 </i>
    <i name="e_0_energy">   -328.89814946 </i>
   </energy>
  </scstep>
  <scstep>
   <time name="diag">    1.02    1.02</time>
   <time name="diis">    5.28    5.28</time>
   <time name="orth">    0.13    0.13</time>
   <time name="total">    6.90    6.92</time>
   <energy>
    <i name="e_fr_energy">   -328.89940902 </i>
    <i name="e_wo_entrp">   -328.89194486 </i>
    <i name="e_0_energy">   -328.89754298 </i>
   </energy>
  </scstep>
  <scstep>
   <time name="diag">    1.02    1.02</time>
   <time name="diis">    4.75    4.75</time>
   <time name="orth">    0.12    0.12</time>
   <time name="total">    6.37    6.39</time>
   <energy>
    <i name="e_fr_energy">   -328.89914208 </i>
    <i name="e_wo_entrp">   -328.89169746 </i>
    <i name="e_0_energy">   -328.89728093 </i>
   </energy>
  </scstep>
  <scstep>
   <time name="diag">    1.02    1.02</time>
   <time name="diis">    3.74    3.75</time>
   <time name="orth">    0.13    0.13</time>
   <time name="total">    4.98    5.00</time>
   <energy>
    <i name="alphaZ">    274.85726572 </i>
    <i name="ewald">  -9323.53765105 </i>
    <i name="hartreedc">  -1835.93914382 </i>
    <i name="XCdc">    193.04612540 </i>
    <i name="pawpsdc">  17535.88595448 </i>
    <i name="pawaedc"> -17002.01329334 </i>
    <i name="eentropy">     -0.00738657 </i>
    <i name="bandstr">    183.30504535 </i>
    <i name="atom">   9645.50393724 </i>
    <i name="e_fr_energy">   -328.89914659 </i>
    <i name="e_wo_entrp">   -328.89176002 </i>
    <i name="e_0_energy">   -328.89729995 </i>
   </energy>
  </scstep>
  <structure>
   <crystal>
    <varray name="basis" >
     <v>       8.91959439       0.00000000       0.00000000 </v>
     <v>       0.00000000       8.91959439       0.00000000 </v>
     <v>       0.00000000       0.00000000       8.91959439 </v>
    </varray>
    <i name="volume">    709.63547421 </i>
    <varray name="rec_basis" >
     <v>       0.11211272      -0.00000000       0.00000000 </v>
     <v>      -0.00000000       0.11211272       0.00000000 </v>
     <v>      -0.00000000      -0.00000000       0.11211272 </v>
    </varray>
   </crystal>
   <varray name="positions" >
    <v>       0.87500000       0.87500000       0.12500000 </v>
    <v>       0.37500000       0.12500000       0.37500000 </v>
    <v>       0.62500000       0.87500000       0.37500000 </v>
    <v>       0.12500000       0.12500000       0.12500000 </v>
    <v>       0.25000000       0.75000000       0.25000000 </v>
    <v>       0.00000000      -0.00000000       0.50000000 </v>
    <v>       0.87500000       0.37500000       0.62500000 </v>
    <v>       0.37500000       0.62500000       0.87500000 </v>
    <v>       0.62500000       0.37500000       0.87500000 </v>
    <v>       0.12500000       0.62500000       0.62500000 </v>
    <v>       0.25000000       0.25000000       0.75000000 </v>
    <v>       0.00000000       0.50000000      -0.00000000 </v>
    <v>       0.37500000       0.87500000       0.62500000 </v>
    <v>       0.87500000       0.12500000       0.87500000 </v>
    <v>       0.12500000       0.87500000       0.87500000 </v>
    <v>       0.62500000       0.12500000       0.62500000 </v>
    <v>       0.75000000       0.75000000       0.75000000 </v>
    <v>       0.50000000      -0.00000000      -0.00000000 </v>
    <v>       0.37500000       0.37500000       0.12500000 </v>
    <v>       0.87500000       0.62500000       0.37500000 </v>
    <v>       0.12500000       0.37500000       0.37500000 </v>
    <v>       0.62500000       0.62500000       0.12500000 </v>
    <v>       0.75000000       0.25000000       0.25000000 </v>
    <v>       0.50000000       0.50000000       0.50000000 </v>
    <v>       0.37558741       0.37558741       0.37558741 </v>
    <v>       0.87441259       0.12558741       0.12558741 </v>
    <v>       0.62558741       0.12558741       0.37441259 </v>
    <v>       0.12558741       0.87441259       0.12558741 </v>
    <v>       0.12441259       0.12441259       0.37558741 </v>
    <v>       0.12441259       0.37558741       0.12441259 </v>
    <v>       0.37441259       0.87441259       0.37441259 </v>
    <v>       0.37558741       0.12441259       0.12441259 </v>
    <v>       0.37558741       0.87558741       0.87558741 </v>
    <v>       0.87441259       0.62558741       0.62558741 </v>
    <v>       0.62558741       0.62558741       0.87441259 </v>
    <v>       0.12558741       0.37441259       0.62558741 </v>
    <v>       0.12441259       0.62441259       0.87558741 </v>
    <v>       0.12441259       0.87558741       0.62441259 </v>
    <v>       0.37441259       0.37441259       0.87441259 </v>
    <v>       0.37558741       0.62441259       0.62441259 </v>
    <v>       0.87558741       0.37558741       0.87558741 </v>
    <v>       0.37441259       0.12558741       0.62558741 </v>
    <v>       0.12558741       0.12558741       0.87441259 </v>
    <v>       0.62558741       0.87441259       0.62558741 </v>
    <v>       0.62441259       0.12441259       0.87558741 </v>
    <v>       0.62441259       0.37558741       0.62441259 </v>
    <v>       0.87441259       0.87441259       0.87441259 </v>
    <v>       0.87558741       0.12441259       0.62441259 </v>
    <v>       0.87558741       0.87558741       0.37558741 </v>
    <v>       0.37441259       0.62558741       0.12558741 </v>
    <v>       0.12558741       0.62558741       0.37441259 </v>
    <v>       0.62558741       0.37441259       0.12558741 </v>
    <v>       0.62441259       0.62441259       0.37558741 </v>
    <v>       0.62441259       0.87558741       0.12441259 </v>
    <v>       0.87441259       0.37441259       0.37441259 </v>
    <v>       0.87558741       0.62441259       0.12441259 </v>
   </varray>
  </structure>
  <varray name="forces" >
   <v>       0.00000000      -0.00000000       0.00000000 </v>
   <v>       0.00000000      -0.00000000       0.00000000 </v>
   <v>       0.00000000      -0.00000000       0.00000000 </v>
   <v>       0.00000000      -0.00000000       0.00000000 </v>
   <v>       0.00000000      -0.00000000       0.00000000 </v>
   <v>       0.00000000      -0.00000000       0.00000000 </v>
   <v>       0.00000000      -0.00000000       0.00000000 </v>
   <v>       0.00000000      -0.00000000       0.00000000 </v>
   <v>       0.00000000      -0.00000000       0.00000000 </v>
   <v>       0.00000000      -0.00000000       0.00000000 </v>
   <v>       0.00000000      -0.00000000       0.00000000 </v>
   <v>       0.00000000      -0.00000000       0.00000000 </v>
   <v>       0.00000000      -0.00000000       0.00000000 </v>
   <v>       0.00000000      -0.00000000       0.00000000 </v>
   <v>       0.00000000      -0.00000000       0.00000000 </v>
   <v>       0.00000000      -0.00000000       0.00000000 </v>
   <v>       0.00000000      -0.00000000       0.00000000 </v>
   <v>       0.00000000      -0.00000000       0.00000000 </v>
   <v>       0.00000000      -0.00000000       0.00000000 </v>
   <v>       0.00000000      -0.00000000       0.00000000 </v>
   <v>       0.00000000      -0.00000000       0.00000000 </v>
   <v>       0.00000000      -0.00000000       0.00000000 </v>
   <v>       0.00000000      -0.00000000       0.00000000 </v>
   <v>       0.00000000      -0.00000000       0.00000000 </v>
   <v>       0.02379328       0.02379328       0.02379328 </v>
   <v>      -0.02379328       0.02379328       0.02379328 </v>
   <v>       0.02379328       0.02379328      -0.02379328 </v>
   <v>       0.02379328      -0.02379328       0.02379328 </v>
   <v>      -0.02379328      -0.02379328       0.02379328 </v>
   <v>      -0.02379328       0.02379328      -0.02379328 </v>
   <v>      -0.02379328      -0.02379328      -0.02379328 </v>
   <v>       0.02379328      -0.02379328      -0.02379328 </v>
   <v>       0.02379328       0.02379328       0.02379328 </v>
   <v>      -0.02379328       0.02379328       0.02379328 </v>
   <v>       0.02379328       0.02379328      -0.02379328 </v>
   <v>       0.02379328      -0.02379328       0.02379328 </v>
   <v>      -0.02379328      -0.02379328       0.02379328 </v>
   <v>      -0.02379328       0.02379328      -0.02379328 </v>
   <v>      -0.02379328      -0.02379328      -0.02379328 </v>
   <v>       0.02379328      -0.02379328      -0.02379328 </v>
   <v>       0.02379328       0.02379328       0.02379328 </v>
   <v>      -0.02379328       0.02379328       0.02379328 </v>
   <v>       0.02379328       0.02379328      -0.02379328 </v>
   <v>       0.02379328      -0.02379328       0.02379328 </v>
   <v>      -0.02379328      -0.02379328       0.02379328 </v>
   <v>      -0.02379328       0.02379328      -0.02379328 </v>
   <v>      -0.02379328      -0.02379328      -0.02379328 </v>
   <v>       0.02379328      -0.02379328      -0.02379328 </v>
   <v>       0.02379328       0.02379328       0.02379328 </v>
   <v>      -0.02379328       0.02379328       0.02379328 </v>
   <v>       0.02379328       0.02379328      -0.02379328 </v>
   <v>       0.02379328      -0.02379328       0.02379328 </v>
   <v>      -0.02379328      -0.02379328       0.02379328 </v>
   <v>      -0.02379328       0.02379328      -0.02379328 </v>
   <v>      -0.02379328      -0.02379328      -0.02379328 </v>
   <v>       0.02379328      -0.02379328      -0.02379328 </v>
  </varray>
  <varray name="stress" >
   <v>    -108.98579791      -0.00000000      -0.00000000 </v>
   <v>      -0.00000000    -108.98579791      -0.00000000 </v>
   <v>      -0.00000000      -0.00000000    -108.98579791 </v>
  </varray>
  <energy>
   <i name="e_fr_energy">   -328.89914659 </i>
   <i name="e_wo_entrp">   -328.89729995 </i>
   <i name="e_0_energy">     -0.00738657 </i>
  </energy>
  <time name="totalsc">   80.11   83.57</time>
 </calculation>
 <calculation>
  <scstep>
   <time name="dav">   40.97   44.07</time>
   <time name="total">   41.63   44.97</time>
   <energy>
    <i name="alphaZ">    274.85726572 </i>
    <i name="ewald">  -9323.91279395 </i>
    <i name="hartreedc">  -1835.37843493 </i>
    <i name="XCdc">    193.04916632 </i>
    <i name="pawpsdc">  17537.52126754 </i>
    <i name="pawaedc"> -17003.64892481 </i>
    <i name="eentropy">     -0.00716135 </i>
    <i name="bandstr">    183.11571572 </i>
    <i name="atom">   9645.50393724 </i>
    <i name="e_fr_energy">   -328.89996251 </i>
    <i name="e_wo_entrp">   -328.89280116 </i>
    <i name="e_0_energy">   -328.89817217 </i>
   </energy>
  </scstep>
  <scstep>
   <time name="diag">    1.02    1.02</time>
   <time name="diis">    5.35    5.35</time>
   <time name="orth">    0.12    0.12</time>
   <time name="total">    6.96    6.97</time>
   <energy>
    <i name="e_fr_energy">   -328.90021164 </i>
    <i name="e_wo_entrp">   -328.89306283 </i>
    <i name="e_0_energy">   -328.89842443 </i>
   </energy>
  </scstep>
  <scstep>
   <time name="diag">    1.01    1.01</time>
   <time name="diis">    3.20    3.20</time>
   <time name="orth">    0.12    0.12</time>
   <time name="total">    4.43    4.43</time>
   <energy>
    <i name="alphaZ">    274.85726572 </i>
    <i name="ewald">  -9323.91279395 </i>
    <i name="hartreedc">  -1835.48519513 </i>
    <i name="XCdc">    193.05285344 </i>
    <i name="pawpsdc">  17540.94707213 </i>
    <i name="pawaedc"> -17007.07768753 </i>
    <i name="eentropy">     -0.00710457 </i>
    <i name="bandstr">    183.22150628 </i>
    <i name="atom">   9645.50393724 </i>
    <i name="e_fr_energy">   -328.90014637 </i>
    <i name="e_wo_entrp">   -328.89304180 </i>
    <i name="e_0_energy">   -328.89837023 </i>
   </energy>
  </scstep>
  <structure>
   <crystal>
    <varray name="basis" >
     <v>       8.91959439       0.00000000       0.00000000 </v>
     <v>       0.00000000       8.91959439       0.00000000 </v>
     <v>       0.00000000       0.00000000       8.91959439 </v>
    </varray>
    <i name="volume">    709.63547421 </i>
    <varray name="rec_basis" >
     <v>       0.11211272      -0.00000000       0.00000000 </v>
     <v>      -0.00000000       0.11211272       0.00000000 </v>
     <v>      -0.00000000      -0.00000000       0.11211272 </v>
    </varray>
   </crystal>
   <varray name="positions" >
    <v>       0.87500000       0.87500000       0.12500000 </v>
    <v>       0.37500000       0.12500000       0.37500000 </v>
    <v>       0.62500000       0.87500000       0.37500000 </v>
    <v>       0.12500000       0.12500000       0.12500000 </v>
    <v>       0.25000000       0.75000000       0.25000000 </v>
    <v>       0.00000000      -0.00000000       0.50000000 </v>
    <v>       0.87500000       0.37500000       0.62500000 </v>
    <v>       0.37500000       0.62500000       0.87500000 </v>
    <v>       0.62500000       0.37500000       0.87500000 </v>
    <v>       0.12500000       0.62500000       0.62500000 </v>
    <v>       0.25000000       0.25000000       0.75000000 </v>
    <v>       0.00000000       0.50000000      -0.00000000 </v>
    <v>       0.37500000       0.87500000       0.62500000 </v>
    <v>       0.87500000       0.12500000       0.87500000 </v>
    <v>       0.12500000       0.87500000       0.87500000 </v>
    <v>       0.62500000       0.12500000       0.62500000 </v>
    <v>       0.75000000       0.75000000       0.75000000 </v>
    <v>       0.50000000      -0.00000000      -0.00000000 </v>
    <v>       0.37500000       0.37500000       0.12500000 </v>
    <v>       0.87500000       0.62500000       0.37500000 </v>
    <v>       0.12500000       0.37500000       0.37500000 </v>
    <v>       0.62500000       0.62500000       0.12500000 </v>
    <v>       0.75000000       0.25000000       0.25000000 </v>
    <v>       0.50000000       0.50000000       0.50000000 </v>
    <v>       0.37569648       0.37569648       0.37569648 </v>
    <v>       0.87430352       0.12569648       0.12569648 </v>
    <v>       0.62569648       0.12569648       0.37430352 </v>
    <v>       0.12569648       0.87430352       0.12569648 </v>
    <v>       0.12430352       0.12430352       0.37569648 </v>
    <v>       0.12430352       0.37569648       0.12430352 </v>
    <v>       0.37430352       0.87430352       0.37430352 </v>
    <v>       0.37569648       0.12430352       0.12430352 </v>
    <v>       0.37569648       0.87569648       0.87569648 </v>
    <v>       0.87430352       0.62569648       0.62569648 </v>
    <v>       0.62569648       0.62569648       0.87430352 </v>
    <v>       0.12569648       0.37430352       0.62569648 </v>
    <v>       0.12430352       0.62430352       0.87569648 </v>
    <v>       0.12430352       0.87569648       0.62430352 </v>
    <v>       0.37430352       0.37430352       0.87430352 </v>
    <v>       0.37569648       0.62430352       0.62430352 </v>
    <v>       0.87569648       0.37569648       0.87569648 </v>
    <v>       0.37430352       0.12569648       0.62569648 </v>
    <v>       0.12569648       0.12569648       0.87430352 </v>
    <v>       0.62569648       0.87430352       0.62569648 </v>
    <v>       0.62430352       0.12430352       0.87569648 </v>
    <v>       0.62430352       0.37569648       0.62430352 </v>
    <v>       0.87430352       0.87430352       0.87430352 </v>
    <v>       0.87569648       0.12430352       0.62430352 </v>
    <v>       0.87569648       0.87569648       0.37569648 </v>
    <v>       0.37430352       0.62569648       0.12569648 </v>
    <v>       0.12569648       0.62569648       0.37430352 </v>
    <v>       0.62569648       0.37430352       0.12569648 </v>
    <v>       0.62430352       0.62430352       0.37569648 </v>
    <v>       0.62430352       0.87569648       0.12430352 </v>
    <v>       0.87430352       0.37430352       0.37430352 </v>
    <v>       0.87569648       0.62430352       0.12430352 </v>
   </varray>
  </structure>
  <varray name="forces" >
   <v>      -0.00000000      -0.00000000      -0.00000000 </v>
   <v>      -0.00000000      -0.00000000      -0.00000000 </v>
   <v>      -0.00000000      -0.00000000      -0.00000000 </v>
   <v>      -0.00000000      -0.00000000      -0.00000000 </v>
   <v>      -0.00000000      -0.00000000      -0.00000000 </v>
   <v>      -0.00000000      -0.00000000      -0.00000000 </v>
   <v>      -0.00000000      -0.00000000      -0.00000000 </v>
   <v>      -0.00000000      -0.00000000      -0.00000000 </v>
   <v>      -0.00000000      -0.00000000      -0.00000000 </v>
   <v>      -0.00000000      -0.00000000      -0.00000000 </v>
   <v>      -0.00000000      -0.00000000      -0.00000000 </v>
   <v>      -0.00000000      -0.00000000      -0.00000000 </v>
   <v>      -0.00000000      -0.00000000      -0.00000000 </v>
   <v>      -0.00000000      -0.00000000      -0.00000000 </v>
   <v>      -0.00000000      -0.00000000      -0.00000000 </v>
   <v>      -0.00000000      -0.00000000      -0.00000000 </v>
   <v>      -0.00000000      -0.00000000      -0.00000000 </v>
   <v>      -0.00000000      -0.00000000      -0.00000000 </v>
   <v>      -0.00000000      -0.00000000      -0.00000000 </v>
   <v>      -0.00000000      -0.00000000      -0.00000000 </v>
   <v>      -0.00000000      -0.00000000      -0.00000000 </v>
   <v>      -0.00000000      -0.00000000      -0.00000000 </v>
   <v>      -0.00000000      -0.00000000      -0.00000000 </v>
   <v>      -0.00000000      -0.00000000      -0.00000000 </v>
   <v>      -0.00032181      -0.00032181      -0.00032181 </v>
   <v>       0.00032181      -0.00032181      -0.00032181 </v>
   <v>      -0.00032181      -0.00032181       0.00032181 </v>
   <v>      -0.00032181       0.00032181      -0.00032181 </v>
   <v>       0.00032181       0.00032181      -0.00032181 </v>
   <v>       0.00032181      -0.00032181       0.00032181 </v>
   <v>       0.00032181       0.00032181       0.00032181 </v>
   <v>      -0.00032181       0.00032181       0.00032181 </v>
   <v>      -0.00032181      -0.00032181      -0.00032181 </v>
   <v>       0.00032181      -0.00032181      -0.00032181 </v>
   <v>      -0.00032181      -0.00032181       0.00032181 </v>
   <v>      -0.00032181       0.00032181      -0.00032181 </v>
   <v>       0.00032181       0.00032181      -0.00032181 </v>
   <v>       0.00032181      -0.00032181       0.00032181 </v>
   <v>       0.00032181       0.00032181       0.00032181 </v>
   <v>      -0.00032181       0.00032181       0.00032181 </v>
   <v>      -0.00032181      -0.00032181      -0.00032181 </v>
   <v>       0.00032181      -0.00032181      -0.00032181 </v>
   <v>      -0.00032181      -0.00032181       0.00032181 </v>
   <v>      -0.00032181       0.00032181      -0.00032181 </v>
   <v>       0.00032181       0.00032181      -0.00032181 </v>
   <v>       0.00032181      -0.00032181       0.00032181 </v>
   <v>       0.00032181       0.00032181       0.00032181 </v>
   <v>      -0.00032181       0.00032181       0.00032181 </v>
   <v>      -0.00032181      -0.00032181      -0.00032181 </v>
   <v>       0.00032181      -0.00032181      -0.00032181 </v>
   <v>      -0.00032181      -0.00032181       0.00032181 </v>
   <v>      -0.00032181       0.00032181      -0.00032181 </v>
   <v>       0.00032181       0.00032181      -0.00032181 </v>
   <v>       0.00032181      -0.00032181       0.00032181 </v>
   <v>       0.00032181       0.00032181       0.00032181 </v>
   <v>      -0.00032181       0.00032181       0.00032181 </v>
  </varray>
  <varray name="stress" >
   <v>    -109.51956108      -0.00000000      -0.00000000 </v>
   <v>      -0.00000000    -109.51956108      -0.00000000 </v>
   <v>      -0.00000000      -0.00000000    -109.51956108 </v>
  </varray>
  <energy>
   <i name="e_fr_energy">   -328.90014637 </i>
   <i name="e_wo_entrp">   -328.89837023 </i>
   <i name="e_0_energy">     -0.00710457 </i>
  </energy>
  <time name="totalsc">   63.29   66.71</time>
  <eigenvalues>
   <array>
    <dimension dim="1">band</dimension>
    <dimension dim="2">kpoint</dimension>
    <dimension dim="3">spin</dimension>
    <field>eigene</field>
    <field>occ</field>
    <set>
     <set comment="spin 1">
      <set comment="kpoint 1">
       <r>   -9.8008    1.0000 </r>
       <r>   -9.1025    1.0000 </r>
       <r>   -9.1025    1.0000 </r>
       <r>   -9.1025    1.0000 </r>
       <r>   -9.1025    1.0000 </r>
       <r>   -9.1025    1.0000 </r>
       <r>   -9.1025    1.0000 </r>
       <r>   -8.8343    1.0000 </r>
       <r>   -8.2850    1.0000 </r>
       <r>   -8.2014    1.0000 </r>
       <r>   -8.2014    1.0000 </r>
       <r>   -8.2014    1.0000 </r>
       <r>   -8.2014    1.0000 </r>
       <r>   -8.2014    1.0000 </r>
       <r>   -8.2014    1.0000 </r>
       <r>   -7.2914    1.0000 </r>
       <r>   -7.2914    1.0000 </r>
       <r>   -7.2914    1.0000 </r>
       <r>   -7.2914    1.0000 </r>
       <r>   -7.2914    1.0000 </r>
       <r>   -7.2914    1.0000 </r>
       <r>   -7.2037    1.0000 </r>
       <r>   -7.2037    1.0000 </r>
       <r>   -7.2037    1.0000 </r>
       <r>   -1.7426    1.0000 </r>
       <r>   -1.7426    1.0000 </r>
       <r>   -1.7426    1.0000 </r>
       <r>   -1.3986    1.0000 </r>
       <r>   -1.3986    1.0000 </r>
       <r>   -1.3986    1.0000 </r>
       <r>   -1.3986    1.0000 </r>
       <r>   -1.3986    1.0000 </r>
       <r>   -1.3986    1.0000 </r>
       <r>   -1.3655    1.0000 </r>
       <r>   -0.5227    1.0000 </r>
       <r>   -0.5227    1.0000 </r>
       <r>   -0.5227    1.0000 </r>
       <r>   -0.5227    1.0000 </r>
       <r>   -0.5227    1.0000 </r>
       <r>   -0.5227    1.0000 </r>
       <r>   -0.2088    1.0000 </r>
       <r>   -0.2088    1.0000 </r>
       <r>   -0.2088    1.0000 </r>
       <r>   -0.0724    1.0000 </r>
       <r>   -0.0724    1.0000 </r>
       <r>   -0.0724    1.0000 </r>
       <r>   -0.0724    1.0000 </r>
       <r>   -0.0724    1.0000 </r>
       <r>   -0.0724    1.0000 </r>
       <r>    0.2802    1.0000 </r>
       <r>    0.2802    1.0000 </r>
       <r>    0.2802    1.0000 </r>
       <r>    0.2802    1.0000 </r>
       <r>    0.2802    1.0000 </r>
       <r>    0.2802    1.0000 </r>
       <r>    0.8469    1.0000 </r>
       <r>    0.8469    1.0000 </r>
       <r>    2.0674    1.0000 </r>
       <r>    2.0674    1.0000 </r>
       <r>    2.0674    1.0000 </r>
       <r>    2.0674    1.0000 </r>
       <r>    2.0674    1.0000 </r>
       <r>    2.0674    1.0000 </r>
       <r>    2.0798    1.0000 </r>
       <r>    2.0798    1.0000 </r>
       <r>    2.0798    1.0000 </r>
       <r>    2.0798    1.0000 </r>
       <r>    2.0798    1.0000 </r>
       <r>    2.0798    1.0000 </r>
       <r>    2.1421    1.0000 </r>
       <r>    2.1421    1.0000 </r>
       <r>    2.1421    1.0000 </r>
       <r>    2.1421    1.0000 </r>
       <r>    2.1421    1.0000 </r>
       <r>    2.1421    1.0000 </r>
       <r>    2.2614    1.0000 </r>
       <r>    2.2614    1.0000 </r>
       <r>    2.2614    1.0000 </r>
       <r>    2.6603    1.0000 </r>
       <r>    2.6603    1.0000 </r>
       <r>    2.6603    1.0000 </r>
       <r>    2.6603    1.0000 </r>
       <r>    2.6603    1.0000 </r>
       <r>    2.6603    1.0000 </r>
       <r>    3.2946    1.0000 </r>
       <r>    3.8335    1.0000 </r>
       <r>    3.8335    1.0000 </r>
       <r>    3.8335    1.0000 </r>
       <r>    4.4420    1.0000 </r>
       <r>    4.4420    1.0000 </r>
       <r>    4.4420    1.0000 </r>
       <r>    4.4420    1.0000 </r>
       <r>    4.4420    1.0000 </r>
       <r>    4.4420    1.0000 </r>
       <r>    4.8663    1.0000 </r>
       <r>    4.8663    1.0000 </r>
       <r>    4.8663    1.0000 </r>
       <r>    5.9004    1.0000 </r>
       <r>    5.9004    1.0000 </r>
       <r>    5.9004    1.0000 </r>
       <r>    6.4390    1.0000 </r>
       <r>    6.4390    1.0000 </r>
       <r>    6.4390    1.0000 </r>
       <r>    6.4390    1.0000 </r>
       <r>    6.4390    1.0000 </r>
       <r>    6.4390    1.0000 </r>
       <r>    7.0841    1.0000 </r>
       <r>    7.0841    1.0000 </r>
       <r>    7.0841    1.0000 </r>
       <r>    7.0841    1.0000 </r>
       <r>    7.0841    1.0000 </r>
       <r>    7.0841    1.0000 </r>
       <r>    7.1963    1.0000 </r>
       <r>    7.1963    1.0000 </r>
       <r>    7.1963    1.0000 </r>
       <r>    7.1963    1.0000 </r>
       <r>    7.1963    1.0000 </r>
       <r>    7.1963    1.0000 </r>
       <r>    7.5193    1.0000 </r>
       <r>    7.5193    1.0000 </r>
       <r>    7.5193    1.0000 </r>
       <r>    7.5193    1.0000 </r>
       <r>    7.5193    1.0000 </r>
       <r>    7.5193    1.0000 </r>
       <r>    7.5615    1.0000 </r>
       <r>    7.5615    1.0000 </r>
       <r>    7.5615    1.0000 </r>
       <r>    9.0609    0.0000 </r>
       <r>    9.3749    0.0000 </r>
       <r>    9.3808    0.0000 </r>
       <r>    9.3808    0.0000 </r>
       <r>    9.3808    0.0000 </r>
       <r>    9.3808    0.0000 </r>
       <r>    9.3808    0.0000 </r>
       <r>    9.3808    0.0000 </r>
       <r>    9.5000    0.0000 </r>
       <r>    9.5000    0.0000 </r>
       <r>    9.5000    0.0000 </r>
       <r>    9.5000    0.0000 </r>
       <r>    9.5000    0.0000 </r>
       <r>    9.5000    0.0000 </r>
       <r>    9.5960    0.0000 </r>
       <r>    9.5960    0.0000 </r>
       <r>    9.5960    0.0000 </r>
       <r>    9.5960    0.0000 </r>
       <r>    9.5960    0.0000 </r>
       <r>    9.5960    0.0000 </r>
       <r>    9.6587    0.0000 </r>
       <r>    9.6587    0.0000 </r>
       <r>   10.1750    0.0000 </r>
       <r>   10.1750    0.0000 </r>
       <r>   10.1750    0.0000 </r>
       <r>   11.3553    0.0000 </r>
       <r>   11.3557    0.0000 </r>
       <r>   11.3564    0.0000 </r>
       <r>   11.3679    0.0000 </r>
      </set>
      <set comment="kpoint 2">
       <r>   -9.7606    1.0000 </r>
       <r>   -9.2714    1.0000 </r>
       <r>   -9.0958    1.0000 </r>
       <r>   -9.0958    1.0000 </r>
       <r>   -9.0958    1.0000 </r>
       <r>   -9.0958    1.0000 </r>
       <r>   -8.9927    1.0000 </r>
       <r>   -8.8458    1.0000 </r>
       <r>   -8.3279    1.0000 </r>
       <r>   -8.2991    1.0000 </r>
       <r>   -8.2231    1.0000 </r>
       <r>   -8.2231    1.0000 </r>
       <r>   -8.2231    1.0000 </r>
       <r>   -8.2231    1.0000 </r>
       <r>   -7.9691    1.0000 </r>
       <r>   -7.2832    1.0000 </r>
       <r>   -7.2832    1.0000 </r>
       <r>   -7.2725    1.0000 </r>
       <r>   -7.2725    1.0000 </r>
       <r>   -7.2725    1.0000 </r>
       <r>   -7.2725    1.0000 </r>
       <r>   -7.2642    1.0000 </r>
       <r>   -7.2123    1.0000 </r>
       <r>   -7.2123    1.0000 </r>
       <r>   -1.7284    1.0000 </r>
       <r>   -1.7284    1.0000 </r>
       <r>   -1.6374    1.0000 </r>
       <r>   -1.4557    1.0000 </r>
       <r>   -1.4557    1.0000 </r>
       <r>   -1.3505    1.0000 </r>
       <r>   -1.3505    1.0000 </r>
       <r>   -1.3505    1.0000 </r>
       <r>   -1.3505    1.0000 </r>
       <r>   -1.2906    1.0000 </r>
       <r>   -0.7692    1.0000 </r>
       <r>   -0.6727    1.0000 </r>
       <r>   -0.6727    1.0000 </r>
       <r>   -0.6727    1.0000 </r>
       <r>   -0.6727    1.0000 </r>
       <r>   -0.5012    1.0000 </r>
       <r>   -0.4340    1.0000 </r>
       <r>   -0.2900    1.0000 </r>
       <r>   -0.1180    1.0000 </r>
       <r>   -0.1180    1.0000 </r>
       <r>   -0.0920    1.0000 </r>
       <r>   -0.0920    1.0000 </r>
       <r>   -0.0920    1.0000 </r>
       <r>   -0.0920    1.0000 </r>
       <r>    0.1206    1.0000 </r>
       <r>    0.3216    1.0000 </r>
       <r>    0.3216    1.0000 </r>
       <r>    0.4047    1.0000 </r>
       <r>    0.4047    1.0000 </r>
       <r>    0.4047    1.0000 </r>
       <r>    0.4047    1.0000 </r>
       <r>    0.9002    1.0000 </r>
       <r>    1.2278    1.0000 </r>
       <r>    1.6614    1.0000 </r>
       <r>    1.7386    1.0000 </r>
       <r>    1.7386    1.0000 </r>
       <r>    1.7386    1.0000 </r>
       <r>    1.7386    1.0000 </r>
       <r>    1.8990    1.0000 </r>
       <r>    1.9851    1.0000 </r>
       <r>    1.9851    1.0000 </r>
       <r>    2.1618    1.0000 </r>
       <r>    2.1618    1.0000 </r>
       <r>    2.1618    1.0000 </r>
       <r>    2.1618    1.0000 </r>
       <r>    2.2050    1.0000 </r>
       <r>    2.2050    1.0000 </r>
       <r>    2.2558    1.0000 </r>
       <r>    2.2632    1.0000 </r>
       <r>    2.4890    1.0000 </r>
       <r>    2.4890    1.0000 </r>
       <r>    2.4890    1.0000 </r>
       <r>    2.4890    1.0000 </r>
       <r>    2.5441    1.0000 </r>
       <r>    2.6952    1.0000 </r>
       <r>    2.6952    1.0000 </r>
       <r>    2.6952    1.0000 </r>
       <r>    2.6952    1.0000 </r>
       <r>    2.8237    1.0000 </r>
       <r>    2.8237    1.0000 </r>
       <r>    3.4223    1.0000 </r>
       <r>    3.6385    1.0000 </r>
       <r>    3.6385    1.0000 </r>
       <r>    3.7262    1.0000 </r>
       <r>    4.2881    1.0000 </r>
       <r>    4.2881    1.0000 </r>
       <r>    4.2881    1.0000 </r>
       <r>    4.2881    1.0000 </r>
       <r>    4.4678    1.0000 </r>
       <r>    4.4678    1.0000 </r>
       <r>    4.7724    1.0000 </r>
       <r>    4.7724    1.0000 </r>
       <r>    4.9151    1.0000 </r>
       <r>    5.9557    1.0000 </r>
       <r>    6.0681    1.0000 </r>
       <r>    6.2580    1.0000 </r>
       <r>    6.2731    1.0000 </r>
       <r>    6.2731    1.0000 </r>
       <r>    6.4047    1.0000 </r>
       <r>    6.4047    1.0000 </r>
       <r>    6.4047    1.0000 </r>
       <r>    6.4047    1.0000 </r>
       <r>    6.6120    1.0000 </r>
       <r>    6.8119    1.0000 </r>
       <r>    6.8119    1.0000 </r>
       <r>    6.8119    1.0000 </r>
       <r>    6.8119    1.0000 </r>
       <r>    7.0288    1.0000 </r>
       <r>    7.1303    1.0000 </r>
       <r>    7.1303    1.0000 </r>
       <r>    7.2874    1.0000 </r>
       <r>    7.2874    1.0000 </r>
       <r>    7.2874    1.0000 </r>
       <r>    7.2874    1.0000 </r>
       <r>    7.5495    1.0000 </r>
       <r>    7.5495    1.0000 </r>
       <r>    7.7565    1.0000 </r>
       <r>    7.7565    1.0000 </r>
       <r>    7.8822    0.9953 </r>
       <r>    7.8822    0.9953 </r>
       <r>    7.8822    0.9953 </r>
       <r>    7.8822    0.9953 </r>
       <r>    7.9065    0.9958 </r>
       <r>    8.9896    0.0000 </r>
       <r>    8.9896    0.0000 </r>
       <r>    8.9896    0.0000 </r>
       <r>    8.9896    0.0000 </r>
       <r>    9.1738    0.0000 </r>
       <r>    9.2304    0.0000 </r>
       <r>    9.2304    0.0000 </r>
       <r>    9.3983    0.0000 </r>
       <r>    9.4337    0.0000 </r>
       <r>    9.5408    0.0000 </r>
       <r>    9.6159    0.0000 </r>
       <r>    9.6159    0.0000 </r>
       <r>    9.6159    0.0000 </r>
       <r>    9.6159    0.0000 </r>
       <r>    9.6211    0.0000 </r>
       <r>    9.6782    0.0000 </r>
       <r>    9.8582    0.0000 </r>
       <r>    9.8582    0.0000 </r>
       <r>    9.8582    0.0000 </r>
       <r>    9.8582    0.0000 </r>
       <r>   10.0012    0.0000 </r>
       <r>   10.0336    0.0000 </r>
       <r>   10.1149    0.0000 </r>
       <r>   10.1149    0.0000 </r>
       <r>   10.1429    0.0000 </r>
       <r>   11.1000    0.0000 </r>
       <r>   11.1659    0.0000 </r>
       <r>   11.1661    0.0000 </r>
       <r>   11.1707    0.0000 </r>
      </set>
      <set comment="kpoint 3">
       <r>   -9.6446    1.0000 </r>
       <r>   -9.4698    1.0000 </r>
       <r>   -9.0845    1.0000 </r>
       <r>   -9.0845    1.0000 </r>
       <r>   -9.0845    1.0000 </r>
       <r>   -9.0845    1.0000 </r>
       <r>   -8.9247    1.0000 </r>
       <r>   -8.8770    1.0000 </r>
       <r>   -8.3557    1.0000 </r>
       <r>   -8.3320    1.0000 </r>
       <r>   -8.2575    1.0000 </r>
       <r>   -8.2575    1.0000 </r>
       <r>   -8.2575    1.0000 </r>
       <r>   -8.2575    1.0000 </r>
       <r>   -7.6898    1.0000 </r>
       <r>   -7.4364    1.0000 </r>
       <r>   -7.2615    1.0000 </r>
       <r>   -7.2615    1.0000 </r>
       <r>   -7.2432    1.0000 </r>
       <r>   -7.2432    1.0000 </r>
       <r>   -7.2432    1.0000 </r>
       <r>   -7.2432    1.0000 </r>
       <r>   -7.2345    1.0000 </r>
       <r>   -7.2345    1.0000 </r>
       <r>   -1.6748    1.0000 </r>
       <r>   -1.6748    1.0000 </r>
       <r>   -1.5738    1.0000 </r>
       <r>   -1.5738    1.0000 </r>
       <r>   -1.3404    1.0000 </r>
       <r>   -1.2151    1.0000 </r>
       <r>   -1.2151    1.0000 </r>
       <r>   -1.2151    1.0000 </r>
       <r>   -1.2151    1.0000 </r>
       <r>   -1.0884    1.0000 </r>
       <r>   -0.9358    1.0000 </r>
       <r>   -0.9358    1.0000 </r>
       <r>   -0.9358    1.0000 </r>
       <r>   -0.9358    1.0000 </r>
       <r>   -0.9107    1.0000 </r>
       <r>   -0.9103    1.0000 </r>
       <r>   -0.6847    1.0000 </r>
       <r>   -0.6189    1.0000 </r>
       <r>   -0.1120    1.0000 </r>
       <r>   -0.1120    1.0000 </r>
       <r>   -0.1120    1.0000 </r>
       <r>   -0.1120    1.0000 </r>
       <r>    0.1036    1.0000 </r>
       <r>    0.1036    1.0000 </r>
       <r>    0.3020    1.0000 </r>
       <r>    0.3020    1.0000 </r>
       <r>    0.5715    1.0000 </r>
       <r>    0.5715    1.0000 </r>
       <r>    0.5715    1.0000 </r>
       <r>    0.5715    1.0000 </r>
       <r>    0.6315    1.0000 </r>
       <r>    1.0576    1.0000 </r>
       <r>    1.2609    1.0000 </r>
       <r>    1.3148    1.0000 </r>
       <r>    1.4900    1.0000 </r>
       <r>    1.4900    1.0000 </r>
       <r>    1.4900    1.0000 </r>
       <r>    1.4900    1.0000 </r>
       <r>    1.8867    1.0000 </r>
       <r>    1.8929    1.0000 </r>
       <r>    1.8929    1.0000 </r>
       <r>    2.0387    1.0000 </r>
       <r>    2.0387    1.0000 </r>
       <r>    2.3229    1.0000 </r>
       <r>    2.3278    1.0000 </r>
       <r>    2.3278    1.0000 </r>
       <r>    2.3278    1.0000 </r>
       <r>    2.3278    1.0000 </r>
       <r>    2.6371    1.0000 </r>
       <r>    2.6371    1.0000 </r>
       <r>    2.6371    1.0000 </r>
       <r>    2.6371    1.0000 </r>
       <r>    2.7571    1.0000 </r>
       <r>    2.8793    1.0000 </r>
       <r>    2.8793    1.0000 </r>
       <r>    2.8793    1.0000 </r>
       <r>    2.8793    1.0000 </r>
       <r>    3.0134    1.0000 </r>
       <r>    3.0554    1.0000 </r>
       <r>    3.0554    1.0000 </r>
       <r>    3.2515    1.0000 </r>
       <r>    3.3098    1.0000 </r>
       <r>    3.3098    1.0000 </r>
       <r>    3.4304    1.0000 </r>
       <r>    4.0012    1.0000 </r>
       <r>    4.0012    1.0000 </r>
       <r>    4.0012    1.0000 </r>
       <r>    4.0012    1.0000 </r>
       <r>    4.5392    1.0000 </r>
       <r>    4.5392    1.0000 </r>
       <r>    4.6480    1.0000 </r>
       <r>    4.6480    1.0000 </r>
       <r>    5.2590    1.0000 </r>
       <r>    5.7938    1.0000 </r>
       <r>    5.7949    1.0000 </r>
       <r>    6.1149    1.0000 </r>
       <r>    6.2176    1.0000 </r>
       <r>    6.2562    1.0000 </r>
       <r>    6.2562    1.0000 </r>
       <r>    6.2562    1.0000 </r>
       <r>    6.2562    1.0000 </r>
       <r>    6.3503    1.0000 </r>
       <r>    6.7726    1.0000 </r>
       <r>    6.7726    1.0000 </r>
       <r>    6.7726    1.0000 </r>
       <r>    6.7726    1.0000 </r>
       <r>    6.8755    1.0000 </r>
       <r>    6.8755    1.0000 </r>
       <r>    7.0871    1.0000 </r>
       <r>    7.0871    1.0000 </r>
       <r>    7.2971    1.0000 </r>
       <r>    7.2971    1.0000 </r>
       <r>    7.2971    1.0000 </r>
       <r>    7.2971    1.0000 </r>
       <r>    7.6169    1.0000 </r>
       <r>    7.6169    1.0000 </r>
       <r>    7.9186    0.9981 </r>
       <r>    7.9186    0.9981 </r>
       <r>    8.2956    0.0049 </r>
       <r>    8.2956    0.0049 </r>
       <r>    8.2956    0.0049 </r>
       <r>    8.2956    0.0049 </r>
       <r>    8.6642    0.0000 </r>
       <r>    8.7028    0.0000 </r>
       <r>    8.7028    0.0000 </r>
       <r>    8.7028    0.0000 </r>
       <r>    8.7028    0.0000 </r>
       <r>    9.1589    0.0000 </r>
       <r>    9.1652    0.0000 </r>
       <r>    9.1652    0.0000 </r>
       <r>    9.4057    0.0000 </r>
       <r>    9.4556    0.0000 </r>
       <r>    9.4841    0.0000 </r>
       <r>    9.5333    0.0000 </r>
       <r>    9.6537    0.0000 </r>
       <r>    9.6537    0.0000 </r>
       <r>    9.6537    0.0000 </r>
       <r>    9.6537    0.0000 </r>
       <r>    9.7130    0.0000 </r>
       <r>    9.7130    0.0000 </r>
       <r>    9.9885    0.0000 </r>
       <r>   10.0827    0.0000 </r>
       <r>   10.0827    0.0000 </r>
       <r>   10.0827    0.0000 </r>
       <r>   10.0827    0.0000 </r>
       <r>   10.2596    0.0000 </r>
       <r>   10.4129    0.0000 </r>
       <r>   10.4515    0.0000 </r>
       <r>   10.8139    0.0000 </r>
       <r>   11.0002    0.0000 </r>
       <r>   11.0024    0.0000 </r>
       <r>   11.0242    0.0000 </r>
      </set>
      <set comment="kpoint 4">
       <r>   -9.7211    1.0000 </r>
       <r>   -9.2504    1.0000 </r>
       <r>   -9.2504    1.0000 </r>
       <r>   -9.1123    1.0000 </r>
       <r>   -9.0739    1.0000 </r>
       <r>   -8.9976    1.0000 </r>
       <r>   -8.9976    1.0000 </r>
       <r>   -8.8571    1.0000 </r>
       <r>   -8.3539    1.0000 </r>
       <r>   -8.3539    1.0000 </r>
       <r>   -8.3365    1.0000 </r>
       <r>   -8.3160    1.0000 </r>
       <r>   -8.1278    1.0000 </r>
       <r>   -7.9920    1.0000 </r>
       <r>   -7.9920    1.0000 </r>
       <r>   -7.3292    1.0000 </r>
       <r>   -7.2802    1.0000 </r>
       <r>   -7.2679    1.0000 </r>
       <r>   -7.2679    1.0000 </r>
       <r>   -7.2637    1.0000 </r>
       <r>   -7.2637    1.0000 </r>
       <r>   -7.2397    1.0000 </r>
       <r>   -7.2167    1.0000 </r>
       <r>   -7.2092    1.0000 </r>
       <r>   -1.7410    1.0000 </r>
       <r>   -1.6279    1.0000 </r>
       <r>   -1.6241    1.0000 </r>
       <r>   -1.4489    1.0000 </r>
       <r>   -1.4489    1.0000 </r>
       <r>   -1.3820    1.0000 </r>
       <r>   -1.3787    1.0000 </r>
       <r>   -1.3787    1.0000 </r>
       <r>   -1.2184    1.0000 </r>
       <r>   -1.1826    1.0000 </r>
       <r>   -0.9780    1.0000 </r>
       <r>   -0.8737    1.0000 </r>
       <r>   -0.8737    1.0000 </r>
       <r>   -0.5842    1.0000 </r>
       <r>   -0.5842    1.0000 </r>
       <r>   -0.5842    1.0000 </r>
       <r>   -0.5377    1.0000 </r>
       <r>   -0.2833    1.0000 </r>
       <r>   -0.2833    1.0000 </r>
       <r>   -0.1055    1.0000 </r>
       <r>   -0.0917    1.0000 </r>
       <r>   -0.0850    1.0000 </r>
       <r>   -0.0296    1.0000 </r>
       <r>   -0.0123    1.0000 </r>
       <r>   -0.0123    1.0000 </r>
       <r>    0.0824    1.0000 </r>
       <r>    0.4064    1.0000 </r>
       <r>    0.4064    1.0000 </r>
       <r>    0.4767    1.0000 </r>
       <r>    0.4767    1.0000 </r>
       <r>    0.8452    1.0000 </r>
       <r>    1.1442    1.0000 </r>
       <r>    1.3772    1.0000 </r>
       <r>    1.4562    1.0000 </r>
       <r>    1.5919    1.0000 </r>
       <r>    1.7336    1.0000 </r>
       <r>    1.7336    1.0000 </r>
       <r>    1.8200    1.0000 </r>
       <r>    1.8200    1.0000 </r>
       <r>    1.9080    1.0000 </r>
       <r>    1.9080    1.0000 </r>
       <r>    1.9542    1.0000 </r>
       <r>    2.0083    1.0000 </r>
       <r>    2.1509    1.0000 </r>
       <r>    2.1708    1.0000 </r>
       <r>    2.2433    1.0000 </r>
       <r>    2.2493    1.0000 </r>
       <r>    2.2493    1.0000 </r>
       <r>    2.3827    1.0000 </r>
       <r>    2.3827    1.0000 </r>
       <r>    2.6460    1.0000 </r>
       <r>    2.6987    1.0000 </r>
       <r>    2.6987    1.0000 </r>
       <r>    2.7030    1.0000 </r>
       <r>    2.7155    1.0000 </r>
       <r>    2.7228    1.0000 </r>
       <r>    2.7853    1.0000 </r>
       <r>    2.7853    1.0000 </r>
       <r>    2.9909    1.0000 </r>
       <r>    2.9909    1.0000 </r>
       <r>    3.1186    1.0000 </r>
       <r>    3.4712    1.0000 </r>
       <r>    3.5829    1.0000 </r>
       <r>    3.7902    1.0000 </r>
       <r>    3.9664    1.0000 </r>
       <r>    4.2927    1.0000 </r>
       <r>    4.2927    1.0000 </r>
       <r>    4.3494    1.0000 </r>
       <r>    4.3494    1.0000 </r>
       <r>    4.4433    1.0000 </r>
[...]
       <r>    9.9371    0.0000 </r>
       <r>    9.9371    0.0000 </r>
       <r>   10.2438    0.0000 </r>
       <r>   10.2439    0.0000 </r>
       <r>   10.2442    0.0000 </r>
       <r>   10.3274    0.0000 </r>
       <r>   10.3275    0.0000 </r>
       <r>   10.3275    0.0000 </r>
       <r>   10.4619    0.0000 </r>
       <r>   10.5898    0.0000 </r>
       <r>   10.5948    0.0000 </r>
       <r>   10.5958    0.0000 </r>
       <r>   10.5984    0.0000 </r>
       <r>   10.6127    0.0000 </r>
      </set>
     </set>
    </set>
   </array>
  </eigenvalues>
  <separator name="orbital magnetization" >
   <v name="MAGDIPOLOUT">      0.00000000      0.00000000      0.00000000</v>
  </separator>
  <dos>
   <i name="efermi">      8.09460217 </i>
   <total>
    <array>
     <dimension dim="1">gridpoints</dimension>
     <dimension dim="2">spin</dimension>
     <field>energy</field>
     <field>total</field>
     <field>integrated</field>
     <set>
      <set comment="spin 1">
       <r>   -10.8592     0.0000     0.0000 </r>
       <r>   -10.7816     0.0000     0.0000 </r>
       <r>   -10.7040     0.0000     0.0000 </r>
       <r>   -10.6264     0.0000     0.0000 </r>
       <r>   -10.5488     0.0000     0.0000 </r>
       <r>   -10.4711     0.0000     0.0000 </r>
       <r>   -10.3935     0.0000     0.0000 </r>
       <r>   -10.3159     0.0000     0.0000 </r>
       <r>   -10.2383     0.0000     0.0000 </r>
       <r>   -10.1607     0.0000     0.0000 </r>
       <r>   -10.0831     0.0003     0.0000 </r>
       <r>   -10.0054     0.0054     0.0004 </r>
       <r>    -9.9278     0.0040     0.0007 </r>
       <r>    -9.8502    -0.1093    -0.0077 </r>
       <r>    -9.7726     0.7535     0.0507 </r>
       <r>    -9.6950     3.0127     0.2846 </r>
       <r>    -9.6173     5.2896     0.6952 </r>
       <r>    -9.5397     6.9365     1.2336 </r>
       <r>    -9.4621     8.0166     1.8558 </r>
       <r>    -9.3845    11.8438     2.7751 </r>
       <r>    -9.3069    13.8589     3.8508 </r>
       <r>    -9.2293    21.4895     5.5188 </r>
       <r>    -9.1516    19.9037     7.0637 </r>
       <r>    -9.0740    17.6821     8.4361 </r>
       <r>    -8.9964    41.1396    11.6293 </r>
       <r>    -8.9188    38.2527    14.5984 </r>
       <r>    -8.8412    16.6930    15.8941 </r>
       <r>    -8.7635     1.8154    16.0350 </r>
       <r>    -8.6859    -0.3839    16.0052 </r>
       <r>    -8.6083    -0.6385    15.9557 </r>
       <r>    -8.5307     0.6641    16.0072 </r>
       <r>    -8.4531    25.6094    17.9950 </r>
       <r>    -8.3754    45.4939    21.5261 </r>
       <r>    -8.2978    25.6637    23.5181 </r>
       <r>    -8.2202     8.3297    24.1647 </r>
       <r>    -8.1426     4.2300    24.4930 </r>
       <r>    -8.0650     4.7623    24.8626 </r>
       <r>    -7.9874    13.7848    25.9326 </r>
       <r>    -7.9097    14.8668    27.0865 </r>
       <r>    -7.8321     5.4905    27.5127 </r>
       <r>    -7.7545    14.1235    28.6089 </r>
       <r>    -7.6769    16.1620    29.8634 </r>
       <r>    -7.5993     7.4807    30.4440 </r>
       <r>    -7.5216     6.8702    30.9773 </r>
       <r>    -7.4440     7.2287    31.5384 </r>
       <r>    -7.3664    -4.0459    31.2243 </r>
       <r>    -7.2888    26.5810    33.2875 </r>
       <r>    -7.2112   138.3607    44.0269 </r>
       <r>    -7.1336    59.8055    48.6689 </r>
       <r>    -7.0559    -8.8794    47.9797 </r>
       <r>    -6.9783    -0.0883    47.9728 </r>
       <r>    -6.9007     0.3370    47.9990 </r>
       <r>    -6.8231     0.0133    48.0000 </r>
       <r>    -6.7455     0.0001    48.0000 </r>
       <r>    -6.6678     0.0000    48.0000 </r>
       <r>    -6.5902     0.0000    48.0000 </r>
       <r>    -6.5126     0.0000    48.0000 </r>
       <r>    -6.4350     0.0000    48.0000 </r>
       <r>    -6.3574     0.0000    48.0000 </r>
       <r>    -6.2798     0.0000    48.0000 </r>
       <r>    -6.2021     0.0000    48.0000 </r>
       <r>    -6.1245     0.0000    48.0000 </r>
       <r>    -6.0469     0.0000    48.0000 </r>
       <r>    -5.9693     0.0000    48.0000 </r>
       <r>    -5.8917     0.0000    48.0000 </r>
       <r>    -5.8140     0.0000    48.0000 </r>
       <r>    -5.7364     0.0000    48.0000 </r>
       <r>    -5.6588     0.0000    48.0000 </r>
       <r>    -5.5812     0.0000    48.0000 </r>
       <r>    -5.5036     0.0000    48.0000 </r>
       <r>    -5.4259     0.0000    48.0000 </r>
       <r>    -5.3483     0.0000    48.0000 </r>
       <r>    -5.2707     0.0000    48.0000 </r>
       <r>    -5.1931     0.0000    48.0000 </r>
       <r>    -5.1155     0.0000    48.0000 </r>
       <r>    -5.0379     0.0000    48.0000 </r>
       <r>    -4.9602     0.0000    48.0000 </r>
       <r>    -4.8826     0.0000    48.0000 </r>
       <r>    -4.8050     0.0000    48.0000 </r>
       <r>    -4.7274     0.0000    48.0000 </r>
       <r>    -4.6498     0.0000    48.0000 </r>
       <r>    -4.5721     0.0000    48.0000 </r>
       <r>    -4.4945     0.0000    48.0000 </r>
       <r>    -4.4169     0.0000    48.0000 </r>
       <r>    -4.3393     0.0000    48.0000 </r>
       <r>    -4.2617     0.0000    48.0000 </r>
       <r>    -4.1841     0.0000    48.0000 </r>
       <r>    -4.1064     0.0000    48.0000 </r>
       <r>    -4.0288     0.0000    48.0000 </r>
       <r>    -3.9512     0.0000    48.0000 </r>
       <r>    -3.8736     0.0000    48.0000 </r>
       <r>    -3.7960     0.0000    48.0000 </r>
       <r>    -3.7183     0.0000    48.0000 </r>
       <r>    -3.6407     0.0000    48.0000 </r>
       <r>    -3.5631     0.0000    48.0000 </r>
       <r>    -3.4855     0.0000    48.0000 </r>
       <r>    -3.4079     0.0000    48.0000 </r>
       <r>    -3.3302     0.0000    48.0000 </r>
       <r>    -3.2526     0.0000    48.0000 </r>
       <r>    -3.1750     0.0000    48.0000 </r>
       <r>    -3.0974     0.0000    48.0000 </r>
       <r>    -3.0198     0.0000    48.0000 </r>
       <r>    -2.9422     0.0000    48.0000 </r>
       <r>    -2.8645     0.0000    48.0000 </r>
       <r>    -2.7869     0.0000    48.0000 </r>
       <r>    -2.7093     0.0000    48.0000 </r>
       <r>    -2.6317     0.0000    48.0000 </r>
       <r>    -2.5541     0.0000    48.0000 </r>
       <r>    -2.4764     0.0000    48.0000 </r>
       <r>    -2.3988     0.0000    48.0000 </r>
       <r>    -2.3212     0.0000    48.0000 </r>
       <r>    -2.2436     0.0000    48.0000 </r>
       <r>    -2.1660     0.0000    48.0000 </r>
       <r>    -2.0884     0.0001    48.0000 </r>
       <r>    -2.0107     0.0072    48.0006 </r>
       <r>    -1.9331     0.0625    48.0054 </r>
       <r>    -1.8555    -0.2516    47.9859 </r>
       <r>    -1.7779     0.3092    48.0099 </r>
       <r>    -1.7003     8.7670    48.6904 </r>
       <r>    -1.6226    25.3168    50.6554 </r>
       <r>    -1.5450    33.7270    53.2733 </r>
       <r>    -1.4674    31.2520    55.6990 </r>
       <r>    -1.3898    48.5124    59.4644 </r>
       <r>    -1.3122    45.8128    63.0204 </r>
       <r>    -1.2346    30.8885    65.4179 </r>
       <r>    -1.1569    31.3067    67.8479 </r>
       <r>    -1.0793    24.2049    69.7266 </r>
       <r>    -1.0017    15.8391    70.9560 </r>
       <r>    -0.9241    21.7119    72.6413 </r>
       <r>    -0.8465    17.3030    73.9843 </r>
       <r>    -0.7688    23.7159    75.8251 </r>
       <r>    -0.6912    29.4668    78.1122 </r>
       <r>    -0.6136    15.9989    79.3541 </r>
       <r>    -0.5360    21.5717    81.0284 </r>
       <r>    -0.4584    25.3908    82.9992 </r>
       <r>    -0.3807    14.3800    84.1154 </r>
       <r>    -0.3031     9.6071    84.8611 </r>
       <r>    -0.2255    29.8092    87.1748 </r>
       <r>    -0.1479    45.1821    90.6818 </r>
       <r>    -0.0703    36.4655    93.5122 </r>
       <r>     0.0073    19.5731    95.0314 </r>
       <r>     0.0850     9.0939    95.7372 </r>
       <r>     0.1626    10.4838    96.5510 </r>
       <r>     0.2402    21.1375    98.1916 </r>
       <r>     0.3178    26.5633   100.2534 </r>
       <r>     0.3954    21.8561   101.9499 </r>
       <r>     0.4731    19.3088   103.4486 </r>
       <r>     0.5507     9.5248   104.1879 </r>
       <r>     0.6283    11.1694   105.0549 </r>
       <r>     0.7059     8.4440   105.7103 </r>
       <r>     0.7835     2.9577   105.9398 </r>
       <r>     0.8611     9.9596   106.7129 </r>
       <r>     0.9388    13.3396   107.7483 </r>
       <r>     1.0164    10.1429   108.5356 </r>
       <r>     1.0940    17.7211   109.9110 </r>
       <r>     1.1716    10.7949   110.7489 </r>
       <r>     1.2492     8.2788   111.3915 </r>
       <r>     1.3269     4.8778   111.7701 </r>
       <r>     1.4045     8.0381   112.3940 </r>
       <r>     1.4821    21.5325   114.0654 </r>
       <r>     1.5597    41.6006   117.2943 </r>
       <r>     1.6373    26.6903   119.3660 </r>
       <r>     1.7150    14.9490   120.5263 </r>
       <r>     1.7926    31.4037   122.9638 </r>
       <r>     1.8702    43.9790   126.3774 </r>
       <r>     1.9478    41.1368   129.5704 </r>
       <r>     2.0254    37.7101   132.4974 </r>
       <r>     2.1030    28.9438   134.7439 </r>
       <r>     2.1807    43.2075   138.0976 </r>
       <r>     2.2583    39.4570   141.1602 </r>
       <r>     2.3359    29.3272   143.4366 </r>
       <r>     2.4135    23.3649   145.2501 </r>
       <r>     2.4911    25.0881   147.1974 </r>
       <r>     2.5688    25.7295   149.1945 </r>
       <r>     2.6464    29.6749   151.4978 </r>
       <r>     2.7240    57.6778   155.9747 </r>
       <r>     2.8016    45.3418   159.4940 </r>
       <r>     2.8792    27.1930   161.6047 </r>
       <r>     2.9568    22.7104   163.3675 </r>
       <r>     3.0345    27.4638   165.4992 </r>
       <r>     3.1121    19.7878   167.0351 </r>
       <r>     3.1897     9.4299   167.7670 </r>
       <r>     3.2673    19.5920   169.2877 </r>
       <r>     3.3449    13.4973   170.3353 </r>
       <r>     3.4226    11.3024   171.2126 </r>
       <r>     3.5002    12.4640   172.1801 </r>
       <r>     3.5778    10.4066   172.9878 </r>
       <r>     3.6554    11.2259   173.8591 </r>
       <r>     3.7330     8.7586   174.5390 </r>
       <r>     3.8107    15.8135   175.7664 </r>
       <r>     3.8883     8.8918   176.4565 </r>
       <r>     3.9659     9.8004   177.2172 </r>
       <r>     4.0435    19.3056   178.7157 </r>
       <r>     4.1211     9.4230   179.4471 </r>
       <r>     4.1987     5.8242   179.8992 </r>
       <r>     4.2764    17.1977   181.2340 </r>
       <r>     4.3540    24.2485   183.1162 </r>
       <r>     4.4316    23.3928   184.9319 </r>
       <r>     4.5092    34.7413   187.6285 </r>
       <r>     4.5868    23.5546   189.4567 </r>
       <r>     4.6645    18.2395   190.8724 </r>
       <r>     4.7421     9.4283   191.6043 </r>
       <r>     4.8197     9.1361   192.3134 </r>
       <r>     4.8973     3.4715   192.5828 </r>
       <r>     4.9749     1.1526   192.6723 </r>
       <r>     5.0525     1.6044   192.7968 </r>
       <r>     5.1302     7.4846   193.3778 </r>
       <r>     5.2078     9.2569   194.0963 </r>
       <r>     5.2854     4.7028   194.4613 </r>
       <r>     5.3630     6.2083   194.9432 </r>
       <r>     5.4406     8.7527   195.6226 </r>
       <r>     5.5183    14.6393   196.7588 </r>
       <r>     5.5959     6.4692   197.2610 </r>
       <r>     5.6735     3.5858   197.5393 </r>
       <r>     5.7511    13.9535   198.6223 </r>
       <r>     5.8287    11.1953   199.4913 </r>
       <r>     5.9063     9.6304   200.2388 </r>
       <r>     5.9840     9.8902   201.0065 </r>
       <r>     6.0616     8.1687   201.6405 </r>
       <r>     6.1392     8.8646   202.3285 </r>
       <r>     6.2168    16.7417   203.6280 </r>
       <r>     6.2944    28.2513   205.8208 </r>
       <r>     6.3721    25.0292   207.7636 </r>
       <r>     6.4497    26.1484   209.7932 </r>
       <r>     6.5273    14.0697   210.8852 </r>
       <r>     6.6049    21.0041   212.5155 </r>
       <r>     6.6825    26.7699   214.5934 </r>
       <r>     6.7602    15.9937   215.8348 </r>
       <r>     6.8378    23.2269   217.6376 </r>
       <r>     6.9154    11.7767   218.5517 </r>
       <r>     6.9930    13.9473   219.6343 </r>
       <r>     7.0706    32.5912   222.1639 </r>
       <r>     7.1482    33.4179   224.7578 </r>
       <r>     7.2259    18.6689   226.2068 </r>
       <r>     7.3035    23.5245   228.0328 </r>
       <r>     7.3811    32.7073   230.5715 </r>
       <r>     7.4587    32.5817   233.1004 </r>
       <r>     7.5363    18.1966   234.5128 </r>
       <r>     7.6140    21.5955   236.1890 </r>
       <r>     7.6916    22.3439   237.9233 </r>
       <r>     7.7692    22.2645   239.6515 </r>
       <r>     7.8468    33.3042   242.2365 </r>
       <r>     7.9244    31.0107   244.6435 </r>
       <r>     8.0020    21.1728   246.2869 </r>
       <r>     8.0797    18.7441   247.7418 </r>
       <r>     8.1573    12.5324   248.7145 </r>
       <r>     8.2349     2.5994   248.9163 </r>
       <r>     8.3125     8.0590   249.5418 </r>
       <r>     8.3901    14.2318   250.6465 </r>
       <r>     8.4678     6.7593   251.1711 </r>
       <r>     8.5454    17.1259   252.5004 </r>
       <r>     8.6230    28.9557   254.7479 </r>
       <r>     8.7006    11.5562   255.6449 </r>
       <r>     8.7782    19.3697   257.1483 </r>
       <r>     8.8559    13.8992   258.2271 </r>
       <r>     8.9335    16.5829   259.5143 </r>
       <r>     9.0111    22.1842   261.2362 </r>
       <r>     9.0887    31.3600   263.6703 </r>
       <r>     9.1663    28.0651   265.8487 </r>
       <r>     9.2439    14.6782   266.9880 </r>
       <r>     9.3216    15.8928   268.2215 </r>
       <r>     9.3992    26.1362   270.2502 </r>
       <r>     9.4768    45.9663   273.8180 </r>
       <r>     9.5544    43.7274   277.2121 </r>
       <r>     9.6320    30.9356   279.6132 </r>
       <r>     9.7097    28.4493   281.8214 </r>
       <r>     9.7873    27.0261   283.9192 </r>
       <r>     9.8649    28.0239   286.0943 </r>
       <r>     9.9425    38.0251   289.0458 </r>
       <r>    10.0201    41.1024   292.2361 </r>
       <r>    10.0977    27.0127   294.3328 </r>
       <r>    10.1754    19.5266   295.8484 </r>
       <r>    10.2530    20.4168   297.4331 </r>
       <r>    10.3306    16.0586   298.6796 </r>
       <r>    10.4082    13.6204   299.7368 </r>
       <r>    10.4858    20.7640   301.3484 </r>
       <r>    10.5635    26.3356   303.3926 </r>
       <r>    10.6411    31.4455   305.8333 </r>
       <r>    10.7187    17.4755   307.1897 </r>
       <r>    10.7963    14.6993   308.3307 </r>
       <r>    10.8739    18.8721   309.7955 </r>
       <r>    10.9515     9.2239   310.5114 </r>
       <r>    11.0292     7.0109   311.0556 </r>
       <r>    11.1068     5.7548   311.5023 </r>
       <r>    11.1844     4.5251   311.8535 </r>
       <r>    11.2620     1.2261   311.9487 </r>
       <r>    11.3396     0.0691   311.9541 </r>
       <r>    11.4173     0.5655   311.9980 </r>
       <r>    11.4949     0.0447   312.0014 </r>
       <r>    11.5725    -0.0221   311.9997 </r>
       <r>    11.6501     0.0034   312.0000 </r>
       <r>    11.7277     0.0004   312.0000 </r>
       <r>    11.8054     0.0000   312.0000 </r>
       <r>    11.8830     0.0000   312.0000 </r>
       <r>    11.9606     0.0000   312.0000 </r>
       <r>    12.0382     0.0000   312.0000 </r>
       <r>    12.1158     0.0000   312.0000 </r>
       <r>    12.1934     0.0000   312.0000 </r>
       <r>    12.2711     0.0000   312.0000 </r>
       <r>    12.3487     0.0000   312.0000 </r>
       <r>    12.4263     0.0000   312.0000 </r>
      </set>
     </set>
    </array>
   </total>
  </dos>
 </calculation>
 <structure name="finalpos" >
  <crystal>
   <varray name="basis" >
    <v>       8.91959439       0.00000000       0.00000000 </v>
    <v>       0.00000000       8.91959439       0.00000000 </v>
    <v>       0.00000000       0.00000000       8.91959439 </v>
   </varray>
   <i name="volume">    709.63547421 </i>
   <varray name="rec_basis" >
    <v>       0.11211272      -0.00000000       0.00000000 </v>
    <v>      -0.00000000       0.11211272       0.00000000 </v>
    <v>      -0.00000000      -0.00000000       0.11211272 </v>
   </varray>
  </crystal>
  <varray name="positions" >
   <v>       0.87500000       0.87500000       0.12500000 </v>
   <v>       0.37500000       0.12500000       0.37500000 </v>
   <v>       0.62500000       0.87500000       0.37500000 </v>
   <v>       0.12500000       0.12500000       0.12500000 </v>
   <v>       0.25000000       0.75000000       0.25000000 </v>
   <v>       0.00000000      -0.00000000       0.50000000 </v>
   <v>       0.87500000       0.37500000       0.62500000 </v>
   <v>       0.37500000       0.62500000       0.87500000 </v>
   <v>       0.62500000       0.37500000       0.87500000 </v>
   <v>       0.12500000       0.62500000       0.62500000 </v>
   <v>       0.25000000       0.25000000       0.75000000 </v>
   <v>       0.00000000       0.50000000      -0.00000000 </v>
   <v>       0.37500000       0.87500000       0.62500000 </v>
   <v>       0.87500000       0.12500000       0.87500000 </v>
   <v>       0.12500000       0.87500000       0.87500000 </v>
   <v>       0.62500000       0.12500000       0.62500000 </v>
   <v>       0.75000000       0.75000000       0.75000000 </v>
   <v>       0.50000000      -0.00000000      -0.00000000 </v>
   <v>       0.37500000       0.37500000       0.12500000 </v>
   <v>       0.87500000       0.62500000       0.37500000 </v>
   <v>       0.12500000       0.37500000       0.37500000 </v>
   <v>       0.62500000       0.62500000       0.12500000 </v>
   <v>       0.75000000       0.25000000       0.25000000 </v>
   <v>       0.50000000       0.50000000       0.50000000 </v>
   <v>       0.37569648       0.37569648       0.37569648 </v>
   <v>       0.87430352       0.12569648       0.12569648 </v>
   <v>       0.62569648       0.12569648       0.37430352 </v>
   <v>       0.12569648       0.87430352       0.12569648 </v>
   <v>       0.12430352       0.12430352       0.37569648 </v>
   <v>       0.12430352       0.37569648       0.12430352 </v>
   <v>       0.37430352       0.87430352       0.37430352 </v>
   <v>       0.37569648       0.12430352       0.12430352 </v>
   <v>       0.37569648       0.87569648       0.87569648 </v>
   <v>       0.87430352       0.62569648       0.62569648 </v>
   <v>       0.62569648       0.62569648       0.87430352 </v>
   <v>       0.12569648       0.37430352       0.62569648 </v>
   <v>       0.12430352       0.62430352       0.87569648 </v>
   <v>       0.12430352       0.87569648       0.62430352 </v>
   <v>       0.37430352       0.37430352       0.87430352 </v>
   <v>       0.37569648       0.62430352       0.62430352 </v>
   <v>       0.87569648       0.37569648       0.87569648 </v>
   <v>       0.37430352       0.12569648       0.62569648 </v>
   <v>       0.12569648       0.12569648       0.87430352 </v>
   <v>       0.62569648       0.87430352       0.62569648 </v>
   <v>       0.62430352       0.12430352       0.87569648 </v>
   <v>       0.62430352       0.37569648       0.62430352 </v>
   <v>       0.87430352       0.87430352       0.87430352 </v>
   <v>       0.87569648       0.12430352       0.62430352 </v>
   <v>       0.87569648       0.87569648       0.37569648 </v>
   <v>       0.37430352       0.62569648       0.12569648 </v>
   <v>       0.12569648       0.62569648       0.37430352 </v>
   <v>       0.62569648       0.37430352       0.12569648 </v>
   <v>       0.62430352       0.62430352       0.37569648 </v>
   <v>       0.62430352       0.87569648       0.12430352 </v>
   <v>       0.87430352       0.37430352       0.37430352 </v>
   <v>       0.87569648       0.62430352       0.12430352 </v>
  </varray>
 </structure>
</modeling>
