unknown system                          
           1
     8.919594    0.000000    0.000000
     0.000000    8.919594    0.000000
     0.000000    0.000000    8.919594
   Si   N 
  24  32
Direct configuration=     1
   0.87500000  0.87500000  0.12500000
   0.37500000  0.12500000  0.37500000
   0.62500000  0.87500000  0.37500000
   0.12500000  0.12500000  0.12500000
   0.25000000  0.75000000  0.25000000
   0.00000000  0.00000000  0.50000000
   0.87500000  0.37500000  0.62500000
   0.37500000  0.62500000  0.87500000
   0.62500000  0.37500000  0.87500000
   0.12500000  0.62500000  0.62500000
   0.25000000  0.25000000  0.75000000
   0.00000000  0.50000000  0.00000000
   0.37500000  0.87500000  0.62500000
   0.87500000  0.12500000  0.87500000
   0.12500000  0.87500000  0.87500000
   0.62500000  0.12500000  0.62500000
   0.75000000  0.75000000  0.75000000
   0.50000000  0.00000000  0.00000000
   0.37500000  0.37500000  0.12500000
   0.87500000  0.62500000  0.37500000
   0.12500000  0.37500000  0.37500000
   0.62500000  0.62500000  0.12500000
   0.75000000  0.25000000  0.25000000
   0.50000000  0.50000000  0.50000000
   0.37630293  0.37630293  0.37630293
   0.87369707  0.12630293  0.12630293
   0.62630293  0.12630293  0.37369707
   0.12630293  0.87369707  0.12630293
   0.12369707  0.12369707  0.37630293
   0.12369707  0.37630293  0.12369707
   0.37369707  0.87369707  0.37369707
   0.37630293  0.12369707  0.12369707
   0.37630293  0.87630293  0.87630293
   0.87369707  0.62630293  0.62630293
   0.62630293  0.62630293  0.87369707
   0.12630293  0.37369707  0.62630293
   0.12369707  0.62369707  0.87630293
   0.12369707  0.87630293  0.62369707
   0.37369707  0.37369707  0.87369707
   0.37630293  0.62369707  0.62369707
   0.87630293  0.37630293  0.87630293
   0.37369707  0.12630293  0.62630293
   0.12630293  0.12630293  0.87369707
   0.62630293  0.87369707  0.62630293
   0.62369707  0.12369707  0.87630293
   0.62369707  0.37630293  0.62369707
   0.87369707  0.87369707  0.87369707
   0.87630293  0.12369707  0.62369707
   0.87630293  0.87630293  0.37630293
   0.37369707  0.62630293  0.12630293
   0.12630293  0.62630293  0.37369707
   0.62630293  0.37369707  0.12630293
   0.62369707  0.62369707  0.37630293
   0.62369707  0.87630293  0.12369707
   0.87369707  0.37369707  0.37369707
   0.87630293  0.62369707  0.12369707
Direct configuration=     2
   0.87500000  0.87500000  0.12500000
   0.37500000  0.12500000  0.37500000
   0.62500000  0.87500000  0.37500000
   0.12500000  0.12500000  0.12500000
   0.25000000  0.75000000  0.25000000
   0.00000000 -0.00000000  0.50000000
   0.87500000  0.37500000  0.62500000
   0.37500000  0.62500000  0.87500000
   0.62500000  0.37500000  0.87500000
   0.12500000  0.62500000  0.62500000
   0.25000000  0.25000000  0.75000000
   0.00000000  0.50000000 -0.00000000
   0.37500000  0.87500000  0.62500000
   0.87500000  0.12500000  0.87500000
   0.12500000  0.87500000  0.87500000
   0.62500000  0.12500000  0.62500000
   0.75000000  0.75000000  0.75000000
   0.50000000 -0.00000000 -0.00000000
   0.37500000  0.37500000  0.12500000
   0.87500000  0.62500000  0.37500000
   0.12500000  0.37500000  0.37500000
   0.62500000  0.62500000  0.12500000
   0.75000000  0.25000000  0.25000000
   0.50000000  0.50000000  0.50000000
   0.37558741  0.37558741  0.37558741
   0.87441259  0.12558741  0.12558741
   0.62558741  0.12558741  0.37441259
   0.12558741  0.87441259  0.12558741
   0.12441259  0.12441259  0.37558741
   0.12441259  0.37558741  0.12441259
   0.37441259  0.87441259  0.37441259
   0.37558741  0.12441259  0.12441259
   0.37558741  0.87558741  0.87558741
   0.87441259  0.62558741  0.62558741
   0.62558741  0.62558741  0.87441259
   0.12558741  0.37441259  0.62558741
   0.12441259  0.62441259  0.87558741
   0.12441259  0.87558741  0.62441259
   0.37441259  0.37441259  0.87441259
   0.37558741  0.62441259  0.62441259
   0.87558741  0.37558741  0.87558741
   0.37441259  0.12558741  0.62558741
   0.12558741  0.12558741  0.87441259
   0.62558741  0.87441259  0.62558741
   0.62441259  0.12441259  0.87558741
   0.62441259  0.37558741  0.62441259
   0.87441259  0.87441259  0.87441259
   0.87558741  0.12441259  0.62441259
   0.87558741  0.87558741  0.37558741
   0.37441259  0.62558741  0.12558741
   0.12558741  0.62558741  0.37441259
   0.62558741  0.37441259  0.12558741
   0.62441259  0.62441259  0.37558741
   0.62441259  0.87558741  0.12441259
   0.87441259  0.37441259  0.37441259
   0.87558741  0.62441259  0.12441259
Direct configuration=     3
   0.87500000  0.87500000  0.12500000
   0.37500000  0.12500000  0.37500000
   0.62500000  0.87500000  0.37500000
   0.12500000  0.12500000  0.12500000
   0.25000000  0.75000000  0.25000000
   0.00000000 -0.00000000  0.50000000
   0.87500000  0.37500000  0.62500000
   0.37500000  0.62500000  0.87500000
   0.62500000  0.37500000  0.87500000
   0.12500000  0.62500000  0.62500000
   0.25000000  0.25000000  0.75000000
   0.00000000  0.50000000 -0.00000000
   0.37500000  0.87500000  0.62500000
   0.87500000  0.12500000  0.87500000
   0.12500000  0.87500000  0.87500000
   0.62500000  0.12500000  0.62500000
   0.75000000  0.75000000  0.75000000
   0.50000000 -0.00000000 -0.00000000
   0.37500000  0.37500000  0.12500000
   0.87500000  0.62500000  0.37500000
   0.12500000  0.37500000  0.37500000
   0.62500000  0.62500000  0.12500000
   0.75000000  0.25000000  0.25000000
   0.50000000  0.50000000  0.50000000
   0.37569648  0.37569648  0.37569648
   0.87430352  0.12569648  0.12569648
   0.62569648  0.12569648  0.37430352
   0.12569648  0.87430352  0.12569648
   0.12430352  0.12430352  0.37569648
   0.12430352  0.37569648  0.12430352
   0.37430352  0.87430352  0.37430352
   0.37569648  0.12430352  0.12430352
   0.37569648  0.87569648  0.87569648
   0.87430352  0.62569648  0.62569648
   0.62569648  0.62569648  0.87430352
   0.12569648  0.37430352  0.62569648
   0.12430352  0.62430352  0.87569648
   0.12430352  0.87569648  0.62430352
   0.37430352  0.37430352  0.87430352
   0.37569648  0.62430352  0.62430352
   0.87569648  0.37569648  0.87569648
   0.37430352  0.12569648  0.62569648
   0.12569648  0.12569648  0.87430352
   0.62569648  0.87430352  0.62569648
   0.62430352  0.12430352  0.87569648
   0.62430352  0.37569648  0.62430352
   0.87430352  0.87430352  0.87430352
   0.87569648  0.12430352  0.62430352
   0.87569648  0.87569648  0.37569648
   0.37430352  0.62569648  0.12569648
   0.12569648  0.62569648  0.37430352
   0.62569648  0.37430352  0.12569648
   0.62430352  0.62430352  0.37569648
   0.62430352  0.87569648  0.12430352
   0.87430352  0.37430352  0.37430352
   0.87569648  0.62430352  0.12430352
