  28  28   0   0
  0.1198955E+02  0.8457603E-09  0.8457603E-09  0.5419209E-09  0.5000000E-15
  1.000000000000000E-004
  CAR 
 unknown system                          
     14.58000478    -12.16145456  301      7.98887222      1.00000000
    -12.161  0.0000E+00  0.0000E+00
    -12.072  0.0000E+00  0.0000E+00
    -11.983  0.0000E+00  0.0000E+00
    -11.894  0.0000E+00  0.0000E+00
    -11.805  0.6003E-33  0.5351E-34
    -11.716  0.8962E-27  0.7989E-28
    -11.627  0.2590E-21  0.2309E-22
    -11.537  0.1479E-16  0.1318E-17
    -11.448  0.1649E-12  0.1470E-13
    -11.359  0.3572E-09  0.3186E-10
    -11.270  0.1452E-06  0.1298E-07
    -11.181  0.9859E-05  0.8918E-06
    -11.092  0.5317E-04  0.5631E-05
    -11.003 -0.4420E-03 -0.3377E-04
    -10.914  0.3635E-02  0.2902E-03
    -10.824  0.1893E-01  0.1978E-02
    -10.735  0.3144E-01  0.4781E-02
    -10.646  0.4155E-01  0.8484E-02
    -10.557  0.3733E-01  0.1181E-01
    -10.468  0.4869E-01  0.1615E-01
    -10.379  0.5680E-01  0.2121E-01
    -10.290  0.9794E-01  0.2994E-01
    -10.200  0.7566E-01  0.3669E-01
    -10.111  0.8390E-01  0.4417E-01
    -10.022  0.7420E-01  0.5078E-01
     -9.933  0.3032E-01  0.5348E-01
     -9.844  0.3989E-01  0.5704E-01
     -9.755  0.4891E-02  0.5748E-01
     -9.666  0.3851E-01  0.6091E-01
     -9.576  0.9059E-01  0.6898E-01
     -9.487  0.3833E-01  0.7240E-01
     -9.398  0.1496E-01  0.7373E-01
     -9.309  0.9417E-01  0.8213E-01
     -9.220  0.1448E+00  0.9504E-01
     -9.131  0.7125E-01  0.1014E+00
     -9.042  0.5799E-01  0.1066E+00
     -8.952  0.5222E-01  0.1112E+00
     -8.863  0.2796E-01  0.1137E+00
     -8.774  0.7354E-01  0.1203E+00
     -8.685  0.1118E+00  0.1302E+00
     -8.596  0.1596E+00  0.1445E+00
     -8.507  0.1430E+00  0.1572E+00
     -8.418  0.1368E+00  0.1694E+00
     -8.329  0.1198E+00  0.1801E+00
     -8.239  0.8462E-01  0.1876E+00
     -8.150  0.8624E-01  0.1953E+00
     -8.061  0.1278E+00  0.2067E+00
     -7.972  0.2442E+00  0.2285E+00
     -7.883  0.1285E+00  0.2399E+00
     -7.794  0.1975E-02  0.2401E+00
     -7.705 -0.1557E-02  0.2400E+00
     -7.615  0.4380E-03  0.2400E+00
     -7.526  0.1816E-04  0.2400E+00
     -7.437  0.9594E-07  0.2400E+00
     -7.348  0.8784E-10  0.2400E+00
     -7.259  0.1524E-13  0.2400E+00
     -7.170  0.1730E-18  0.2400E+00
     -7.081  0.0000E+00  0.2400E+00
     -6.991  0.0000E+00  0.2400E+00
     -6.902  0.0000E+00  0.2400E+00
     -6.813  0.0000E+00  0.2400E+00
     -6.724  0.0000E+00  0.2400E+00
     -6.635  0.0000E+00  0.2400E+00
     -6.546  0.0000E+00  0.2400E+00
     -6.457  0.0000E+00  0.2400E+00
     -6.367  0.0000E+00  0.2400E+00
     -6.278  0.0000E+00  0.2400E+00
     -6.189  0.0000E+00  0.2400E+00
     -6.100  0.0000E+00  0.2400E+00
     -6.011  0.0000E+00  0.2400E+00
     -5.922  0.0000E+00  0.2400E+00
     -5.833  0.0000E+00  0.2400E+00
     -5.744  0.0000E+00  0.2400E+00
     -5.654  0.0000E+00  0.2400E+00
     -5.565  0.0000E+00  0.2400E+00
     -5.476  0.0000E+00  0.2400E+00
     -5.387  0.0000E+00  0.2400E+00
     -5.298  0.0000E+00  0.2400E+00
     -5.209  0.0000E+00  0.2400E+00
     -5.120  0.0000E+00  0.2400E+00
     -5.030  0.0000E+00  0.2400E+00
     -4.941  0.0000E+00  0.2400E+00
     -4.852  0.0000E+00  0.2400E+00
     -4.763  0.0000E+00  0.2400E+00
     -4.674  0.2393E-31  0.2400E+00
     -4.585  0.2291E-25  0.2400E+00
     -4.496  0.4263E-20  0.2400E+00
     -4.406  0.1521E-15  0.2400E+00
     -4.317  0.1013E-11  0.2400E+00
     -4.228  0.1209E-08  0.2400E+00
     -4.139  0.2401E-06  0.2400E+00
     -4.050  0.6680E-05  0.2400E+00
     -3.961  0.3804E-05  0.2400E+00
     -3.872 -0.1044E-03  0.2400E+00
     -3.782  0.2084E-02  0.2402E+00
     -3.693  0.9376E-02  0.2410E+00
     -3.604  0.6887E-02  0.2416E+00
     -3.515  0.1768E-01  0.2432E+00
     -3.426  0.1728E-01  0.2447E+00
     -3.337  0.1021E-01  0.2457E+00
     -3.248  0.3604E-01  0.2489E+00
     -3.158  0.2079E-01  0.2507E+00
     -3.069  0.2123E-01  0.2526E+00
     -2.980  0.3376E-01  0.2556E+00
     -2.891  0.1531E-01  0.2570E+00
     -2.802  0.5609E-01  0.2620E+00
     -2.713  0.7036E-01  0.2683E+00
     -2.624  0.5676E-01  0.2733E+00
     -2.535  0.9962E-01  0.2822E+00
     -2.445  0.9163E-01  0.2904E+00
     -2.356  0.7179E-01  0.2968E+00
     -2.267  0.6307E-01  0.3024E+00
     -2.178  0.6184E-01  0.3079E+00
     -2.089  0.5330E-01  0.3126E+00
     -2.000  0.5414E-01  0.3175E+00
     -1.911  0.8942E-01  0.3254E+00
     -1.821  0.1125E+00  0.3355E+00
     -1.732  0.1176E+00  0.3460E+00
     -1.643  0.9832E-01  0.3547E+00
     -1.554  0.1187E+00  0.3653E+00
     -1.465  0.1172E+00  0.3757E+00
     -1.376  0.8416E-01  0.3832E+00
     -1.287  0.1210E+00  0.3940E+00
     -1.197  0.8385E-01  0.4015E+00
     -1.108  0.4832E-01  0.4058E+00
     -1.019  0.3061E-01  0.4085E+00
     -0.930  0.7611E-02  0.4092E+00
     -0.841  0.3406E-01  0.4123E+00
     -0.752  0.3844E-01  0.4157E+00
     -0.663  0.2521E-01  0.4179E+00
     -0.573  0.6018E-01  0.4233E+00
     -0.484  0.9853E-01  0.4321E+00
     -0.395  0.1004E+00  0.4410E+00
     -0.306  0.9463E-01  0.4495E+00
     -0.217  0.8396E-01  0.4569E+00
     -0.128  0.6859E-01  0.4631E+00
     -0.039  0.1069E+00  0.4726E+00
      0.050  0.8513E-01  0.4802E+00
      0.140  0.7294E-01  0.4867E+00
      0.229  0.7629E-01  0.4935E+00
      0.318  0.5098E-01  0.4980E+00
      0.407  0.8077E-01  0.5052E+00
      0.496  0.8615E-01  0.5129E+00
      0.585  0.1184E+00  0.5235E+00
      0.674  0.1075E+00  0.5330E+00
      0.764  0.9120E-01  0.5412E+00
      0.853  0.1319E+00  0.5529E+00
      0.942  0.1066E+00  0.5624E+00
      1.031  0.1255E+00  0.5736E+00
      1.120  0.9964E-01  0.5825E+00
      1.209  0.8227E-01  0.5898E+00
      1.298  0.1408E+00  0.6024E+00
      1.388  0.1492E+00  0.6157E+00
      1.477  0.8955E-01  0.6237E+00
      1.566  0.1105E+00  0.6335E+00
      1.655  0.1258E+00  0.6447E+00
      1.744  0.1023E+00  0.6538E+00
      1.833  0.1040E+00  0.6631E+00
      1.922  0.1401E+00  0.6756E+00
      2.012  0.1569E+00  0.6896E+00
      2.101  0.1457E+00  0.7026E+00
      2.190  0.8977E-01  0.7106E+00
      2.279  0.1167E+00  0.7210E+00
      2.368  0.1028E+00  0.7301E+00
      2.457  0.1446E+00  0.7430E+00
      2.546  0.1255E+00  0.7542E+00
      2.635  0.9614E-01  0.7628E+00
      2.725  0.1238E+00  0.7738E+00
      2.814  0.1114E+00  0.7837E+00
      2.903  0.1216E+00  0.7946E+00
      2.992  0.1228E+00  0.8055E+00
      3.081  0.1297E+00  0.8171E+00
      3.170  0.1194E+00  0.8277E+00
      3.259  0.1078E+00  0.8373E+00
      3.349  0.9828E-01  0.8461E+00
      3.438  0.1005E+00  0.8551E+00
      3.527  0.1065E+00  0.8646E+00
      3.616  0.7891E-01  0.8716E+00
      3.705  0.1115E+00  0.8815E+00
      3.794  0.9361E-01  0.8899E+00
      3.883  0.1440E+00  0.9027E+00
      3.973  0.1190E+00  0.9133E+00
      4.062  0.6960E-01  0.9195E+00
      4.151  0.8013E-01  0.9267E+00
      4.240  0.1183E+00  0.9372E+00
      4.329  0.1369E+00  0.9494E+00
      4.418  0.1160E+00  0.9597E+00
      4.507  0.1300E+00  0.9713E+00
      4.597  0.1057E+00  0.9808E+00
      4.686  0.7271E-01  0.9872E+00
      4.775  0.1066E+00  0.9967E+00
      4.864  0.1281E+00  0.1008E+01
      4.953  0.2016E+00  0.1026E+01
      5.042  0.1274E+00  0.1037E+01
      5.131  0.6635E-01  0.1043E+01
      5.220  0.8523E-01  0.1051E+01
      5.310  0.6953E-01  0.1057E+01
      5.399  0.5607E-01  0.1062E+01
      5.488  0.8685E-01  0.1070E+01
      5.577  0.1620E+00  0.1084E+01
      5.666  0.1347E+00  0.1096E+01
      5.755  0.1642E+00  0.1111E+01
      5.844  0.1479E+00  0.1124E+01
      5.934  0.8035E-01  0.1131E+01
      6.023  0.5121E-01  0.1136E+01
      6.112  0.4020E-01  0.1140E+01
      6.201  0.7781E-01  0.1146E+01
      6.290  0.7265E-01  0.1153E+01
      6.379  0.1007E+00  0.1162E+01
      6.468  0.1119E+00  0.1172E+01
      6.558  0.1241E+00  0.1183E+01
      6.647  0.8309E-01  0.1190E+01
      6.736  0.5931E-01  0.1196E+01
      6.825  0.2657E-01  0.1198E+01
      6.914  0.5560E-01  0.1203E+01
      7.003  0.1009E+00  0.1212E+01
      7.092  0.5892E-01  0.1217E+01
      7.182  0.4273E-02  0.1218E+01
      7.271 -0.9894E-03  0.1217E+01
      7.360  0.2146E-03  0.1218E+01
      7.449 -0.2924E-04  0.1217E+01
      7.538  0.1400E-03  0.1218E+01
      7.627  0.5115E-02  0.1218E+01
      7.716  0.1771E-01  0.1220E+01
      7.806  0.3703E-01  0.1223E+01
      7.895  0.5362E-01  0.1228E+01
      7.984  0.1282E+00  0.1239E+01
      8.073  0.1670E+00  0.1254E+01
      8.162  0.6897E-01  0.1260E+01
      8.251  0.2520E-01  0.1262E+01
      8.340  0.2155E-02  0.1263E+01
      8.429 -0.3436E-03  0.1262E+01
      8.519  0.8564E-04  0.1262E+01
      8.608  0.7478E-05  0.1262E+01
      8.697  0.7981E-07  0.1262E+01
      8.786  0.1487E-09  0.1262E+01
      8.875  0.1416E-11  0.1263E+01
      8.964  0.3446E-08  0.1263E+01
      9.053  0.1486E-05  0.1263E+01
      9.143  0.8684E-04  0.1263E+01
      9.232 -0.1311E-03  0.1262E+01
      9.321 -0.2001E-02  0.1262E+01
      9.410  0.3416E-01  0.1265E+01
      9.499  0.2652E-01  0.1268E+01
      9.588 -0.2739E-02  0.1267E+01
      9.677  0.4223E-03  0.1268E+01
      9.767  0.1403E-02  0.1268E+01
      9.856  0.6735E-02  0.1268E+01
      9.945  0.1321E-01  0.1269E+01
     10.034  0.1405E-01  0.1271E+01
     10.123  0.1935E-01  0.1272E+01
     10.212  0.3120E-01  0.1275E+01
     10.301  0.6336E-01  0.1281E+01
     10.391  0.1122E+00  0.1291E+01
     10.480  0.1389E+00  0.1303E+01
     10.569  0.1624E+00  0.1318E+01
     10.658  0.1033E+00  0.1327E+01
     10.747  0.8159E-01  0.1334E+01
     10.836  0.1062E+00  0.1344E+01
     10.925  0.8100E-01  0.1351E+01
     11.014  0.4290E-01  0.1355E+01
     11.104  0.4869E-01  0.1359E+01
     11.193  0.4828E-01  0.1363E+01
     11.282  0.6133E-01  0.1369E+01
     11.371  0.6176E-01  0.1374E+01
     11.460  0.8996E-01  0.1382E+01
     11.549  0.1338E+00  0.1394E+01
     11.638  0.8389E-01  0.1402E+01
     11.728  0.8531E-01  0.1409E+01
     11.817  0.1155E+00  0.1420E+01
     11.906  0.1070E+00  0.1429E+01
     11.995  0.9305E-01  0.1437E+01
     12.084  0.8166E-01  0.1445E+01
     12.173  0.9862E-01  0.1454E+01
     12.262  0.1152E+00  0.1464E+01
     12.352  0.1364E+00  0.1476E+01
     12.441  0.1065E+00  0.1485E+01
     12.530  0.1418E+00  0.1498E+01
     12.619  0.1585E+00  0.1512E+01
     12.708  0.1646E+00  0.1527E+01
     12.797  0.1828E+00  0.1543E+01
     12.886  0.1903E+00  0.1560E+01
     12.976  0.1722E+00  0.1575E+01
     13.065  0.1510E+00  0.1589E+01
     13.154  0.8386E-01  0.1596E+01
     13.243  0.3505E-01  0.1600E+01
     13.332  0.2998E-02  0.1600E+01
     13.421  0.2077E-02  0.1600E+01
     13.510  0.1771E-04  0.1600E+01
     13.599 -0.8760E-05  0.1600E+01
     13.689  0.6633E-05  0.1600E+01
     13.778  0.1552E-06  0.1600E+01
     13.867  0.4944E-09  0.1600E+01
     13.956  0.2667E-12  0.1600E+01
     14.045  0.2595E-16  0.1600E+01
     14.134  0.0000E+00  0.1600E+01
     14.223  0.0000E+00  0.1600E+01
     14.313  0.0000E+00  0.1600E+01
     14.402  0.0000E+00  0.1600E+01
     14.491  0.0000E+00  0.1600E+01
     14.580  0.0000E+00  0.1600E+01
