   28   28  100    1
  0.1198955E+02  0.8457603E-09  0.8457603E-09  0.5419209E-09  0.5000000E-15
  1.000000000000000E-004
  CAR 
 unknown system                          
    124     44     80
 
  0.3742002E-15  0.3742002E-15  0.3742002E-15  0.3472222E-02
    1      -10.945934   1.000000
    2      -10.243662   1.000000
    3      -10.243662   1.000000
    4       -9.367831   1.000000
    5       -9.367831   1.000000
    6       -8.673472   1.000000
    7       -8.245441   1.000000
    8       -8.229029   1.000000
    9       -8.229029   1.000000
   10       -8.175108   1.000000
   11       -8.098823   1.000000
   12       -8.098823   1.000000
   13       -3.837090   1.000000
   14       -2.852727   1.000000
   15       -2.852727   1.000000
   16       -2.576016   1.000000
   17       -1.793570   1.000000
   18       -1.589999   1.000000
   19       -1.589998   1.000000
   20       -1.065062   1.000000
   21       -0.667989   1.000000
   22       -0.667989   1.000000
   23       -0.395084   1.000000
   24        0.027533   1.000000
   25        0.027534   1.000000
   26        0.324080   1.000000
   27        0.393780   1.000000
   28        1.012853   1.000000
   29        1.081017   1.000000
   30        1.081017   1.000000
   31        1.330675   1.000000
   32        1.861716   1.000000
   33        1.861716   1.000000
   34        1.959643   1.000000
   35        2.159631   1.000000
   36        2.159631   1.000000
   37        2.488779   1.000000
   38        2.510580   1.000000
   39        2.510581   1.000000
   40        2.899864   1.000000
   41        2.899864   1.000000
   42        3.621767   1.000000
   43        3.621767   1.000000
   44        3.666131   1.000000
   45        3.760887   1.000000
   46        3.760887   1.000000
   47        4.285008   1.000000
   48        4.374418   1.000000
   49        4.669885   1.000000
   50        4.785225   1.000000
   51        4.785225   1.000000
   52        5.106418   1.000000
   53        5.285564   1.000000
   54        5.425653   1.000000
   55        5.425653   1.000000
   56        5.807752   1.000000
   57        5.807752   1.000000
   58        6.509554   1.000000
   59        6.509554   1.000000
   60        7.039389   1.000000
   61        7.039389   1.000000
   62        7.553119   1.000000
   63        8.268242   0.000731
   64        9.704645   0.000000
   65        9.704645   0.000000
   66       10.568263   0.000000
   67       10.568263   0.000000
   68       11.034921   0.000000
   69       11.034921   0.000000
   70       11.175764   0.000000
   71       11.755334   0.000000
   72       11.911865   0.000000
   73       12.224000   0.000000
   74       12.224000   0.000000
   75       12.397334   0.000000
   76       12.813485   0.000000
   77       12.867935   0.000000
   78       12.867935   0.000000
   79       13.147973   0.000000
   80       13.151280   0.000000
 
  0.1666667E+00  0.1242260E-14  0.3742002E-15  0.2083333E-01
    1      -10.913000   1.000000
    2      -10.310697   1.000000
    3      -10.268826   1.000000
    4       -9.334531   1.000000
    5       -9.295607   1.000000
    6       -8.641252   1.000000
    7       -8.381098   1.000000
    8       -8.247643   1.000000
    9       -8.211741   1.000000
   10       -8.166299   1.000000
   11       -8.098810   1.000000
   12       -8.060663   1.000000
   13       -3.751228   1.000000
   14       -2.862307   1.000000
   15       -2.768957   1.000000
   16       -2.519770   1.000000
   17       -1.872162   1.000000
   18       -1.666822   1.000000
   19       -1.593301   1.000000
   20       -1.297813   1.000000
   21       -0.899661   1.000000
   22       -0.592710   1.000000
   23       -0.417721   1.000000
   24       -0.038289   1.000000
   25        0.178850   1.000000
   26        0.460398   1.000000
   27        0.575376   1.000000
   28        1.003004   1.000000
   29        1.015867   1.000000
   30        1.066254   1.000000
   31        1.399020   1.000000
   32        1.749057   1.000000
   33        1.901294   1.000000
   34        1.977981   1.000000
   35        2.158061   1.000000
   36        2.200161   1.000000
   37        2.491929   1.000000
   38        2.503765   1.000000
   39        2.705413   1.000000
   40        2.932038   1.000000
   41        2.953706   1.000000
   42        3.498219   1.000000
   43        3.556004   1.000000
   44        3.647251   1.000000
   45        3.803127   1.000000
   46        3.856111   1.000000
   47        4.256852   1.000000
   48        4.286038   1.000000
   49        4.401290   1.000000
   50        4.840644   1.000000
   51        4.999426   1.000000
   52        5.124872   1.000000
   53        5.269437   1.000000
   54        5.454811   1.000000
   55        5.542168   1.000000
   56        5.739143   1.000000
   57        5.807125   1.000000
   58        6.391321   1.000000
   59        6.443111   1.000000
   60        6.924718   1.000000
   61        7.025385   1.000000
   62        7.598206   0.999998
   63        8.197186   0.004827
   64        9.824804   0.000000
   65        9.891910   0.000000
   66       10.503662   0.000000
   67       10.537969   0.000000
   68       11.021906   0.000000
   69       11.165380   0.000000
   70       11.346964   0.000000
   71       11.648257   0.000000
   72       11.943100   0.000000
   73       12.067865   0.000000
   74       12.275921   0.000000
   75       12.514491   0.000000
   76       12.663228   0.000000
   77       12.868199   0.000000
   78       12.924477   0.000000
   79       13.067127   0.000000
   80       13.149926   0.000000
 
  0.3333333E+00  0.3084167E-15  0.3742002E-15  0.2083333E-01
    1      -10.820651   1.000000
    2      -10.463474   1.000000
    3      -10.312376   1.000000
    4       -9.283056   1.000000
    5       -9.107564   1.000000
    6       -8.605107   1.000000
    7       -8.553417   1.000000
    8       -8.308078   1.000000
    9       -8.218020   1.000000
   10       -8.150044   1.000000
   11       -8.098360   1.000000
   12       -8.033949   1.000000
   13       -3.508702   1.000000
   14       -2.894414   1.000000
   15       -2.592355   1.000000
   16       -2.438445   1.000000
   17       -2.090145   1.000000
   18       -1.773418   1.000000
   19       -1.650110   1.000000
   20       -1.538565   1.000000
   21       -1.262640   1.000000
   22       -0.477408   1.000000
   23       -0.451956   1.000000
   24       -0.227726   1.000000
   25        0.331529   1.000000
   26        0.685833   1.000000
   27        0.791548   1.000000
   28        0.864112   1.000000
   29        1.121019   1.000000
   30        1.211230   1.000000
   31        1.580322   1.000000
   32        1.629651   1.000000
   33        1.862444   1.000000
   34        1.919871   1.000000
   35        2.089957   1.000000
   36        2.277057   1.000000
   37        2.493434   1.000000
   38        2.533963   1.000000
   39        2.901508   1.000000
   40        2.983846   1.000000
   41        3.055993   1.000000
   42        3.383311   1.000000
   43        3.443953   1.000000
   44        3.659447   1.000000
   45        3.802960   1.000000
   46        4.018345   1.000000
   47        4.186579   1.000000
   48        4.332557   1.000000
   49        4.403306   1.000000
   50        4.810401   1.000000
   51        4.942965   1.000000
   52        5.155983   1.000000
   53        5.178393   1.000000
   54        5.435666   1.000000
   55        5.589985   1.000000
   56        5.713174   1.000000
   57        5.832416   1.000000
   58        6.187964   1.000000
   59        6.346551   1.000000
   60        6.710802   1.000000
   61        7.066489   1.000000
   62        7.706700   0.999348
   63        8.053654  -0.005198
   64       10.065035   0.000000
   65       10.302039   0.000000
   66       10.374640   0.000000
   67       10.542036   0.000000
   68       10.981761   0.000000
   69       11.360778   0.000000
   70       11.511808   0.000000
   71       11.617396   0.000000
   72       11.776852   0.000000
   73       12.108800   0.000000
   74       12.413817   0.000000
   75       12.515656   0.000000
   76       12.680867   0.000000
   77       12.692556   0.000000
   78       12.858989   0.000000
   79       12.922154   0.000000
   80       13.024383   0.000000
 
  0.5000000E+00  0.3150873E-15  0.3742002E-15  0.1041667E-01
    1      -10.726351   1.000000
    2      -10.584938   1.000000
    3      -10.331624   1.000000
    4       -9.262688   1.000000
    5       -8.863352   1.000000
    6       -8.858729   1.000000
    7       -8.470762   1.000000
    8       -8.376530   1.000000
    9       -8.221000   1.000000
   10       -8.141795   1.000000
   11       -8.097716   1.000000
   12       -8.030490   1.000000
   13       -3.267506   1.000000
   14       -2.995604   1.000000
   15       -2.609251   1.000000
   16       -2.391791   1.000000
   17       -1.998845   1.000000
   18       -1.934187   1.000000
   19       -1.751550   1.000000
   20       -1.554071   1.000000
   21       -1.436431   1.000000
   22       -0.504125   1.000000
   23       -0.377258   1.000000
   24       -0.338566   1.000000
   25        0.429243   1.000000
   26        0.649780   1.000000
   27        0.769090   1.000000
   28        0.987239   1.000000
   29        1.268006   1.000000
   30        1.291526   1.000000
   31        1.486544   1.000000
   32        1.719728   1.000000
   33        1.857119   1.000000
   34        1.935437   1.000000
   35        2.031089   1.000000
   36        2.339492   1.000000
   37        2.343385   1.000000
   38        2.563822   1.000000
   39        2.857593   1.000000
   40        3.039178   1.000000
   41        3.166530   1.000000
   42        3.366607   1.000000
   43        3.448709   1.000000
   44        3.560952   1.000000
   45        3.816746   1.000000
   46        4.156356   1.000000
   47        4.202737   1.000000
   48        4.452790   1.000000
   49        4.551609   1.000000
   50        4.758962   1.000000
   51        4.766758   1.000000
   52        5.090768   1.000000
   53        5.189427   1.000000
   54        5.351154   1.000000
   55        5.524812   1.000000
   56        5.743208   1.000000
   57        5.747878   1.000000
   58        6.089342   1.000000
   59        6.492910   1.000000
   60        6.542311   1.000000
   61        7.110626   1.000000
   62        7.796838   0.995421
   63        7.952960   0.844322
   64       10.237955   0.000000
   65       10.270401   0.000000
   66       10.481809   0.000000
   67       10.717249   0.000000
   68       10.806482   0.000000
   69       11.465773   0.000000
   70       11.528627   0.000000
   71       11.533159   0.000000
   72       11.855923   0.000000
   73       12.114755   0.000000
   74       12.372509   0.000000
   75       12.498799   0.000000
   76       12.635380   0.000000
   77       12.671122   0.000000
   78       12.746409   0.000000
   79       12.883526   0.000000
   80       12.915060   0.000000
 
  0.1666667E+00  0.1666667E+00  0.3742002E-15  0.2083333E-01
    1      -10.849968   1.000000
    2      -10.407721   1.000000
    3      -10.316749   1.000000
    4       -9.258915   1.000000
    5       -9.199999   1.000000
    6       -8.579804   1.000000
    7       -8.543128   1.000000
    8       -8.272313   1.000000
    9       -8.228158   1.000000
   10       -8.154108   1.000000
   11       -8.097093   1.000000
   12       -8.040318   1.000000
   13       -3.584816   1.000000
   14       -2.855600   1.000000
   15       -2.664063   1.000000
   16       -2.454916   1.000000
   17       -1.989167   1.000000
   18       -1.839351   1.000000
   19       -1.589108   1.000000
   20       -1.514153   1.000000
   21       -1.110793   1.000000
   22       -0.576614   1.000000
   23       -0.437726   1.000000
   24       -0.143150   1.000000
   25        0.261066   1.000000
   26        0.686828   1.000000
   27        0.745009   1.000000
   28        0.906335   1.000000
   29        1.047166   1.000000
   30        1.170631   1.000000
   31        1.541844   1.000000
   32        1.659497   1.000000
   33        1.858555   1.000000
   34        2.033267   1.000000
   35        2.037760   1.000000
   36        2.247277   1.000000
   37        2.510847   1.000000
   38        2.534271   1.000000
   39        2.868929   1.000000
   40        2.962512   1.000000
   41        2.983652   1.000000
   42        3.423571   1.000000
   43        3.462512   1.000000
   44        3.670302   1.000000
   45        3.850043   1.000000
   46        3.917046   1.000000
   47        4.192265   1.000000
   48        4.314956   1.000000
   49        4.382379   1.000000
   50        4.924278   1.000000
   51        4.925555   1.000000
   52        5.138557   1.000000
   53        5.210808   1.000000
   54        5.470310   1.000000
   55        5.584920   1.000000
   56        5.663579   1.000000
   57        5.844807   1.000000
   58        6.182220   1.000000
   59        6.392968   1.000000
   60        6.796802   1.000000
   61        7.035796   1.000000
   62        7.673679   0.999857
   63        8.092756  -0.049659
   64       10.020995   0.000000
   65       10.166979   0.000000
   66       10.418775   0.000000
   67       10.489783   0.000000
   68       11.151768   0.000000
   69       11.158478   0.000000
   70       11.548603   0.000000
   71       11.590873   0.000000
   72       11.859139   0.000000
   73       12.187719   0.000000
   74       12.307296   0.000000
   75       12.462406   0.000000
   76       12.679140   0.000000
   77       12.709019   0.000000
   78       12.792725   0.000000
   79       13.017827   0.000000
   80       13.041060   0.000000
 
  0.3333333E+00  0.1666667E+00  0.3742002E-15  0.4166667E-01
    1      -10.740189   1.000000
    2      -10.546716   1.000000
    3      -10.363090   1.000000
    4       -9.195016   1.000000
    5       -9.016318   1.000000
    6       -8.774792   1.000000
    7       -8.481427   1.000000
    8       -8.330451   1.000000
    9       -8.244598   1.000000
   10       -8.142151   1.000000
   11       -8.090850   1.000000
   12       -8.040765   1.000000
   13       -3.297733   1.000000
   14       -2.880684   1.000000
   15       -2.643253   1.000000
   16       -2.492892   1.000000
   17       -2.040215   1.000000
   18       -1.895193   1.000000
   19       -1.699184   1.000000
   20       -1.569932   1.000000
   21       -1.383393   1.000000
   22       -0.518947   1.000000
   23       -0.437697   1.000000
   24       -0.317486   1.000000
   25        0.371255   1.000000
   26        0.712818   1.000000
   27        0.791372   1.000000
   28        0.967495   1.000000
   29        1.262561   1.000000
   30        1.315662   1.000000
   31        1.562606   1.000000
   32        1.712869   1.000000
   33        1.793993   1.000000
   34        1.962140   1.000000
   35        2.055778   1.000000
   36        2.238006   1.000000
   37        2.389616   1.000000
   38        2.632903   1.000000
   39        2.865695   1.000000
   40        2.927742   1.000000
   41        3.079529   1.000000
   42        3.326079   1.000000
   43        3.364984   1.000000
   44        3.716364   1.000000
   45        3.862307   1.000000
   46        4.144906   1.000000
   47        4.283592   1.000000
   48        4.440146   1.000000
   49        4.486734   1.000000
   50        4.796108   1.000000
   51        4.923544   1.000000
   52        5.101877   1.000000
   53        5.175168   1.000000
   54        5.374377   1.000000
   55        5.548354   1.000000
   56        5.572596   1.000000
   57        5.709892   1.000000
   58        5.930331   1.000000
   59        6.546329   1.000000
   60        6.704788   1.000000
   61        7.069122   1.000000
   62        7.783623   0.995095
   63        7.965469   0.737334
   64       10.225535   0.000000
   65       10.285868   0.000000
   66       10.447431   0.000000
   67       10.625638   0.000000
   68       10.945927   0.000000
   69       11.272528   0.000000
   70       11.597961   0.000000
   71       11.737477   0.000000
   72       11.814276   0.000000
   73       12.161098   0.000000
   74       12.283480   0.000000
   75       12.470219   0.000000
   76       12.571444   0.000000
   77       12.726534   0.000000
   78       12.784212   0.000000
   79       12.906750   0.000000
   80       12.939480   0.000000
 
  0.3333333E+00  0.3333333E+00  0.3742002E-15  0.6944444E-02
    1      -10.636026   1.000000
    2      -10.636026   1.000000
    3      -10.407459   1.000000
    4       -9.049613   1.000000
    5       -8.966128   1.000000
    6       -8.966128   1.000000
    7       -8.430110   1.000000
    8       -8.304110   1.000000
    9       -8.304110   1.000000
   10       -8.138784   1.000000
   11       -8.067217   1.000000
   12       -8.067217   1.000000
   13       -3.108305   1.000000
   14       -2.746645   1.000000
   15       -2.744172   1.000000
   16       -2.744172   1.000000
   17       -1.939108   1.000000
   18       -1.939108   1.000000
   19       -1.589104   1.000000
   20       -1.589104   1.000000
   21       -1.568267   1.000000
   22       -0.485969   1.000000
   23       -0.431350   1.000000
   24       -0.431350   1.000000
   25        0.372681   1.000000
   26        0.760275   1.000000
   27        0.760275   1.000000
   28        1.033617   1.000000
   29        1.390406   1.000000
   30        1.390406   1.000000
   31        1.645782   1.000000
   32        1.645783   1.000000
   33        1.678377   1.000000
   34        2.125711   1.000000
   35        2.144402   1.000000
   36        2.144402   1.000000
   37        2.203101   1.000000
   38        2.769120   1.000000
   39        2.769120   1.000000
   40        2.839879   1.000000
   41        3.189052   1.000000
   42        3.189052   1.000000
   43        3.240719   1.000000
   44        3.856446   1.000000
   45        3.856446   1.000000
   46        4.273251   1.000000
   47        4.362387   1.000000
   48        4.522848   1.000000
   49        4.522849   1.000000
   50        4.818997   1.000000
   51        5.035864   1.000000
   52        5.035864   1.000000
   53        5.309285   1.000000
   54        5.309285   1.000000
   55        5.364291   1.000000
   56        5.522236   1.000000
   57        5.522236   1.000000
   58        5.713147   1.000000
   59        6.737728   1.000000
   60        6.737728   1.000000
   61        7.025729   1.000000
   62        7.872786   1.041257
   63        7.872786   1.041257
   64       10.282081   0.000000
   65       10.282081   0.000000
   66       10.571059   0.000000
   67       10.571059   0.000000
   68       10.938746   0.000000
   69       11.379143   0.000000
   70       11.379143   0.000000
   71       11.846822   0.000000
   72       11.930757   0.000000
   73       12.214046   0.000000
   74       12.214046   0.000000
   75       12.356585   0.000000
   76       12.491090   0.000000
   77       12.801563   0.000000
   78       12.801563   0.000000
   79       12.971077   0.000000
   80       12.971077   0.000000
 
  0.3742002E-15  0.3742002E-15  0.1250000E+00  0.6944444E-02
    1      -10.893879   1.000000
    2      -10.195927   1.000000
    3      -10.195927   1.000000
    4       -9.344539   1.000000
    5       -9.344539   1.000000
    6       -8.902994   1.000000
    7       -8.337668   1.000000
    8       -8.337668   1.000000
    9       -8.220353   1.000000
   10       -8.134761   1.000000
   11       -8.134761   1.000000
   12       -8.047544   1.000000
   13       -3.780747   1.000000
   14       -2.694884   1.000000
   15       -2.694884   1.000000
   16       -2.598717   1.000000
   17       -1.742024   1.000000
   18       -1.534245   1.000000
   19       -1.534245   1.000000
   20       -1.139089   1.000000
   21       -0.634617   1.000000
   22       -0.634617   1.000000
   23       -0.312083   1.000000
   24       -0.000173   1.000000
   25       -0.000173   1.000000
   26        0.087124   1.000000
   27        0.403879   1.000000
   28        1.093494   1.000000
   29        1.093494   1.000000
   30        1.309266   1.000000
   31        1.339346   1.000000
   32        1.813543   1.000000
   33        1.813543   1.000000
   34        1.928551   1.000000
   35        2.137388   1.000000
   36        2.137388   1.000000
   37        2.454841   1.000000
   38        2.454841   1.000000
   39        2.531224   1.000000
   40        2.812968   1.000000
   41        2.812968   1.000000
   42        3.589559   1.000000
   43        3.612820   1.000000
   44        3.612820   1.000000
   45        3.772322   1.000000
   46        3.772322   1.000000
   47        4.221321   1.000000
   48        4.228288   1.000000
   49        4.689790   1.000000
   50        4.689790   1.000000
   51        4.773936   1.000000
   52        4.949115   1.000000
   53        5.398844   1.000000
   54        5.398844   1.000000
   55        5.459119   1.000000
   56        5.878748   1.000000
   57        5.878748   1.000000
   58        6.516314   1.000000
   59        6.516314   1.000000
   60        6.997008   1.000000
   61        6.997008   1.000000
   62        7.639022   0.999979
   63        8.168860   0.002867
   64        9.818742   0.000000
   65        9.818742   0.000000
   66       10.615511   0.000000
   67       10.615511   0.000000
   68       11.150619   0.000000
   69       11.201287   0.000000
   70       11.201287   0.000000
   71       11.787735   0.000000
   72       12.130334   0.000000
   73       12.130334   0.000000
   74       12.133530   0.000000
   75       12.508599   0.000000
   76       12.691465   0.000000
   77       12.750027   0.000000
   78       12.750027   0.000000
   79       13.027158   0.000000
   80       13.027168   0.000000
 
  0.1666667E+00  0.1242260E-14  0.1250000E+00  0.4166667E-01
    1      -10.861270   1.000000
    2      -10.263234   1.000000
    3      -10.220697   1.000000
    4       -9.313120   1.000000
    5       -9.274450   1.000000
    6       -8.866623   1.000000
    7       -8.408148   1.000000
    8       -8.364487   1.000000
    9       -8.295709   1.000000
   10       -8.138679   1.000000
   11       -8.059588   1.000000
   12       -8.033817   1.000000
   13       -3.692701   1.000000
   14       -2.725469   1.000000
   15       -2.619129   1.000000
   16       -2.525630   1.000000
   17       -1.812392   1.000000
   18       -1.633202   1.000000
   19       -1.539298   1.000000
   20       -1.307459   1.000000
   21       -0.866421   1.000000
   22       -0.587516   1.000000
   23       -0.315287   1.000000
   24       -0.035344   1.000000
   25        0.071900   1.000000
   26        0.276246   1.000000
   27        0.547690   1.000000
   28        0.993940   1.000000
   29        1.038345   1.000000
   30        1.362780   1.000000
   31        1.374325   1.000000
   32        1.659323   1.000000
   33        1.864333   1.000000
   34        1.929579   1.000000
   35        2.109722   1.000000
   36        2.234276   1.000000
   37        2.440672   1.000000
   38        2.470797   1.000000
   39        2.694628   1.000000
   40        2.852993   1.000000
   41        2.901588   1.000000
   42        3.457322   1.000000
   43        3.549825   1.000000
   44        3.677028   1.000000
   45        3.771008   1.000000
   46        3.907324   1.000000
   47        4.110886   1.000000
   48        4.243249   1.000000
   49        4.577404   1.000000
   50        4.739402   1.000000
   51        4.908826   1.000000
   52        4.957790   1.000000
   53        5.329665   1.000000
   54        5.443546   1.000000
   55        5.550395   1.000000
   56        5.771204   1.000000
   57        5.862233   1.000000
   58        6.413354   1.000000
   59        6.441603   1.000000
   60        6.880118   1.000000
   61        6.989109   1.000000
   62        7.682857   0.999776
   63        8.131489  -0.016726
   64        9.923212   0.000000
   65        9.986565   0.000000
   66       10.572358   0.000000
   67       10.612141   0.000000
   68       11.106385   0.000000
   69       11.220859   0.000000
   70       11.344437   0.000000
   71       11.691021   0.000000
   72       12.024380   0.000000
   73       12.095514   0.000000
   74       12.309555   0.000000
   75       12.435425   0.000000
   76       12.533913   0.000000
   77       12.822830   0.000000
   78       12.859699   0.000000
   79       12.964069   0.000000
   80       13.173111   0.000000
 
  0.3333333E+00  0.3084167E-15  0.1250000E+00  0.4166667E-01
    1      -10.769910   1.000000
    2      -10.415448   1.000000
    3      -10.263744   1.000000
    4       -9.268700   1.000000
    5       -9.093052   1.000000
    6       -8.762797   1.000000
    7       -8.609519   1.000000
    8       -8.465689   1.000000
    9       -8.315602   1.000000
   10       -8.140805   1.000000
   11       -8.010237   1.000000
   12       -8.004504   1.000000
   13       -3.447045   1.000000
   14       -2.776029   1.000000
   15       -2.469466   1.000000
   16       -2.420353   1.000000
   17       -2.039166   1.000000
   18       -1.762507   1.000000
   19       -1.598058   1.000000
   20       -1.499179   1.000000
   21       -1.211264   1.000000
   22       -0.463409   1.000000
   23       -0.308787   1.000000
   24       -0.165062   1.000000
   25        0.152103   1.000000
   26        0.560007   1.000000
   27        0.694239   1.000000
   28        0.806915   1.000000
   29        1.046300   1.000000
   30        1.321309   1.000000
   31        1.579705   1.000000
   32        1.617850   1.000000
   33        1.827153   1.000000
   34        1.920741   1.000000
   35        2.060967   1.000000
   36        2.289039   1.000000
   37        2.473977   1.000000
   38        2.501295   1.000000
   39        2.790161   1.000000
   40        2.987569   1.000000
   41        3.078050   1.000000
   42        3.359004   1.000000
   43        3.460217   1.000000
   44        3.666343   1.000000
   45        3.821865   1.000000
   46        4.027422   1.000000
   47        4.192540   1.000000
   48        4.332801   1.000000
   49        4.514398   1.000000
   50        4.820927   1.000000
   51        4.900392   1.000000
   52        5.001245   1.000000
   53        5.157503   1.000000
   54        5.314422   1.000000
   55        5.624516   1.000000
   56        5.714200   1.000000
   57        5.853691   1.000000
   58        6.203149   1.000000
   59        6.302745   1.000000
   60        6.653099   1.000000
   61        7.024327   1.000000
   62        7.786011   0.995067
   63        8.045226   0.028608
   64       10.139840   0.000000
   65       10.327630   0.000000
   66       10.451354   0.000000
   67       10.617382   0.000000
   68       11.049125   0.000000
   69       11.323383   0.000000
   70       11.481084   0.000000
   71       11.651421   0.000000
   72       11.771567   0.000000
   73       12.118558   0.000000
   74       12.347691   0.000000
   75       12.498146   0.000000
   76       12.616780   0.000000
   77       12.713153   0.000000
   78       12.810282   0.000000
   79       12.901245   0.000000
   80       13.019897   0.000000
 
  0.5000000E+00  0.3150873E-15  0.1250000E+00  0.2083333E-01
    1      -10.676798   1.000000
    2      -10.535643   1.000000
    3      -10.282744   1.000000
    4       -9.252881   1.000000
    5       -8.876624   1.000000
    6       -8.833245   1.000000
    7       -8.651618   1.000000
    8       -8.571653   1.000000
    9       -8.319589   1.000000
   10       -8.141181   1.000000
   11       -7.996054   1.000000
   12       -7.991736   1.000000
   13       -3.208895   1.000000
   14       -2.889644   1.000000
   15       -2.520470   1.000000
   16       -2.338117   1.000000
   17       -1.947342   1.000000
   18       -1.899521   1.000000
   19       -1.750355   1.000000
   20       -1.443677   1.000000
   21       -1.417441   1.000000
   22       -0.403114   1.000000
   23       -0.295983   1.000000
   24       -0.256827   1.000000
   25        0.285827   1.000000
   26        0.516865   1.000000
   27        0.696805   1.000000
   28        0.861397   1.000000
   29        1.027032   1.000000
   30        1.271538   1.000000
   31        1.601739   1.000000
   32        1.696268   1.000000
   33        1.908400   1.000000
   34        1.956293   1.000000
   35        2.016145   1.000000
   36        2.307285   1.000000
   37        2.413328   1.000000
   38        2.499333   1.000000
   39        2.756632   1.000000
   40        3.059678   1.000000
   41        3.209911   1.000000
   42        3.314661   1.000000
   43        3.467214   1.000000
   44        3.582048   1.000000
   45        3.864460   1.000000
   46        4.137604   1.000000
   47        4.270498   1.000000
   48        4.487092   1.000000
   49        4.513469   1.000000
   50        4.795225   1.000000
   51        4.956846   1.000000
   52        4.996191   1.000000
   53        5.076987   1.000000
   54        5.107524   1.000000
   55        5.540903   1.000000
   56        5.748787   1.000000
   57        5.778665   1.000000
   58        6.143872   1.000000
   59        6.348060   1.000000
   60        6.491605   1.000000
   61        7.058595   1.000000
   62        7.868210   1.037154
   63        7.975923   0.635217
   64       10.304332   0.000000
   65       10.335692   0.000000
   66       10.554390   0.000000
   67       10.554772   0.000000
   68       11.049780   0.000000
   69       11.347702   0.000000
   70       11.528394   0.000000
   71       11.559633   0.000000
   72       11.840719   0.000000
   73       12.037530   0.000000
   74       12.393485   0.000000
   75       12.425409   0.000000
   76       12.656922   0.000000
   77       12.668896   0.000000
   78       12.834031   0.000000
   79       12.849457   0.000000
   80       12.925672   0.000000
 
  0.1666667E+00  0.1666667E+00  0.1250000E+00  0.2083333E-01