 vasp.5.4.4.18Apr17-6-g9f103f2a35 (build Nov 01 2019 12:17:22) complex          
  
 executed on             LinuxIFC date 2023.05.19  18:21:55
 running on   16 total cores
 distrk:  each k-point on   16 cores,    1 groups
 distr:  one band on NCORES_PER_BAND=   4 cores,    4 groups


--------------------------------------------------------------------------------------------------------


 INCAR:
 POTCAR:    PAW_PBE N 08Apr2002                   
 POTCAR:    PAW_PBE Si 05Jan2001                  
 POTCAR:    PAW_PBE N 08Apr2002                   
   VRHFIN =N: s2p3                                                              
   LEXCH  = PE                                                                  
   EATOM  =   264.5486 eV,   19.4438 Ry                                         
                                                                                
   TITEL  = PAW_PBE N 08Apr2002                                                 
   LULTRA =        F    use ultrasoft PP ?                                      
   IUNSCR =        1    unscreen: 0-lin 1-nonlin 2-no                           
   RPACOR =    1.200    partial core radius                                     
   POMASS =   14.001; ZVAL   =    5.000    mass and valenz                      
   RCORE  =    1.500    outmost cutoff radius                                   
   RWIGS  =    1.400; RWIGS  =    0.741    wigner-seitz radius (au A)           
   ENMAX  =  400.000; ENMIN  =  300.000 eV                                      
   ICORE  =        2    local potential                                         
   LCOR   =        T    correct aug charges                                     
   LPAW   =        T    paw PP                                                  
   EAUG   =  627.112                                                            
   DEXC   =    0.000                                                            
   RMAX   =    1.529    core radius for proj-oper                               
   RAUG   =    1.300    factor for augmentation sphere                          
   RDEP   =    1.514    radius for radial grids                                 
   RDEPT  =    1.338    core radius for aug-charge                              
                                                                                
   Atomic configuration                                                         
    4 entries                                                                   
     n  l   j            E        occ.                                          
     1  0  0.50      -384.7179   2.0000                                         
     2  0  0.50       -18.5828   2.0000                                         
     2  1  0.50        -7.0898   3.0000                                         
     3  2  1.50        -6.8029   0.0000                                         
   Description                                                                  
     l       E           TYP  RCUT    TYP  RCUT                                 
     0    -18.5828119     23  1.200                                             
     0    -13.5018863     23  1.200                                             
     1     -7.0897853     23  1.500                                             
     1      9.5240782     23  1.500                                             
     2     -6.8029130      7  1.500                                             
  local pseudopotential read in
  partial core-charges read in
  partial kinetic energy density read in
  atomic valenz-charges read in
  non local Contribution for L=           0  read in
    real space projection operators read in
  non local Contribution for L=           0  read in
    real space projection operators read in
  non local Contribution for L=           1  read in
    real space projection operators read in
  non local Contribution for L=           1  read in
    real space projection operators read in
    PAW grid and wavefunctions read in
 
   number of l-projection  operators is LMAX  =           4
   number of lm-projection operators is LMMAX =           8
 
 POTCAR:    PAW_PBE Si 05Jan2001                  
   VRHFIN =Si: s2p2                                                             
   LEXCH  = PE                                                                  
   EATOM  =   103.0669 eV,    7.5752 Ry                                         
                                                                                
   TITEL  = PAW_PBE Si 05Jan2001                                                
   LULTRA =        F    use ultrasoft PP ?                                      
   IUNSCR =        1    unscreen: 0-lin 1-nonlin 2-no                           
   RPACOR =    1.500    partial core radius                                     
   POMASS =   28.085; ZVAL   =    4.000    mass and valenz                      
   RCORE  =    1.900    outmost cutoff radius                                   
   RWIGS  =    2.480; RWIGS  =    1.312    wigner-seitz radius (au A)           
   ENMAX  =  245.345; ENMIN  =  184.009 eV                                      
   ICORE  =        2    local potential                                         
   LCOR   =        T    correct aug charges                                     
   LPAW   =        T    paw PP                                                  
   EAUG   =  322.069                                                            
   DEXC   =    0.000                                                            
   RMAX   =    1.950    core radius for proj-oper                               
   RAUG   =    1.300    factor for augmentation sphere                          
   RDEP   =    1.993    radius for radial grids                                 
   RDEPT  =    1.837    core radius for aug-charge                              
                                                                                
   Atomic configuration                                                         
    6 entries                                                                   
     n  l   j            E        occ.                                          
     1  0  0.50     -1785.8828   2.0000                                         
     2  0  0.50      -139.4969   2.0000                                         
     2  1  1.50       -95.5546   6.0000                                         
     3  0  0.50       -10.8127   2.0000                                         
     3  1  0.50        -4.0811   2.0000                                         
     3  2  1.50        -4.0817   0.0000                                         
   Description                                                                  
     l       E           TYP  RCUT    TYP  RCUT                                 
     0    -10.8127223     23  1.900                                             
     0     -7.6451159     23  1.900                                             
     1     -4.0811372     23  1.900                                             
     1      2.4879257     23  1.900                                             
     2     -4.0817478      7  1.900                                             
  local pseudopotential read in
  partial core-charges read in
  partial kinetic energy density read in
  atomic valenz-charges read in
  non local Contribution for L=           0  read in
    real space projection operators read in
  non local Contribution for L=           0  read in
    real space projection operators read in
  non local Contribution for L=           1  read in
    real space projection operators read in
  non local Contribution for L=           1  read in
    real space projection operators read in
    PAW grid and wavefunctions read in
 
   number of l-projection  operators is LMAX  =           4
   number of lm-projection operators is LMMAX =           8
 
 Optimization of the real space projectors (new method)

 maximal supplied QI-value         = 25.13
 optimisation between [QCUT,QGAM] = [ 10.05, 20.36] = [ 28.30,116.06] Ry 
 Optimized for a Real-space Cutoff    1.70 Angstroem

   l    n(q)    QCUT    max X(q) W(low)/X(q) W(high)/X(q)  e(spline) 
   0     10    10.053    79.467    0.61E-04    0.98E-04    0.61E-06
   0     10    10.053    66.151    0.60E-04    0.98E-04    0.61E-06
   1     10    10.053     8.350    0.17E-03    0.71E-03    0.45E-05
   1     10    10.053     5.531    0.18E-03    0.77E-03    0.49E-05
 Optimization of the real space projectors (new method)

 maximal supplied QI-value         = 19.84
 optimisation between [QCUT,QGAM] = [ 10.12, 20.44] = [ 28.68,116.96] Ry 
 Optimized for a Real-space Cutoff    1.38 Angstroem

   l    n(q)    QCUT    max X(q) W(low)/X(q) W(high)/X(q)  e(spline) 
   0      8    10.119   159.560    0.58E-04    0.11E-03    0.54E-07
   0      8    10.119   115.863    0.56E-04    0.11E-03    0.54E-07
   1      8    10.119    88.339    0.22E-03    0.17E-03    0.19E-06
   1      8    10.119    48.592    0.22E-03    0.17E-03    0.18E-06
  PAW_PBE N 08Apr2002                   :
 energy of atom  1       EATOM= -264.5486
 kinetic energy error for atom=    0.0736 (will be added to EATOM!!)
  PAW_PBE Si 05Jan2001                  :
 energy of atom  2       EATOM= -103.0669
 kinetic energy error for atom=    0.0012 (will be added to EATOM!!)
 
 
 POSCAR: Si12 N16                                
  positions in direct lattice
  No initial velocities read in
 exchange correlation table for  LEXCH =        8
   RHO(1)=    0.500       N(1)  =     2000
   RHO(2)=  100.500       N(2)  =     4000
 


--------------------------------------------------------------------------------------------------------


 ion  position               nearest neighbor table
   1  0.008  0.647  0.213-  14 1.71  23 1.73  25 1.75
   2  0.639  0.992  0.213-  16 1.71  22 1.73  28 1.75
   3  0.914  0.322  0.992-  22 1.72  25 1.74  18 1.75
   4  0.647  0.008  0.713-  22 1.71  16 1.73  26 1.75
   5  0.086  0.407  0.492-  13 1.72  18 1.74  25 1.75
   6  0.322  0.914  0.492-  14 1.72  26 1.74  28 1.75
   7  0.353  0.361  0.213-  13 1.71  15 1.73  21 1.75
   8  0.593  0.678  0.492-  16 1.72  27 1.74  21 1.75
   9  0.992  0.639  0.713-  23 1.71  14 1.73  18 1.75
  10  0.361  0.353  0.713-  15 1.71  13 1.73  27 1.75
  11  0.678  0.593  0.992-  23 1.72  21 1.74  27 1.75
  12  0.407  0.086  0.992-  15 1.72  28 1.74  26 1.75
  13  0.213  0.300  0.467-   7 1.71   5 1.72  10 1.73  19 2.26  21 2.89  18 2.97  15 3.00  15 3.00
                            27 3.01
  14  0.087  0.787  0.467-   1 1.71   6 1.72   9 1.73  19 2.26  25 2.89  26 2.97  23 3.00  23 3.00
                            18 3.01
  15  0.300  0.213  0.967-  10 1.71  12 1.72   7 1.73  17 2.26  27 2.89  28 2.97  13 3.00  13 3.00
                            21 3.01
  16  0.700  0.913  0.467-   2 1.71   8 1.72   4 1.73  19 2.26  28 2.89  27 2.97  22 3.00  22 3.00
                            26 3.01
  17  0.000  0.000  0.957-  22 2.26  23 2.26  15 2.26  19 2.71  19 2.71
  18  0.067  0.484  0.783-   5 1.74   3 1.75   9 1.75  24 2.25  25 2.88  25 2.88  23 2.89  13 2.97
                            14 3.01
  19  0.000  0.000  0.457-  14 2.26  16 2.26  13 2.26  17 2.71  17 2.71
  20  0.667  0.333  0.476-  21 2.25  28 2.25  25 2.25
  21  0.582  0.516  0.283-  11 1.74   8 1.75   7 1.75  20 2.25  27 2.88  27 2.88  13 2.89  23 2.97
                            15 3.01
  22  0.787  0.087  0.967-   4 1.71   3 1.72   2 1.73  17 2.26  26 2.89  25 2.97  16 3.00  16 3.00
                            28 3.01
  23  0.913  0.700  0.967-   9 1.71  11 1.72   1 1.73  17 2.26  18 2.89  21 2.97  14 3.00  14 3.00
                            25 3.01
  24  0.333  0.667  0.976-  27 2.25  18 2.25  26 2.25
  25  0.933  0.418  0.283-   3 1.74   5 1.75   1 1.75  20 2.25  18 2.88  18 2.88  14 2.89  22 2.97
                            23 3.01
  26  0.418  0.933  0.783-   6 1.74  12 1.75   4 1.75  24 2.25  28 2.88  28 2.88  22 2.89  14 2.97
                            16 3.01
  27  0.516  0.582  0.783-   8 1.74  11 1.75  10 1.75  24 2.25  21 2.88  21 2.88  15 2.89  16 2.97
                            13 3.01
  28  0.484  0.067  0.283-  12 1.74   6 1.75   2 1.75  20 2.25  26 2.88  26 2.88  16 2.89  15 2.97
                            22 3.01
 
  LATTYP: Found a hexagonal cell.
 ALAT       =     8.4576027834
 C/A-ratio  =     0.6407499831
  
  Lattice vectors:
  
 A1 = (   4.2288013917,  -7.3244988655,   0.0000000000)
 A2 = (   4.2288013917,   7.3244988655,   0.0000000000)
 A3 = (   0.0000000000,   0.0000000000,   5.4192088408)


Analysis of symmetry for initial positions (statically):
=====================================================================
 Subroutine PRICEL returns:
 Original cell was already a primitive cell.
 

 Routine SETGRP: Setting up the symmetry group for a 
 hexagonal supercell.


 Subroutine GETGRP returns: Found  6 space group operations
 (whereof  3 operations were pure point group operations)
 out of a pool of 24 trial point group operations.


The static configuration has the point symmetry C_3 .
 The point group associated with its full space group is C_3v.


Analysis of symmetry for dynamics (positions and initial velocities):
=====================================================================
 Subroutine PRICEL returns:
 Original cell was already a primitive cell.
 

 Routine SETGRP: Setting up the symmetry group for a 
 hexagonal supercell.


 Subroutine GETGRP returns: Found  6 space group operations
 (whereof  3 operations were pure point group operations)
 out of a pool of 24 trial point group operations.


The dynamic configuration has the point symmetry C_3 .
 The point group associated with its full space group is C_3v.


 Subroutine INISYM returns: Found  6 space group operations
 (whereof  3 operations are pure point group operations),
 and found     1 'primitive' translations

 
 
 KPOINTS: Automatic mesh                          

Automatic generation of k-mesh.
 generate k-points for:    6    6    8
Space group operators:
 irot       det(A)        alpha          n_x          n_y          n_z        tau_x        tau_y        tau_z
    1     1.000000     0.000000     1.000000     0.000000     0.000000     0.000000     0.000000     0.000000
    2     1.000000   120.000000     0.000000     0.000000    -1.000000     0.000000     0.000000     0.000000
    3     1.000000   120.000000     0.000000     0.000000     1.000000     0.000000     0.000000     0.000000
    4    -1.000000   180.000000    -0.000000     1.000000     0.000000     0.000000     0.000000     0.500000
    5    -1.000000   180.000000     0.866025     0.500000     0.000000     0.000000     0.000000     0.500000
    6    -1.000000   180.000000     0.866025    -0.500000     0.000000     0.000000     0.000000     0.500000
 
 Subroutine IBZKPT returns following result:
 ===========================================
 
 Found     44 irreducible k-points:
 
 Following reciprocal coordinates:
            Coordinates               Weight
  0.000000  0.000000  0.000000      1.000000
  0.166667  0.000000  0.000000      6.000000
  0.333333  0.000000  0.000000      6.000000
  0.500000  0.000000  0.000000      3.000000
  0.166667  0.166667  0.000000      6.000000
  0.333333  0.166667  0.000000     12.000000
  0.333333  0.333333  0.000000      2.000000
  0.000000  0.000000  0.125000      2.000000
  0.166667  0.000000  0.125000     12.000000
  0.333333  0.000000  0.125000     12.000000
  0.500000  0.000000  0.125000      6.000000
  0.166667  0.166667  0.125000      6.000000
  0.333333  0.166667  0.125000     12.000000
  0.333333  0.333333  0.125000      2.000000
 -0.166667  0.333333  0.125000      6.000000
 -0.333333  0.500000  0.125000     12.000000
 -0.333333 -0.333333  0.125000      2.000000
  0.000000  0.000000  0.250000      2.000000
  0.166667  0.000000  0.250000     12.000000
  0.333333  0.000000  0.250000     12.000000
  0.500000  0.000000  0.250000      6.000000
  0.166667  0.166667  0.250000      6.000000
  0.333333  0.166667  0.250000     12.000000
  0.333333  0.333333  0.250000      2.000000
 -0.166667  0.333333  0.250000      6.000000
 -0.333333  0.500000  0.250000     12.000000
 -0.333333 -0.333333  0.250000      2.000000
  0.000000  0.000000  0.375000      2.000000
  0.166667  0.000000  0.375000     12.000000
  0.333333  0.000000  0.375000     12.000000
  0.500000  0.000000  0.375000      6.000000
  0.166667  0.166667  0.375000      6.000000
  0.333333  0.166667  0.375000     12.000000
  0.333333  0.333333  0.375000      2.000000
 -0.166667  0.333333  0.375000      6.000000
 -0.333333  0.500000  0.375000     12.000000
 -0.333333 -0.333333  0.375000      2.000000
  0.000000  0.000000  0.500000      1.000000
  0.166667  0.000000  0.500000      6.000000
  0.333333  0.000000  0.500000      6.000000
  0.500000  0.000000  0.500000      3.000000
  0.166667  0.166667  0.500000      6.000000
  0.333333  0.166667  0.500000     12.000000
  0.333333  0.333333  0.500000      2.000000
 
 Following cartesian coordinates:
            Coordinates               Weight
  0.000000  0.000000  0.000000      1.000000
  0.019706 -0.011377  0.000000      6.000000
  0.039412 -0.022755  0.000000      6.000000
  0.059118 -0.034132  0.000000      3.000000
  0.039412  0.000000  0.000000      6.000000
  0.059118 -0.011377  0.000000     12.000000
  0.078825  0.000000  0.000000      2.000000
  0.000000  0.000000  0.023066      2.000000
  0.019706 -0.011377  0.023066     12.000000
  0.039412 -0.022755  0.023066     12.000000
  0.059118 -0.034132  0.023066      6.000000
  0.039412  0.000000  0.023066      6.000000
  0.059118 -0.011377  0.023066     12.000000
  0.078825  0.000000  0.023066      2.000000
  0.019706  0.034132  0.023066      6.000000
  0.019706  0.056887  0.023066     12.000000
 -0.078825  0.000000  0.023066      2.000000
  0.000000  0.000000  0.046132      2.000000
  0.019706 -0.011377  0.046132     12.000000
  0.039412 -0.022755  0.046132     12.000000
  0.059118 -0.034132  0.046132      6.000000
  0.039412  0.000000  0.046132      6.000000
  0.059118 -0.011377  0.046132     12.000000
  0.078825  0.000000  0.046132      2.000000
  0.019706  0.034132  0.046132      6.000000
  0.019706  0.056887  0.046132     12.000000
 -0.078825  0.000000  0.046132      2.000000
  0.000000  0.000000  0.069198      2.000000
  0.019706 -0.011377  0.069198     12.000000
  0.039412 -0.022755  0.069198     12.000000
  0.059118 -0.034132  0.069198      6.000000
  0.039412  0.000000  0.069198      6.000000
  0.059118 -0.011377  0.069198     12.000000
  0.078825  0.000000  0.069198      2.000000
  0.019706  0.034132  0.069198      6.000000
  0.019706  0.056887  0.069198     12.000000
 -0.078825  0.000000  0.069198      2.000000
  0.000000  0.000000  0.092264      1.000000
  0.019706 -0.011377  0.092264      6.000000
  0.039412 -0.022755  0.092264      6.000000
  0.059118 -0.034132  0.092264      3.000000
  0.039412  0.000000  0.092264      6.000000
  0.059118 -0.011377  0.092264     12.000000
  0.078825  0.000000  0.092264      2.000000
 


--------------------------------------------------------------------------------------------------------




 Dimension of arrays:
   k-points           NKPTS =     44   k-points in BZ     NKDIM =     44   number of bands    NBANDS=     80
   number of dos      NEDOS =    301   number of ions     NIONS =     28
   non local maximal  LDIM  =      4   non local SUM 2l+1 LMDIM =      8
   total plane-waves  NPLWV = 112896
   max r-space proj   IRMAX =   6944   max aug-charges    IRDMAX=  11442
   dimension x,y,z NGX =    56 NGY =   56 NGZ =   36
   dimension x,y,z NGXF=   112 NGYF=  112 NGZF=   72
   support grid    NGXF=   112 NGYF=  112 NGZF=   72
   ions per type =              12  16
   NGX,Y,Z   is equivalent  to a cutoff of  11.01, 11.01, 11.04 a.u.
   NGXF,Y,Z  is equivalent  to a cutoff of  22.02, 22.02, 22.09 a.u.

 SYSTEM =  unknown system                          
 POSCAR =  Si12 N16                                

 Startparameter for this run:
   NWRITE =      2    write-flag & timer
   PREC   = accura    normal or accurate (medium, high low for compatibility)
   ISTART =      0    job   : 0-new  1-cont  2-samecut
   ICHARG =      2    charge: 1-file 2-atom 10-const
   ISPIN  =      1    spin polarized calculation?
   LNONCOLLINEAR =      F non collinear calculations
   LSORBIT =      F    spin-orbit coupling
   INIWAV =      1    electr: 0-lowe 1-rand  2-diag
   LASPH  =      F    aspherical Exc in radial PAW
   METAGGA=      F    non-selfconsistent MetaGGA calc.

 Electronic Relaxation 1
   ENCUT  =  400.0 eV  29.40 Ry    5.42 a.u.  13.79 13.79  8.84*2*pi/ulx,y,z
   ENINI  =  400.0     initial cutoff
   ENAUG  =  627.1 eV  augmentation charge cutoff
   NELM   =     60;   NELMIN=  2; NELMDL= -5     # of ELM steps 
   EDIFF  = 0.1E-03   stopping-criterion for ELM
   LREAL  =      T    real-space projection
   NLSPLINE    = F    spline interpolate recip. space projectors
   LCOMPAT=      F    compatible to vasp.4.4
   GGA_COMPAT  = T    GGA compatible to vasp.4.4-vasp.4.6
   LMAXPAW     = -100 max onsite density
   LMAXMIX     =    2 max onsite mixed and CHGCAR
   VOSKOWN=      0    Vosko Wilk Nusair interpolation
   ROPT   =   -0.00025  -0.00025
 Ionic relaxation
   EDIFFG = 0.1E-02   stopping-criterion for IOM
   NSW    =    100    number of steps for IOM
   NBLOCK =      1;   KBLOCK =    100    inner block; outer block 
   IBRION =      2    ionic relax: 0-MD 1-quasi-New 2-CG
   NFREE  =      1    steps in history (QN), initial steepest desc. (CG)
   ISIF   =      2    stress and relaxation
   IWAVPR =     11    prediction:  0-non 1-charg 2-wave 3-comb
   ISYM   =      2    0-nonsym 1-usesym 2-fastsym
   LCORR  =      T    Harris-Foulkes like correction to forces

   POTIM  = 0.5000    time-step for ionic-motion
   TEIN   =    0.0    initial temperature
   TEBEG  =    0.0;   TEEND  =   0.0 temperature during run
   SMASS  =  -3.00    Nose mass-parameter (am)
   estimated Nose-frequenzy (Omega)   =  0.10E-29 period in steps =****** mass=  -0.163E-26a.u.
   SCALEE = 1.0000    scale energy and forces
   NPACO  =    256;   APACO  = 16.0  distance and # of slots for P.C.
   PSTRESS=    0.0 pullay stress

  Mass of Ions in am
   POMASS =  14.00 28.09
  Ionic Valenz
   ZVAL   =   5.00  4.00
  Atomic Wigner-Seitz radii
   RWIGS  =  -1.00 -1.00
  virtual crystal weights 
   VCA    =   1.00  1.00
   NELECT =     124.0000    total number of electrons
   NUPDOWN=      -1.0000    fix difference up-down

 DOS related values:
   EMIN   =  10.00;   EMAX   =-10.00  energy-range for DOS
   EFERMI =   0.00
   ISMEAR =     2;   SIGMA  =   0.10  broadening in eV -4-tet -1-fermi 0-gaus

 Electronic relaxation 2 (details)
   IALGO  =     68    algorithm
   LDIAG  =      T    sub-space diagonalisation (order eigenvalues)
   LSUBROT=      F    optimize rotation matrix (better conditioning)
   TURBO    =      0    0=normal 1=particle mesh
   IRESTART =      0    0=no restart 2=restart with 2 vectors
   NREBOOT  =      0    no. of reboots
   NMIN     =      0    reboot dimension
   EREF     =   0.00    reference energy to select bands
   IMIX   =      4    mixing-type and parameters
     AMIX     =   0.40;   BMIX     =  1.00
     AMIX_MAG =   1.60;   BMIX_MAG =  1.00
     AMIN     =   0.10
     WC   =   100.;   INIMIX=   1;  MIXPRE=   1;  MAXMIX= -45

 Intra band minimization:
   WEIMIN = 0.0010     energy-eigenvalue tresh-hold
   EBREAK =  0.31E-06  absolut break condition
   DEPER  =   0.30     relativ break condition  

   TIME   =   0.40     timestep for ELM

  volume/ion in A,a.u.               =      11.99        80.91
  Fermi-wavevector in a.u.,A,eV,Ry     =   1.174614  2.219698 18.772191  1.379717
  Thomas-Fermi vector in A             =   2.311008
 
 Write flags
   LWAVE        =      F    write WAVECAR
   LDOWNSAMPLE  =      F    k-point downsampling of WAVECAR
   LCHARG       =      F    write CHGCAR
   LVTOT        =      F    write LOCPOT, total local potential
   LVHAR        =      F    write LOCPOT, Hartree potential only
   LELF         =      F    write electronic localiz. function (ELF)
   LORBIT       =      0    0 simple, 1 ext, 2 COOP (PROOUT), +10 PAW based schemes


 Dipole corrections
   LMONO  =      F    monopole corrections only (constant potential shift)
   LDIPOL =      F    correct potential (dipole corrections)
   IDIPOL =      0    1-x, 2-y, 3-z, 4-all directions 
   EPSILON=  1.0000000 bulk dielectric constant

 Exchange correlation treatment:
   GGA     =    --    GGA type
   LEXCH   =     8    internal setting for exchange type
   VOSKOWN=      0    Vosko Wilk Nusair interpolation
   LHFCALC =     F    Hartree Fock is set to
   LHFONE  =     F    Hartree Fock one center treatment
   AEXX    =    0.0000 exact exchange contribution

 Linear response parameters
   LEPSILON=     F    determine dielectric tensor
   LRPA    =     F    only Hartree local field effects (RPA)
   LNABLA  =     F    use nabla operator in PAW spheres
   LVEL    =     F    velocity operator in full k-point grid
   LINTERFAST=   F  fast interpolation
   KINTER  =     0    interpolate to denser k-point grid
   CSHIFT  =0.1000    complex shift for real part using Kramers Kronig
   OMEGAMAX=  -1.0    maximum frequency
   DEG_THRESHOLD= 0.2000000E-02 threshold for treating states as degnerate
   RTIME   =   -0.100 relaxation time in fs
  (WPLASMAI=    0.000 imaginary part of plasma frequency in eV, 0.658/RTIME)
   DFIELD  = 0.0000000 0.0000000 0.0000000 field for delta impulse in time
 
 Orbital magnetization related:
   ORBITALMAG=     F  switch on orbital magnetization
   LCHIMAG   =     F  perturbation theory with respect to B field
   DQ        =  0.001000  dq finite difference perturbation B field
   LLRAUG    =     F  two centre corrections for induced B field



--------------------------------------------------------------------------------------------------------


 conjugate gradient relaxation of ions
 charge density and potential will be updated during run
 non-spin polarized calculation
 RMM-DIIS sequential band-by-band and
  variant of blocked Davidson during initial phase
 perform sub-space diagonalisation
    before iterative eigenvector-optimisation
 modified Broyden-mixing scheme, WC =      100.0
 initial mixing is a Kerker type mixing with AMIX =  0.4000 and BMIX =      1.0000
 Hartree-type preconditioning will be used
 using additional bands           18
 real space projection scheme for non local part
 use partial core corrections
 calculate Harris-corrections to forces 
   (improved forces if not selfconsistent)
 use gradient corrections 
 use of overlap-Matrix (Vanderbilt PP)
 Methfessel and Paxton  Order N= 2 SIGMA  =   0.10


--------------------------------------------------------------------------------------------------------


  energy-cutoff  :      400.00
  volume of cell :      335.71
      direct lattice vectors                 reciprocal lattice vectors
     4.228801392 -7.324498866  0.000000000     0.118236813 -0.068264056  0.000000000
     4.228801392  7.324498866  0.000000000     0.118236813  0.068264056  0.000000000
     0.000000000  0.000000000  5.419208841     0.000000000  0.000000000  0.184528781

  length of vectors
     8.457602783  8.457602783  5.419208841     0.136528112  0.136528112  0.184528781


 
 k-points in units of 2pi/SCALE and weight: Automatic mesh                          
   0.00000000  0.00000000  0.00000000       0.003
   0.01970614 -0.01137734  0.00000000       0.021
   0.03941227 -0.02275469  0.00000000       0.021
   0.05911841 -0.03413203  0.00000000       0.010
   0.03941227 -0.00000000  0.00000000       0.021
   0.05911841 -0.01137734  0.00000000       0.042
   0.07882454  0.00000000  0.00000000       0.007
   0.00000000  0.00000000  0.02306610       0.007
   0.01970614 -0.01137734  0.02306610       0.042
   0.03941227 -0.02275469  0.02306610       0.042
   0.05911841 -0.03413203  0.02306610       0.021
   0.03941227 -0.00000000  0.02306610       0.021
   0.05911841 -0.01137734  0.02306610       0.042
   0.07882454  0.00000000  0.02306610       0.007
   0.01970614  0.03413203  0.02306610       0.021
   0.01970614  0.05688671  0.02306610       0.042
  -0.07882454 -0.00000000  0.02306610       0.007
   0.00000000  0.00000000  0.04613220       0.007
   0.01970614 -0.01137734  0.04613220       0.042
   0.03941227 -0.02275469  0.04613220       0.042
   0.05911841 -0.03413203  0.04613220       0.021
   0.03941227 -0.00000000  0.04613220       0.021
   0.05911841 -0.01137734  0.04613220       0.042
   0.07882454  0.00000000  0.04613220       0.007
   0.01970614  0.03413203  0.04613220       0.021
   0.01970614  0.05688671  0.04613220       0.042
  -0.07882454 -0.00000000  0.04613220       0.007
   0.00000000  0.00000000  0.06919829       0.007
   0.01970614 -0.01137734  0.06919829       0.042
   0.03941227 -0.02275469  0.06919829       0.042
   0.05911841 -0.03413203  0.06919829       0.021
   0.03941227 -0.00000000  0.06919829       0.021
   0.05911841 -0.01137734  0.06919829       0.042
   0.07882454  0.00000000  0.06919829       0.007
   0.01970614  0.03413203  0.06919829       0.021
   0.01970614  0.05688671  0.06919829       0.042
  -0.07882454 -0.00000000  0.06919829       0.007
   0.00000000  0.00000000  0.09226439       0.003
   0.01970614 -0.01137734  0.09226439       0.021
   0.03941227 -0.02275469  0.09226439       0.021
   0.05911841 -0.03413203  0.09226439       0.010
   0.03941227 -0.00000000  0.09226439       0.021
   0.05911841 -0.01137734  0.09226439       0.042
   0.07882454  0.00000000  0.09226439       0.007
 
 k-points in reciprocal lattice and weights: Automatic mesh                          
   0.00000000  0.00000000  0.00000000       0.003
   0.16666667  0.00000000  0.00000000       0.021
   0.33333333  0.00000000  0.00000000       0.021
   0.50000000  0.00000000  0.00000000       0.010
   0.16666667  0.16666667  0.00000000       0.021
   0.33333333  0.16666667  0.00000000       0.042
   0.33333333  0.33333333  0.00000000       0.007
   0.00000000  0.00000000  0.12500000       0.007
   0.16666667  0.00000000  0.12500000       0.042
   0.33333333  0.00000000  0.12500000       0.042
   0.50000000  0.00000000  0.12500000       0.021
   0.16666667  0.16666667  0.12500000       0.021
   0.33333333  0.16666667  0.12500000       0.042
   0.33333333  0.33333333  0.12500000       0.007
  -0.16666667  0.33333333  0.12500000       0.021
  -0.33333333  0.50000000  0.12500000       0.042
  -0.33333333 -0.33333333  0.12500000       0.007
   0.00000000  0.00000000  0.25000000       0.007
   0.16666667  0.00000000  0.25000000       0.042
   0.33333333  0.00000000  0.25000000       0.042
   0.50000000  0.00000000  0.25000000       0.021
   0.16666667  0.16666667  0.25000000       0.021
   0.33333333  0.16666667  0.25000000       0.042
   0.33333333  0.33333333  0.25000000       0.007
  -0.16666667  0.33333333  0.25000000       0.021
  -0.33333333  0.50000000  0.25000000       0.042
  -0.33333333 -0.33333333  0.25000000       0.007
   0.00000000  0.00000000  0.37500000       0.007
   0.16666667  0.00000000  0.37500000       0.042
   0.33333333  0.00000000  0.37500000       0.042
   0.50000000  0.00000000  0.37500000       0.021
   0.16666667  0.16666667  0.37500000       0.021
   0.33333333  0.16666667  0.37500000       0.042
   0.33333333  0.33333333  0.37500000       0.007
  -0.16666667  0.33333333  0.37500000       0.021
  -0.33333333  0.50000000  0.37500000       0.042
  -0.33333333 -0.33333333  0.37500000       0.007
   0.00000000  0.00000000  0.50000000       0.003
   0.16666667  0.00000000  0.50000000       0.021
   0.33333333  0.00000000  0.50000000       0.021
   0.50000000  0.00000000  0.50000000       0.010
   0.16666667  0.16666667  0.50000000       0.021
   0.33333333  0.16666667  0.50000000       0.042
   0.33333333  0.33333333  0.50000000       0.007
 
 position of ions in fractional coordinates (direct lattice) 
   0.00847736  0.64712623  0.21326215
   0.63864887  0.99152264  0.21326215
   0.91417805  0.32157747  0.99187268
   0.64712623  0.00847736  0.71326215
   0.08582195  0.40739942  0.49187268
   0.32157747  0.91417805  0.49187268
   0.35287377  0.36135113  0.21326215
   0.59260058  0.67842253  0.49187268
   0.99152264  0.63864887  0.71326215
   0.36135113  0.35287377  0.71326215
   0.67842253  0.59260058  0.99187268
   0.40739942  0.08582195  0.99187268
   0.21311138  0.30040483  0.46674092
   0.08729345  0.78688862  0.46674092
   0.30040483  0.21311138  0.96674092
   0.69959517  0.91270655  0.46674092
   0.00000000  0.00000000  0.95692726
   0.06686359  0.48449764  0.78259872
   0.00000000  0.00000000  0.45692726
   0.66666667  0.33333333  0.47577702
   0.58236595  0.51550236  0.28259872
   0.78688862  0.08729345  0.96674092
   0.91270655  0.69959517  0.96674092
   0.33333333  0.66666667  0.97577702
   0.93313641  0.41763405  0.28259872
   0.41763405  0.93313641  0.78259872
   0.51550236  0.58236595  0.78259872
   0.48449764  0.06686359  0.28259872
 
 position of ions in cartesian coordinates  (Angst):
   2.77241738  4.67778294  1.15571213
   6.89367156  2.58462351  1.15571213
   5.22576468 -4.34050230  5.37516518
   2.77241738 -4.67778294  3.86531655
   2.08573518  2.35539381  2.66556076
   5.22576468  4.34050230  2.66556076
   3.02031523  0.06209241  1.15571213
   5.37490431  0.62860275  2.66556076
   6.89367156 -2.58462351  3.86531655
   3.02031523 -0.06209241  3.86531655
   5.37490431 -0.62860275  5.37516518
   2.08573518 -2.35539381  5.37516518
   2.17155805  0.63938075  2.52936649
   3.69674234  5.12418405  2.52936649
   2.17155805 -0.63938075  5.23897091
   6.81810378  1.56093407  2.52936649
   0.00000000  0.00000000  5.18578867
   2.33159712  3.05896009  4.24106593
   0.00000000  0.00000000  2.47618425
   4.22880139 -2.44149962  2.57833501
   4.64266708 -0.48974229  1.53146150
   3.69674234 -5.12418405  5.23897091
   6.81810378 -1.56093407  5.23897091
   4.22880139  2.44149962  5.28793943
   5.71213998 -3.77579649  1.53146150
   5.71213998  3.77579649  4.24106593
   4.64266708  0.48974229  4.24106593
   2.33159712 -3.05896009  1.53146150
 


--------------------------------------------------------------------------------------------------------


 k-point  1 :   0.0000 0.0000 0.0000  plane waves:    6119
 k-point  2 :   0.1667 0.0000 0.0000  plane waves:    6102
 k-point  3 :   0.3333 0.0000 0.0000  plane waves:    6096
 k-point  4 :   0.5000 0.0000 0.0000  plane waves:    6082
 k-point  5 :   0.1667 0.1667 0.0000  plane waves:    6104
 k-point  6 :   0.3333 0.1667 0.0000  plane waves:    6089
 k-point  7 :   0.3333 0.3333 0.0000  plane waves:    6096
 k-point  8 :   0.0000 0.0000 0.1250  plane waves:    6125
 k-point  9 :   0.1667 0.0000 0.1250  plane waves:    6093
 k-point 10 :   0.3333 0.0000 0.1250  plane waves:    6097
 k-point 11 :   0.5000 0.0000 0.1250  plane waves:    6078
 k-point 12 :   0.1667 0.1667 0.1250  plane waves:    6101
 k-point 13 :   0.3333 0.1667 0.1250  plane waves:    6090
 k-point 14 :   0.3333 0.3333 0.1250  plane waves:    6081
 k-point 15 :  -0.1667 0.3333 0.1250  plane waves:    6101
 k-point 16 :  -0.3333 0.5000 0.1250  plane waves:    6090
 k-point 17 :  -0.3333-0.3333 0.1250  plane waves:    6081
 k-point 18 :   0.0000 0.0000 0.2500  plane waves:    6072
 k-point 19 :   0.1667 0.0000 0.2500  plane waves:    6081
 k-point 20 :   0.3333 0.0000 0.2500  plane waves:    6101
 k-point 21 :   0.5000 0.0000 0.2500  plane waves:    6106
 k-point 22 :   0.1667 0.1667 0.2500  plane waves:    6096
 k-point 23 :   0.3333 0.1667 0.2500  plane waves:    6100
 k-point 24 :   0.3333 0.3333 0.2500  plane waves:    6105
 k-point 25 :  -0.1667 0.3333 0.2500  plane waves:    6096
 k-point 26 :  -0.3333 0.5000 0.2500  plane waves:    6100
 k-point 27 :  -0.3333-0.3333 0.2500  plane waves:    6105
 k-point 28 :   0.0000 0.0000 0.3750  plane waves:    6078
 k-point 29 :   0.1667 0.0000 0.3750  plane waves:    6082
 k-point 30 :   0.3333 0.0000 0.3750  plane waves:    6112
 k-point 31 :   0.5000 0.0000 0.3750  plane waves:    6116
 k-point 32 :   0.1667 0.1667 0.3750  plane waves:    6098
 k-point 33 :   0.3333 0.1667 0.3750  plane waves:    6108
 k-point 34 :   0.3333 0.3333 0.3750  plane waves:    6105
 k-point 35 :  -0.1667 0.3333 0.3750  plane waves:    6098
 k-point 36 :  -0.3333 0.5000 0.3750  plane waves:    6108
 k-point 37 :  -0.3333-0.3333 0.3750  plane waves:    6105
 k-point 38 :   0.0000 0.0000 0.5000  plane waves:    6078
 k-point 39 :   0.1667 0.0000 0.5000  plane waves:    6096
 k-point 40 :   0.3333 0.0000 0.5000  plane waves:    6100
 k-point 41 :   0.5000 0.0000 0.5000  plane waves:    6140
 k-point 42 :   0.1667 0.1667 0.5000  plane waves:    6096
 k-point 43 :   0.3333 0.1667 0.5000  plane waves:    6114
 k-point 44 :   0.3333 0.3333 0.5000  plane waves:    6090

 maximum and minimum number of plane-waves per node :      1567     1467

 maximum number of plane-waves:      6140
 maximum index in each direction: 
   IXMAX=   14   IYMAX=   14   IZMAX=    8
   IXMIN=  -14   IYMIN=  -14   IZMIN=   -9


 real space projection operators:
  total allocation   :       8622.00 KBytes
  max/ min on nodes  :       2158.62       2150.62


 parallel 3D FFT for wavefunctions:
    minimum data exchange during FFTs selected (reduces bandwidth)
 parallel 3D FFT for charge:
    minimum data exchange during FFTs selected (reduces bandwidth)


 total amount of memory used by VASP MPI-rank0    65766. kBytes
=======================================================================

   base      :      30000. kBytes
   nonlr-proj:       5951. kBytes
   fftplans  :       2789. kBytes
   grid      :       4365. kBytes
   one-center:         21. kBytes
   wavefun   :      22640. kBytes
 
     INWAV:  cpu time    0.0000: real time    0.0000
 Broyden mixing: mesh for mixing (old mesh)
   NGX = 27   NGY = 27   NGZ = 17
  (NGX  =112   NGY  =112   NGZ  = 72)
  gives a total of  12393 points

 initial charge density was supplied:
 charge density of overlapping atoms calculated
 number of electron     124.0000000 magnetization 
 keeping initial charge density in first step


--------------------------------------------------------------------------------------------------------


 Maximum index for non-local projection operator         1684
 Maximum index for augmentation-charges          779 (set IRDMAX)


--------------------------------------------------------------------------------------------------------


 First call to EWALD:  gamma=   0.255
 Maximum number of real-space cells 3x 3x 3
 Maximum number of reciprocal cells 3x 3x 2

    FEWALD:  cpu time    0.0028: real time    0.0029


--------------------------------------- Iteration      1(   1)  ---------------------------------------


    POTLOK:  cpu time    0.9763: real time    0.9768
    SETDIJ:  cpu time    0.1635: real time    0.1634
     EDDAV:  cpu time   50.3037: real time   51.0224
       DOS:  cpu time    0.0035: real time    0.0043
    --------------------------------------------
      LOOP:  cpu time   51.4470: real time   52.1669

 eigenvalue-minimisations  :  7040
 total energy-change (2. order) : 0.4766466E+03  (-0.5006011E+04)
 number of electron     124.0000000 magnetization 
 augmentation part      124.0000000 magnetization 

 Free energy of the ion-electron system (eV)
  ---------------------------------------------------
  alpha Z        PSCENC =       145.25177883
  Ewald energy   TEWEN  =     -4283.86916541
  -Hartree energ DENC   =     -1057.03391524
  -exchange      EXHF   =         0.00000000
  -V(xc)+E(xc)   XCENC  =       101.17894538
  PAW double counting   =      3869.17357318    -3601.97287308
  entropy T*S    EENTRO =        -0.00198800
  eigenvalues    EBANDS =       481.16829576
  atomic energy  EATOM  =      4822.75196862
  Solvation  Ediel_sol  =         0.00000000
  ---------------------------------------------------
  free energy    TOTEN  =       476.64662005 eV

  energy without entropy =      476.64860805  energy(sigma->0) =      476.64711705


--------------------------------------------------------------------------------------------------------




--------------------------------------- Iteration      1(   2)  ---------------------------------------


     EDDAV:  cpu time   20.6486: real time   21.0088
       DOS:  cpu time    0.0034: real time    0.0034
    --------------------------------------------
      LOOP:  cpu time   20.6520: real time   21.0122

 eigenvalue-minimisations  :  8776
 total energy-change (2. order) :-0.6518884E+03  (-0.6249463E+03)
 number of electron     124.0000000 magnetization 
 augmentation part      124.0000000 magnetization 

 Free energy of the ion-electron system (eV)
  ---------------------------------------------------
  alpha Z        PSCENC =       145.25177883
  Ewald energy   TEWEN  =     -4283.86916541
  -Hartree energ DENC   =     -1057.03391524
  -exchange      EXHF   =         0.00000000
  -V(xc)+E(xc)   XCENC  =       101.17894538
  PAW double counting   =      3869.17357318    -3601.97287308
  entropy T*S    EENTRO =         0.00214388
  eigenvalues    EBANDS =      -170.72426808
  atomic energy  EATOM  =      4822.75196862
  Solvation  Ediel_sol  =         0.00000000
  ---------------------------------------------------
  free energy    TOTEN  =      -175.24181192 eV

  energy without entropy =     -175.24395580  energy(sigma->0) =     -175.24234789


--------------------------------------------------------------------------------------------------------




--------------------------------------- Iteration      1(   3)  ---------------------------------------


     EDDAV:  cpu time   14.9120: real time   14.9110
       DOS:  cpu time    0.0036: real time    0.0036
    --------------------------------------------
      LOOP:  cpu time   14.9155: real time   14.9146

 eigenvalue-minimisations  :  8464
 total energy-change (2. order) :-0.5028791E+02  (-0.4985914E+02)
 number of electron     124.0000000 magnetization 
 augmentation part      124.0000000 magnetization 

 Free energy of the ion-electron system (eV)
  ---------------------------------------------------
  alpha Z        PSCENC =       145.25177883
  Ewald energy   TEWEN  =     -4283.86916541
  -Hartree energ DENC   =     -1057.03391524
  -exchange      EXHF   =         0.00000000
  -V(xc)+E(xc)   XCENC  =       101.17894538
  PAW double counting   =      3869.17357318    -3601.97287308
  entropy T*S    EENTRO =        -0.02352282
  eigenvalues    EBANDS =      -220.98651351
  atomic energy  EATOM  =      4822.75196862
  Solvation  Ediel_sol  =         0.00000000
  ---------------------------------------------------
  free energy    TOTEN  =      -225.52972405 eV

  energy without entropy =     -225.50620123  energy(sigma->0) =     -225.52384335


--------------------------------------------------------------------------------------------------------




--------------------------------------- Iteration      1(   4)  ---------------------------------------


     EDDAV:  cpu time   28.0811: real time   28.0729
       DOS:  cpu time    0.0036: real time    0.0036
    --------------------------------------------
      LOOP:  cpu time   28.0847: real time   28.0764

 eigenvalue-minimisations  :  8760
 total energy-change (2. order) :-0.1102919E+01  (-0.1097481E+01)
 number of electron     124.0000000 magnetization 
 augmentation part      124.0000000 magnetization 

 Free energy of the ion-electron system (eV)
  ---------------------------------------------------
  alpha Z        PSCENC =       145.25177883
  Ewald energy   TEWEN  =     -4283.86916541
  -Hartree energ DENC   =     -1057.03391524
  -exchange      EXHF   =         0.00000000
  -V(xc)+E(xc)   XCENC  =       101.17894538
  PAW double counting   =      3869.17357318    -3601.97287308
  entropy T*S    EENTRO =        -0.02648783
  eigenvalues    EBANDS =      -222.08646781
  atomic energy  EATOM  =      4822.75196862
  Solvation  Ediel_sol  =         0.00000000
  ---------------------------------------------------
  free energy    TOTEN  =      -226.63264336 eV

  energy without entropy =     -226.60615553  energy(sigma->0) =     -226.62602140


--------------------------------------------------------------------------------------------------------




--------------------------------------- Iteration      1(   5)  ---------------------------------------


     EDDAV:  cpu time   18.5876: real time   18.5849
       DOS:  cpu time    0.0036: real time    0.0036
    CHARGE:  cpu time    0.3271: real time    0.3271
    MIXING:  cpu time    0.0011: real time    0.0012
    --------------------------------------------
      LOOP:  cpu time   18.9195: real time   18.9168

 eigenvalue-minimisations  :  8568
 total energy-change (2. order) :-0.2628198E-01  (-0.2624161E-01)
 number of electron     124.0000007 magnetization 
 augmentation part        0.9518184 magnetization 

 Broyden mixing:
  rms(total) = 0.37553E+01    rms(broyden)= 0.37541E+01
  rms(prec ) = 0.52675E+01
  weight for this iteration     100.00

 Free energy of the ion-electron system (eV)
  ---------------------------------------------------
  alpha Z        PSCENC =       145.25177883
  Ewald energy   TEWEN  =     -4283.86916541
  -Hartree energ DENC   =     -1057.03391524
  -exchange      EXHF   =         0.00000000
  -V(xc)+E(xc)   XCENC  =       101.17894538
  PAW double counting   =      3869.17357318    -3601.97287308
  entropy T*S    EENTRO =        -0.02650592
  eigenvalues    EBANDS =      -222.11273170
  atomic energy  EATOM  =      4822.75196862
  Solvation  Ediel_sol  =         0.00000000
  ---------------------------------------------------
  free energy    TOTEN  =      -226.65892534 eV

  energy without entropy =     -226.63241942  energy(sigma->0) =     -226.65229886


--------------------------------------------------------------------------------------------------------




--------------------------------------- Iteration      1(   6)  ---------------------------------------


    POTLOK:  cpu time    0.0365: real time    0.0365
    SETDIJ:  cpu time    0.0044: real time    0.0046
    EDDIAG:  cpu time    0.9073: real time    0.9074
  RMM-DIIS:  cpu time    4.5858: real time    4.5866
    ORTHCH:  cpu time    0.0937: real time    0.0937
       DOS:  cpu time    0.0037: real time    0.0037
    CHARGE:  cpu time    0.3736: real time    0.3739
    MIXING:  cpu time    0.0014: real time    0.0014
    --------------------------------------------
      LOOP:  cpu time    6.0062: real time    6.0078

 eigenvalue-minimisations  :  7053
 total energy-change (2. order) : 0.2493305E+02  (-0.1103176E+02)
 number of electron     124.0000005 magnetization 
 augmentation part       -0.4741816 magnetization 

 Broyden mixing:
  rms(total) = 0.16960E+01    rms(broyden)= 0.16953E+01
  rms(prec ) = 0.19079E+01
  weight for this iteration     100.00

 eigenvalues of (default mixing * dielectric matrix)
  average eigenvalue GAMMA=   1.1620
  1.1620

 Free energy of the ion-electron system (eV)
  ---------------------------------------------------
  alpha Z        PSCENC =       145.25177883
  Ewald energy   TEWEN  =     -4283.86916541
  -Hartree energ DENC   =     -1247.78468765
  -exchange      EXHF   =         0.00000000
  -V(xc)+E(xc)   XCENC  =       114.71752329
  PAW double counting   =      8592.71223073    -8328.31267784
  entropy T*S    EENTRO =        -0.00353012
  eigenvalues    EBANDS =       -17.18931962
  atomic energy  EATOM  =      4822.75196862
  Solvation  Ediel_sol  =         0.00000000
  ---------------------------------------------------
  free energy    TOTEN  =      -201.72587917 eV

  energy without entropy =     -201.72234905  energy(sigma->0) =     -201.72499664


--------------------------------------------------------------------------------------------------------




--------------------------------------- Iteration      1(   7)  ---------------------------------------


    POTLOK:  cpu time    0.0378: real time    0.0379
    SETDIJ:  cpu time    0.0045: real time    0.0048
    EDDIAG:  cpu time    0.9083: real time    0.9091
  RMM-DIIS:  cpu time    4.6789: real time    4.6796
    ORTHCH:  cpu time    0.0929: real time    0.0928
       DOS:  cpu time    0.0039: real time    0.0039
    CHARGE:  cpu time    0.3310: real time    0.3312
    MIXING:  cpu time    0.0011: real time    0.0011
    --------------------------------------------
      LOOP:  cpu time    6.0583: real time    6.0604

 eigenvalue-minimisations  :  7158
 total energy-change (2. order) : 0.5635910E+00  (-0.4940481E+00)
 number of electron     124.0000005 magnetization 
 augmentation part       -0.6270486 magnetization 

 Broyden mixing:
  rms(total) = 0.92073E+00    rms(broyden)= 0.92061E+00
  rms(prec ) = 0.10405E+01
  weight for this iteration     100.00

 eigenvalues of (default mixing * dielectric matrix)
  average eigenvalue GAMMA=   1.6446
  1.1464  2.1427

 Free energy of the ion-electron system (eV)
  ---------------------------------------------------
  alpha Z        PSCENC =       145.25177883
  Ewald energy   TEWEN  =     -4283.86916541
  -Hartree energ DENC   =     -1270.46782705
  -exchange      EXHF   =         0.00000000
  -V(xc)+E(xc)   XCENC  =       117.19852129
  PAW double counting   =     13130.30567745   -12867.12249226
  entropy T*S    EENTRO =        -0.00813602
  eigenvalues    EBANDS =         4.79738639
  atomic energy  EATOM  =      4822.75196862
  Solvation  Ediel_sol  =         0.00000000
  ---------------------------------------------------
  free energy    TOTEN  =      -201.16228814 eV

  energy without entropy =     -201.15415212  energy(sigma->0) =     -201.16025414


--------------------------------------------------------------------------------------------------------




--------------------------------------- Iteration      1(   8)  ---------------------------------------


    POTLOK:  cpu time    0.0361: real time    0.0362
    SETDIJ:  cpu time    0.0041: real time    0.0041
    EDDIAG:  cpu time    0.9053: real time    0.9055
  RMM-DIIS:  cpu time    5.4544: real time    5.8902
    ORTHCH:  cpu time    0.0889: real time    0.0890
       DOS:  cpu time    0.0038: real time    0.0038
    CHARGE:  cpu time    0.3078: real time    0.3088
    MIXING:  cpu time    0.0012: real time    0.0012
    --------------------------------------------
      LOOP:  cpu time    6.8017: real time    7.2387

 eigenvalue-minimisations  :  7040
 total energy-change (2. order) : 0.1852313E+00  (-0.1100544E+00)
 number of electron     124.0000005 magnetization 
 augmentation part       -0.5479555 magnetization 

 Broyden mixing:
  rms(total) = 0.16271E+00    rms(broyden)= 0.16270E+00
  rms(prec ) = 0.27730E+00
  weight for this iteration     100.00

 eigenvalues of (default mixing * dielectric matrix)
  average eigenvalue GAMMA=   1.4241
  2.3145  1.0322  0.9255

 Free energy of the ion-electron system (eV)
  ---------------------------------------------------
  alpha Z        PSCENC =       145.25177883
  Ewald energy   TEWEN  =     -4283.86916541
  -Hartree energ DENC   =     -1270.84369550
  -exchange      EXHF   =         0.00000000
  -V(xc)+E(xc)   XCENC  =       118.29279858
  PAW double counting   =     18181.72171743   -17919.55725671
  entropy T*S    EENTRO =        -0.00296420
  eigenvalues    EBANDS =         5.27776150
  atomic energy  EATOM  =      4822.75196862
  Solvation  Ediel_sol  =         0.00000000
  ---------------------------------------------------
  free energy    TOTEN  =      -200.97705686 eV

  energy without entropy =     -200.97409266  energy(sigma->0) =     -200.97631581


--------------------------------------------------------------------------------------------------------




--------------------------------------- Iteration      1(   9)  ---------------------------------------


    POTLOK:  cpu time    0.0372: real time    0.0394
    SETDIJ:  cpu time    0.0042: real time    0.0042
    EDDIAG:  cpu time    0.9028: real time    0.9053
  RMM-DIIS:  cpu time    6.3331: real time    6.3399
    ORTHCH:  cpu time    4.4965: real time    4.4948
       DOS:  cpu time    0.0035: real time    0.0035
    CHARGE:  cpu time    0.5630: real time    0.5628
    MIXING:  cpu time    0.0013: real time    0.0013
    --------------------------------------------
      LOOP:  cpu time   12.3416: real time   12.3511

 eigenvalue-minimisations  :  7047
 total energy-change (2. order) : 0.2610395E-01  (-0.7819190E-02)
 number of electron     124.0000005 magnetization 
 augmentation part       -0.5468500 magnetization 

 Broyden mixing:
  rms(total) = 0.72810E-01    rms(broyden)= 0.72801E-01
  rms(prec ) = 0.12968E+00
  weight for this iteration     100.00

 eigenvalues of (default mixing * dielectric matrix)
  average eigenvalue GAMMA=   1.3443
  2.3716  1.1798  1.1798  0.6459

 Free energy of the ion-electron system (eV)
  ---------------------------------------------------
  alpha Z        PSCENC =       145.25177883
  Ewald energy   TEWEN  =     -4283.86916541
  -Hartree energ DENC   =     -1275.85805261
  -exchange      EXHF   =         0.00000000
  -V(xc)+E(xc)   XCENC  =       118.81832159
  PAW double counting   =     19085.45534058   -18823.46465530
  entropy T*S    EENTRO =        -0.00884586
  eigenvalues    EBANDS =         9.97235664
  atomic energy  EATOM  =      4822.75196862
  Solvation  Ediel_sol  =         0.00000000
  ---------------------------------------------------
  free energy    TOTEN  =      -200.95095291 eV

  energy without entropy =     -200.94210705  energy(sigma->0) =     -200.94874145


--------------------------------------------------------------------------------------------------------




--------------------------------------- Iteration      1(  10)  ---------------------------------------


    POTLOK:  cpu time    0.0361: real time    0.0362
    SETDIJ:  cpu time    0.0040: real time    0.0040
    EDDIAG:  cpu time    0.9019: real time    0.9019
  RMM-DIIS:  cpu time    4.8683: real time    4.8677
    ORTHCH:  cpu time    0.0880: real time    0.0880
       DOS:  cpu time    0.0039: real time    0.0039
    CHARGE:  cpu time    0.3208: real time    0.3208
    MIXING:  cpu time    0.0012: real time    0.0012
    --------------------------------------------
      LOOP:  cpu time    6.2242: real time    6.2237

 eigenvalue-minimisations  :  7040
 total energy-change (2. order) : 0.6070366E-02  (-0.1023288E-01)
 number of electron     124.0000005 magnetization 
 augmentation part       -0.5910584 magnetization 

 Broyden mixing:
  rms(total) = 0.48641E-01    rms(broyden)= 0.48602E-01
  rms(prec ) = 0.80470E-01
  weight for this iteration     100.00

 eigenvalues of (default mixing * dielectric matrix)
  average eigenvalue GAMMA=   1.4402
  2.2816  2.2816  1.0426  1.0426  0.5524

 Free energy of the ion-electron system (eV)
  ---------------------------------------------------
  alpha Z        PSCENC =       145.25177883
  Ewald energy   TEWEN  =     -4283.86916541
  -Hartree energ DENC   =     -1281.79122166
  -exchange      EXHF   =         0.00000000
  -V(xc)+E(xc)   XCENC  =       119.20658501
  PAW double counting   =     19205.32985133   -18943.36452207
  entropy T*S    EENTRO =        -0.00690174
  eigenvalues    EBANDS =        15.54674454
  atomic energy  EATOM  =      4822.75196862
  Solvation  Ediel_sol  =         0.00000000
  ---------------------------------------------------
  free energy    TOTEN  =      -200.94488255 eV

  energy without entropy =     -200.93798081  energy(sigma->0) =     -200.94315711


--------------------------------------------------------------------------------------------------------




--------------------------------------- Iteration      1(  11)  ---------------------------------------


    POTLOK:  cpu time    0.0358: real time    0.0359
    SETDIJ:  cpu time    0.0041: real time    0.0040
    EDDIAG:  cpu time    1.5116: real time    1.5114
  RMM-DIIS:  cpu time    6.2413: real time    6.2394
    ORTHCH:  cpu time    0.0883: real time    0.0883
       DOS:  cpu time    0.0036: real time    0.0036
    CHARGE:  cpu time    1.4588: real time    1.4582
    MIXING:  cpu time    0.0018: real time    0.0018
    --------------------------------------------
      LOOP:  cpu time    9.3452: real time    9.3426

 eigenvalue-minimisations  :  7040
 total energy-change (2. order) : 0.1797143E-02  (-0.9247415E-03)
 number of electron     124.0000005 magnetization 
 augmentation part       -0.5844631 magnetization 

 Broyden mixing:
  rms(total) = 0.18866E-01    rms(broyden)= 0.18864E-01
  rms(prec ) = 0.33410E-01
  weight for this iteration     100.00

 eigenvalues of (default mixing * dielectric matrix)
  average eigenvalue GAMMA=   1.4583
  2.3691  2.3691  1.2626  1.1089  1.1089  0.5315

 Free energy of the ion-electron system (eV)
  ---------------------------------------------------
  alpha Z        PSCENC =       145.25177883
  Ewald energy   TEWEN  =     -4283.86916541
  -Hartree energ DENC   =     -1280.53620839
  -exchange      EXHF   =         0.00000000
  -V(xc)+E(xc)   XCENC  =       119.12783308
  PAW double counting   =     19075.18076267   -18813.17591751
  entropy T*S    EENTRO =        -0.00841322
  eigenvalues    EBANDS =        14.33427593
  atomic energy  EATOM  =      4822.75196862
  Solvation  Ediel_sol  =         0.00000000
  ---------------------------------------------------
  free energy    TOTEN  =      -200.94308540 eV

  energy without entropy =     -200.93467218  energy(sigma->0) =     -200.94098210


--------------------------------------------------------------------------------------------------------




--------------------------------------- Iteration      1(  12)  ---------------------------------------


    POTLOK:  cpu time    0.0363: real time    0.0365
    SETDIJ:  cpu time    0.0043: real time    0.0046
    EDDIAG:  cpu time    0.8997: real time    0.9001
  RMM-DIIS:  cpu time    5.1778: real time    5.1762
    ORTHCH:  cpu time    0.0879: real time    0.0879
       DOS:  cpu time    0.0037: real time    0.0037
    CHARGE:  cpu time    0.3071: real time    0.3071
    MIXING:  cpu time    0.0013: real time    0.0013
    --------------------------------------------
      LOOP:  cpu time    6.5180: real time    6.5173

 eigenvalue-minimisations  :  7040
 total energy-change (2. order) : 0.2024500E-03  (-0.3895179E-03)
 number of electron     124.0000005 magnetization 
 augmentation part       -0.5790005 magnetization 

 Broyden mixing:
  rms(total) = 0.96433E-02    rms(broyden)= 0.96403E-02
  rms(prec ) = 0.23032E-01
  weight for this iteration     100.00

 eigenvalues of (default mixing * dielectric matrix)
  average eigenvalue GAMMA=   1.5048
  2.5799  2.5400  1.8986  1.0383  1.0383  0.9203  0.5181

 Free energy of the ion-electron system (eV)
  ---------------------------------------------------
  alpha Z        PSCENC =       145.25177883
  Ewald energy   TEWEN  =     -4283.86916541
  -Hartree energ DENC   =     -1279.92962003
  -exchange      EXHF   =         0.00000000
  -V(xc)+E(xc)   XCENC  =       119.10318722
  PAW double counting   =     19065.30897501   -18803.30496199
  entropy T*S    EENTRO =        -0.00786894
  eigenvalues    EBANDS =        13.75282372
  atomic energy  EATOM  =      4822.75196862
  Solvation  Ediel_sol  =         0.00000000
  ---------------------------------------------------
  free energy    TOTEN  =      -200.94288295 eV

  energy without entropy =     -200.93501402  energy(sigma->0) =     -200.94091572


--------------------------------------------------------------------------------------------------------




--------------------------------------- Iteration      1(  13)  ---------------------------------------


    POTLOK:  cpu time    0.0357: real time    0.0359
    SETDIJ:  cpu time    0.0040: real time    0.0040
    EDDIAG:  cpu time    0.9067: real time    0.9066
  RMM-DIIS:  cpu time    4.0048: real time    4.0041
    ORTHCH:  cpu time    0.0914: real time    0.0914
       DOS:  cpu time    0.0038: real time    0.0038
    CHARGE:  cpu time    0.3174: real time    0.3174
    MIXING:  cpu time    0.0013: real time    0.0013
    --------------------------------------------
      LOOP:  cpu time    5.3651: real time    5.3644

 eigenvalue-minimisations  :  5173
 total energy-change (2. order) : 0.1622692E-03  (-0.3932928E-04)
 number of electron     124.0000005 magnetization 
 augmentation part       -0.5778820 magnetization 

 Broyden mixing:
  rms(total) = 0.27749E-02    rms(broyden)= 0.27712E-02
  rms(prec ) = 0.42269E-02
  weight for this iteration     100.00

 eigenvalues of (default mixing * dielectric matrix)
  average eigenvalue GAMMA=   1.4706
  2.7226  2.4659  1.8245  1.0746  1.0746  1.1749  0.9100  0.5179

 Free energy of the ion-electron system (eV)
  ---------------------------------------------------
  alpha Z        PSCENC =       145.25177883
  Ewald energy   TEWEN  =     -4283.86916541
  -Hartree energ DENC   =     -1280.06075106
  -exchange      EXHF   =         0.00000000
  -V(xc)+E(xc)   XCENC  =       119.11959633
  PAW double counting   =     19029.67249608   -18767.66718496
  entropy T*S    EENTRO =        -0.00825011
  eigenvalues    EBANDS =        13.86679100
  atomic energy  EATOM  =      4822.75196862
  Solvation  Ediel_sol  =         0.00000000
  ---------------------------------------------------
  free energy    TOTEN  =      -200.94272069 eV

  energy without entropy =     -200.93447057  energy(sigma->0) =     -200.94065816


--------------------------------------------------------------------------------------------------------




--------------------------------------- Iteration      1(  14)  ---------------------------------------


    POTLOK:  cpu time    0.0357: real time    0.0359
    SETDIJ:  cpu time    0.0042: real time    0.0042
    EDDIAG:  cpu time    0.9011: real time    0.9010
  RMM-DIIS:  cpu time    3.2807: real time    3.2797
    ORTHCH:  cpu time    0.0870: real time    0.0870
       DOS:  cpu time    0.0036: real time    0.0036
    --------------------------------------------
      LOOP:  cpu time    4.3123: real time    4.3113

 eigenvalue-minimisations  :  4258
 total energy-change (2. order) : 0.1551312E-04  (-0.5374070E-05)
 number of electron     124.0000005 magnetization 
 augmentation part       -0.5778820 magnetization 

 Free energy of the ion-electron system (eV)
  ---------------------------------------------------
  alpha Z        PSCENC =       145.25177883
  Ewald energy   TEWEN  =     -4283.86916541
  -Hartree energ DENC   =     -1280.21288871
  -exchange      EXHF   =         0.00000000
  -V(xc)+E(xc)   XCENC  =       119.12890964
  PAW double counting   =     19029.76868464   -18767.76367494
  entropy T*S    EENTRO =        -0.00822516
  eigenvalues    EBANDS =        14.00990730
  atomic energy  EATOM  =      4822.75196862
  Solvation  Ediel_sol  =         0.00000000
  ---------------------------------------------------
  free energy    TOTEN  =      -200.94270517 eV

  energy without entropy =     -200.93448001  energy(sigma->0) =     -200.94064888


--------------------------------------------------------------------------------------------------------




 average (electrostatic) potential at core
  the test charge radii are     0.7089  0.9892
  (the norm of the test charge is              1.0000)
       1 -61.0803       2 -61.0803       3 -61.0950       4 -61.0803       5 -61.0950
       6 -61.0950       7 -61.0803       8 -61.0950       9 -61.0803      10 -61.0803
      11 -61.0950      12 -61.0950      13 -82.1069      14 -82.1069      15 -82.1069
      16 -82.1069      17 -80.9906      18 -81.9669      19 -80.9906      20 -80.3621
      21 -81.9669      22 -82.1069      23 -82.1069      24 -80.3621      25 -81.9669
      26 -81.9669      27 -81.9669      28 -81.9669
 
 
 
 E-fermi :   8.0119     XC(G=0): -10.6556     alpha+bet :-14.5369


 k-point     1 :       0.0000    0.0000    0.0000
  band No.  band energies     occupation 
      1     -10.9908      2.00000
      2     -10.2880      2.00000
      3     -10.2880      2.00000
      4      -9.4307      2.00000
      5      -9.4307      2.00000
      6      -8.7203      2.00000
      7      -8.3096      2.00000
      8      -8.2771      2.00000
      9      -8.2771      2.00000
     10      -8.2316      2.00000
     11      -8.1595      2.00000
     12      -8.1595      2.00000
     13      -3.8545      2.00000
     14      -2.8949      2.00000
     15      -2.8949      2.00000
     16      -2.5739      2.00000
     17      -1.8431      2.00000
     18      -1.6443      2.00000
     19      -1.6443      2.00000
     20      -1.0622      2.00000
     21      -0.7177      2.00000
     22      -0.7177      2.00000
     23      -0.4365      2.00000
     24      -0.0298      2.00000
     25      -0.0298      2.00000
     26       0.2989      2.00000
     27       0.3417      2.00000
     28       0.9499      2.00000
     29       1.0505      2.00000
     30       1.0505      2.00000
     31       1.3715      2.00000
     32       1.8383      2.00000
     33       1.8383      2.00000
     34       1.9485      2.00000
     35       2.0870      2.00000
     36       2.0870      2.00000
     37       2.4411      2.00000
     38       2.4876      2.00000
     39       2.4876      2.00000
     40       2.8414      2.00000
     41       2.8414      2.00000
     42       3.5896      2.00000
     43       3.5896      2.00000
     44       3.6073      2.00000
     45       3.7052      2.00000
     46       3.7052      2.00000
     47       4.2547      2.00000
     48       4.3878      2.00000
     49       4.6533      2.00000
     50       4.7606      2.00000
     51       4.7606      2.00000
     52       5.0941      2.00000
     53       5.2579      2.00000
     54       5.4305      2.00000
     55       5.4305      2.00000
     56       5.8215      2.00000
     57       5.8215      2.00000
     58       6.4933      2.00000
     59       6.4933      2.00000
     60       7.0157      2.00000
     61       7.0157      2.00000
     62       7.6101      2.00000
     63       8.2782      0.00241
     64       9.7232      0.00000
     65       9.7232      0.00000
     66      10.6104      0.00000
     67      10.6104      0.00000
     68      11.0568      0.00000
     69      11.0569      0.00000
     70      11.2104      0.00000
     71      11.7927      0.00000
     72      11.9652      0.00000
     73      12.1719      0.00000
     74      12.1737      0.00000
     75      12.4425      0.00000
     76      12.8514      0.00000
     77      12.9160      0.00000
     78      13.0008      0.00000
     79      13.1434      0.00000
     80      13.1738      0.00000

 k-point     2 :       0.1667    0.0000    0.0000
  band No.  band energies     occupation 
      1     -10.9580      2.00000
      2     -10.3556      2.00000
      3     -10.3136      2.00000
      4      -9.3969      2.00000
      5      -9.3577      2.00000
      6      -8.6885      2.00000
      7      -8.4427      2.00000
      8      -8.2965      2.00000
      9      -8.2600      2.00000
     10      -8.2220      2.00000
     11      -8.1592      2.00000
     12      -8.1233      2.00000
     13      -3.7685      2.00000
     14      -2.9031      2.00000
     15      -2.8103      2.00000
     16      -2.5190      2.00000
     17      -1.9255      2.00000
     18      -1.7121      2.00000
     19      -1.6461      2.00000
     20      -1.3250      2.00000
     21      -0.9517      2.00000
     22      -0.6285      2.00000
     23      -0.4544      2.00000
     24      -0.0756      2.00000
     25       0.1323      2.00000
     26       0.4278      2.00000
     27       0.5242      2.00000
     28       0.9754      2.00000
     29       0.9916      2.00000
     30       1.0070      2.00000
     31       1.4070      2.00000
     32       1.7219      2.00000
     33       1.8703      2.00000
     34       1.9395      2.00000
     35       2.1030      2.00000
     36       2.1343      2.00000
     37       2.4504      2.00000
     38       2.4801      2.00000
     39       2.6721      2.00000
     40       2.8730      2.00000
     41       2.8972      2.00000
     42       3.4597      2.00000
     43       3.5232      2.00000
     44       3.6035      2.00000
     45       3.7552      2.00000
     46       3.8137      2.00000
     47       4.2416      2.00000
     48       4.2569      2.00000
     49       4.4013      2.00000
     50       4.8184      2.00000
     51       4.9705      2.00000
     52       5.1087      2.00000
     53       5.2439      2.00000
     54       5.4649      2.00000
     55       5.5528      2.00000
     56       5.7441      2.00000
     57       5.8159      2.00000
     58       6.3834      2.00000
     59       6.4302      2.00000
     60       6.9036      2.00000
     61       7.0038      2.00000
     62       7.6489      1.99998
     63       8.2079      0.00963
     64       9.8454      0.00000
     65       9.9120      0.00000
     66      10.5417      0.00000
     67      10.5783      0.00000
     68      11.0593      0.00000
     69      11.1926      0.00000
     70      11.3796      0.00000
     71      11.6352      0.00000
     72      11.9861      0.00000
     73      12.0469      0.00000
     74      12.2970      0.00000
     75      12.5395      0.00000
     76      12.6741      0.00000
     77      12.9076      0.00000
     78      12.9545      0.00000
     79      13.1674      0.00000
     80      13.2794      0.00000

 k-point     3 :       0.3333    0.0000    0.0000
  band No.  band energies     occupation 
      1     -10.8658      2.00000
      2     -10.5090      2.00000
      3     -10.3577      2.00000
      4      -9.3444      2.00000
      5      -9.1689      2.00000
      6      -8.6666      2.00000
      7      -8.6021      2.00000
      8      -8.3568      2.00000
      9      -8.2655      2.00000
     10      -8.2048      2.00000
     11      -8.1586      2.00000
     12      -8.0971      2.00000
     13      -3.5248      2.00000
     14      -2.9327      2.00000
     15      -2.6282      2.00000
     16      -2.4436      2.00000
     17      -2.1396      2.00000
     18      -1.8184      2.00000
     19      -1.6971      2.00000
     20      -1.5935      2.00000
     21      -1.3123      2.00000
     22      -0.5006      2.00000
     23      -0.4914      2.00000
     24      -0.2474      2.00000
     25       0.2981      2.00000
     26       0.6465      2.00000
     27       0.7556      2.00000
     28       0.8446      2.00000
     29       1.0910      2.00000
     30       1.1522      2.00000
     31       1.5442      2.00000
     32       1.6010      2.00000
     33       1.8167      2.00000
     34       1.8777      2.00000
     35       2.0281      2.00000
     36       2.2194      2.00000
     37       2.4376      2.00000
     38       2.5016      2.00000
     39       2.8540      2.00000
     40       2.9394      2.00000
     41       3.0161      2.00000
     42       3.3482      2.00000
     43       3.4081      2.00000
     44       3.6248      2.00000
     45       3.7732      2.00000
     46       3.9998      2.00000
     47       4.1612      2.00000
     48       4.3012      2.00000
     49       4.3828      2.00000
     50       4.7917      2.00000
     51       4.9305      2.00000
     52       5.1441      2.00000
     53       5.1593      2.00000
     54       5.4060      2.00000
     55       5.6027      2.00000
     56       5.7196      2.00000
     57       5.8465      2.00000
     58       6.1817      2.00000
     59       6.3477      2.00000
     60       6.6965      2.00000
     61       7.0489      2.00000
     62       7.7442      1.99771
     63       8.0672      0.06698
     64      10.0897      0.00000
     65      10.3362      0.00000
     66      10.4085      0.00000
     67      10.5738      0.00000
     68      11.0217      0.00000
     69      11.3937      0.00000
     70      11.5057      0.00000
     71      11.6401      0.00000
     72      11.7857      0.00000
     73      12.1255      0.00000
     74      12.4259      0.00000
     75      12.5184      0.00000
     76      12.6906      0.00000
     77      12.7460      0.00000
     78      12.8807      0.00000
     79      12.9587      0.00000
     80      13.1750      0.00000

 k-point     4 :       0.5000    0.0000    0.0000
  band No.  band energies     occupation 
      1     -10.7715      2.00000
      2     -10.6307      2.00000
      3     -10.3772      2.00000
      4      -9.3236      2.00000
      5      -8.9257      2.00000
      6      -8.9189      2.00000
      7      -8.5220      2.00000
      8      -8.4232      2.00000
      9      -8.2683      2.00000
     10      -8.1960      2.00000
     11      -8.1582      2.00000
     12      -8.0937      2.00000
     13      -3.2769      2.00000
     14      -3.0340      2.00000
     15      -2.6460      2.00000
     16      -2.4001      2.00000
     17      -2.0537      2.00000
     18      -1.9777      2.00000
     19      -1.8035      2.00000
     20      -1.6113      2.00000
     21      -1.4795      2.00000
     22      -0.5292      2.00000
     23      -0.4159      2.00000
     24      -0.3501      2.00000
     25       0.4071      2.00000
     26       0.5985      2.00000
     27       0.7536      2.00000
     28       0.9630      2.00000
     29       1.2127      2.00000
     30       1.2627      2.00000
     31       1.4391      2.00000
     32       1.6773      2.00000
     33       1.8082      2.00000
     34       1.8896      2.00000
     35       1.9682      2.00000
     36       2.2706      2.00000
     37       2.2922      2.00000
     38       2.5251      2.00000
     39       2.8190      2.00000
     40       2.9928      2.00000
     41       3.1383      2.00000
     42       3.3224      2.00000
     43       3.4089      2.00000
     44       3.5325      2.00000
     45       3.7947      2.00000
     46       4.1401      2.00000
     47       4.1818      2.00000
     48       4.4162      2.00000
     49       4.5206      2.00000
     50       4.7356      2.00000
     51       4.7649      2.00000
     52       5.0709      2.00000
     53       5.1898      2.00000
     54       5.3005      2.00000
     55       5.5676      2.00000
     56       5.7384      2.00000
     57       5.7474      2.00000
     58       6.0927      2.00000
     59       6.5003      2.00000
     60       6.5285      2.00000
     61       7.0940      2.00000
     62       7.8266      1.99235
     63       7.9695      1.78304
     64      10.2562      0.00000
     65      10.3099      0.00000
     66      10.5390      0.00000
     67      10.7341      0.00000
     68      10.8386      0.00000
     69      11.4863      0.00000
     70      11.5453      0.00000
     71      11.5494      0.00000
     72      11.8695      0.00000
     73      12.1347      0.00000
     74      12.3978      0.00000
     75      12.4598      0.00000
     76      12.6545      0.00000
     77      12.6746      0.00000
     78      12.7478      0.00000
     79      12.9374      0.00000
     80      13.0019      0.00000

 k-point     5 :       0.1667    0.1667    0.0000
  band No.  band energies     occupation 
      1     -10.8951      2.00000
      2     -10.4530      2.00000
      3     -10.3622      2.00000
      4      -9.3207      2.00000
      5      -9.2612      2.00000
      6      -8.6281      2.00000
      7      -8.6045      2.00000
      8      -8.3217      2.00000
      9      -8.2755      2.00000
     10      -8.2091      2.00000
     11      -8.1575      2.00000
     12      -8.1032      2.00000
     13      -3.6015      2.00000
     14      -2.8956      2.00000
     15      -2.7013      2.00000
     16      -2.4569      2.00000
     17      -2.0471      2.00000
     18      -1.8714      2.00000
     19      -1.6415      2.00000
     20      -1.5650      2.00000
     21      -1.1639      2.00000
     22      -0.6069      2.00000
     23      -0.4679      2.00000
     24      -0.1670      2.00000
     25       0.2268      2.00000
     26       0.6524      2.00000
     27       0.7020      2.00000
     28       0.8827      2.00000
     29       1.0176      2.00000
     30       1.1093      2.00000
     31       1.5232      2.00000
     32       1.6240      2.00000
     33       1.8122      2.00000
     34       1.9838      2.00000
     35       1.9993      2.00000
     36       2.1817      2.00000
     37       2.4571      2.00000
     38       2.5097      2.00000
     39       2.8292      2.00000
     40       2.9121      2.00000
     41       2.9286      2.00000
     42       3.3862      2.00000
     43       3.4333      2.00000
     44       3.6358      2.00000
     45       3.8297      2.00000
     46       3.8774      2.00000
     47       4.1597      2.00000
     48       4.2812      2.00000
     49       4.3804      2.00000
     50       4.9007      2.00000
     51       4.9072      2.00000
     52       5.1225      2.00000
     53       5.1907      2.00000
     54       5.4782      2.00000
     55       5.5815      2.00000
     56       5.6543      2.00000
     57       5.8646      2.00000
     58       6.1860      2.00000
     59       6.3833      2.00000
     60       6.7795      2.00000
     61       7.0181      2.00000
     62       7.7144      1.99933
     63       8.1052     -0.10281
     64      10.0459      0.00000
     65      10.1948      0.00000
     66      10.4541      0.00000
     67      10.5262      0.00000
     68      11.1875      0.00000
     69      11.2028      0.00000
     70      11.5291      0.00000
     71      11.6114      0.00000
     72      11.8661      0.00000
     73      12.2084      0.00000
     74      12.3451      0.00000
     75      12.4599      0.00000
     76      12.6810      0.00000
     77      12.7156      0.00000
     78      12.8210      0.00000
     79      13.0441      0.00000
     80      13.2763      0.00000

 k-point     6 :       0.3333    0.1667    0.0000
  band No.  band energies     occupation 
      1     -10.7854      2.00000
      2     -10.5923      2.00000
      3     -10.4090      2.00000
      4      -9.2560      2.00000
      5      -9.0771      2.00000
      6      -8.8357      2.00000
      7      -8.5320      2.00000
      8      -8.3785      2.00000
      9      -8.2919      2.00000
     10      -8.1963      2.00000
     11      -8.1517      2.00000
     12      -8.1036      2.00000
     13      -3.3105      2.00000
     14      -2.9176      2.00000
     15      -2.6766      2.00000
     16      -2.5114      2.00000
     17      -2.0850      2.00000
     18      -1.9338      2.00000
     19      -1.7552      2.00000
     20      -1.6243      2.00000
     21      -1.4352      2.00000
     22      -0.5471      2.00000
     23      -0.4632      2.00000
     24      -0.3349      2.00000
     25       0.3520      2.00000
     26       0.6699      2.00000
     27       0.7604      2.00000
     28       0.9464      2.00000
     29       1.2221      2.00000
     30       1.2624      2.00000
     31       1.5170      2.00000
     32       1.6724      2.00000
     33       1.7383      2.00000
     34       1.9218      2.00000
     35       2.0054      2.00000
     36       2.1747      2.00000
     37       2.3291      2.00000
     38       2.6000      2.00000
     39       2.8259      2.00000
     40       2.8868      2.00000
     41       3.0435      2.00000
     42       3.2904      2.00000
     43       3.3220      2.00000
     44       3.6876      2.00000
     45       3.8337      2.00000
     46       4.1183      2.00000
     47       4.2624      2.00000
     48       4.4122      2.00000
     49       4.4571      2.00000
     50       4.7716      2.00000
     51       4.9182      2.00000
[...]
     33       1.6741      2.00000
     34       1.6971      2.00000
     35       1.9471      2.00000
     36       2.0712      2.00000
     37       2.0983      2.00000
     38       2.4263      2.00000
     39       2.4949      2.00000
     40       2.6864      2.00000
     41       3.0564      2.00000
     42       3.1005      2.00000
     43       3.1943      2.00000
     44       3.2163      2.00000
     45       3.6179      2.00000
     46       3.8899      2.00000
     47       3.9425      2.00000
     48       4.2672      2.00000
     49       4.3352      2.00000
     50       4.4652      2.00000
     51       4.9288      2.00000
     52       4.9380      2.00000
     53       5.5277      2.00000
     54       5.5527      2.00000
     55       5.7266      2.00000
     56       5.7996      2.00000
     57       6.4136      2.00000
     58       6.4307      2.00000
     59       6.5547      2.00000
     60       6.5882      2.00000
     61       7.8731      2.08306
     62       7.8970      2.10213
     63       8.1681      0.00541
     64       8.1730      0.00731
     65      10.5326      0.00000
     66      10.6122      0.00000
     67      10.8077      0.00000
     68      10.8584      0.00000
     69      11.5869      0.00000
     70      11.6897      0.00000
     71      11.8101      0.00000
     72      12.0202      0.00000
     73      12.2474      0.00000
     74      12.4027      0.00000
     75      12.4553      0.00000
     76      12.5495      0.00000
     77      12.7433      0.00000
     78      12.7932      0.00000
     79      12.8765      0.00000
     80      12.9118      0.00000

 k-point    43 :       0.3333    0.1667    0.5000
  band No.  band energies     occupation 
      1     -10.0616      2.00000
      2     -10.0610      2.00000
      3      -9.6942      2.00000
      4      -9.6859      2.00000
      5      -9.6314      2.00000
      6      -9.6157      2.00000
      7      -8.6049      2.00000
      8      -8.5803      2.00000
      9      -8.5314      2.00000
     10      -8.5145      2.00000
     11      -8.0270      2.00000
     12      -8.0260      2.00000
     13      -2.5880      2.00000
     14      -2.5424      2.00000
     15      -2.1539      2.00000
     16      -2.0991      2.00000
     17      -1.8022      2.00000
     18      -1.7349      2.00000
     19      -1.1815      2.00000
     20      -1.1564      2.00000
     21      -0.6345      2.00000
     22      -0.6212      2.00000
     23      -0.0308      2.00000
     24       0.2171      2.00000
     25       0.2666      2.00000
     26       0.4554      2.00000
     27       0.5732      2.00000
     28       0.5803      2.00000
     29       0.8257      2.00000
     30       0.9822      2.00000
     31       1.3215      2.00000
     32       1.3723      2.00000
     33       1.5056      2.00000
     34       1.6193      2.00000
     35       1.8439      2.00000
     36       1.8628      2.00000
     37       2.0515      2.00000
     38       2.4945      2.00000
     39       2.6864      2.00000
     40       2.8828      2.00000
     41       3.1130      2.00000
     42       3.1606      2.00000
     43       3.2019      2.00000
     44       3.3188      2.00000
     45       3.7194      2.00000
     46       3.9663      2.00000
     47       4.2406      2.00000
     48       4.4420      2.00000
     49       4.6267      2.00000
     50       4.7171      2.00000
     51       4.8905      2.00000
     52       4.9510      2.00000
     53       5.2536      2.00000
     54       5.3199      2.00000
     55       5.6948      2.00000
     56       5.7357      2.00000
     57       6.1632      2.00000
     58       6.1812      2.00000
     59       6.4631      2.00000
     60       6.5013      2.00000
     61       7.9789      1.21028
     62       7.9951      0.86893
     63       8.1146     -0.06463
     64       8.1283     -0.03900
     65      10.4299      0.00000
     66      10.4942      0.00000
     67      10.8050      0.00000
     68      10.8684      0.00000
     69      11.2840      0.00000
     70      11.5178      0.00000
     71      11.8288      0.00000
     72      11.9673      0.00000
     73      12.2455      0.00000
     74      12.4836      0.00000
     75      12.5543      0.00000
     76      12.6397      0.00000
     77      12.7255      0.00000
     78      12.8147      0.00000
     79      12.9978      0.00000
     80      13.0597      0.00000

 k-point    44 :       0.3333    0.3333    0.5000
  band No.  band energies     occupation 
      1     -10.0465      2.00000
      2     -10.0465      2.00000
      3      -9.6823      2.00000
      4      -9.6823      2.00000
      5      -9.6734      2.00000
      6      -9.6418      2.00000
      7      -8.5833      2.00000
      8      -8.5399      2.00000
      9      -8.5399      2.00000
     10      -8.5255      2.00000
     11      -8.0376      2.00000
     12      -8.0376      2.00000
     13      -2.4582      2.00000
     14      -2.2708      2.00000
     15      -2.2392      2.00000
     16      -2.2392      2.00000
     17      -1.9189      2.00000
     18      -1.9189      2.00000
     19      -1.0863      2.00000
     20      -1.0352      2.00000
     21      -0.7279      2.00000
     22      -0.7279      2.00000
     23       0.1117      2.00000
     24       0.1117      2.00000
     25       0.4247      2.00000
     26       0.4247      2.00000
     27       0.5081      2.00000
     28       0.5390      2.00000
     29       0.9249      2.00000
     30       0.9249      2.00000
     31       1.3683      2.00000
     32       1.3683      2.00000
     33       1.4586      2.00000
     34       1.6952      2.00000
     35       1.6952      2.00000
     36       1.7302      2.00000
     37       1.9436      2.00000
     38       2.6719      2.00000
     39       2.6719      2.00000
     40       2.9174      2.00000
     41       3.1623      2.00000
     42       3.1623      2.00000
     43       3.3300      2.00000
     44       3.6297      2.00000
     45       3.6297      2.00000
     46       3.6863      2.00000
     47       4.4908      2.00000
     48       4.4908      2.00000
     49       4.6595      2.00000
     50       4.7968      2.00000
     51       4.7968      2.00000
     52       4.9465      2.00000
     53       5.2472      2.00000
     54       5.2472      2.00000
     55       5.7281      2.00000
     56       5.7281      2.00000
     57       6.1263      2.00000
     58       6.1263      2.00000
     59       6.3693      2.00000
     60       6.3995      2.00000
     61       8.0204      0.38174
     62       8.0223      0.35113
     63       8.1042     -0.08388
     64       8.1042     -0.08388
     65      10.4747      0.00000
     66      10.4747      0.00000
     67      10.8019      0.00000
     68      10.8019      0.00000
     69      11.0860      0.00000
     70      11.4680      0.00000
     71      11.8562      0.00000
     72      11.8562      0.00000
     73      12.3782      0.00000
     74      12.6089      0.00000
     75      12.6089      0.00000
     76      12.7719      0.00000
     77      12.7719      0.00000
     78      12.8436      0.00000
     79      12.9807      0.00000
     80      13.0061      0.00000


--------------------------------------------------------------------------------------------------------


 soft charge-density along one line, spin component           1
         0         1         2         3         4         5         6         7         8         9
 total charge-density along one line
 
 pseudopotential strength for first ion, spin component:           1
 12.415  14.880  -0.001  -0.001   0.001  -0.004  -0.003   0.003
 14.880  17.835  -0.001  -0.001   0.001  -0.005  -0.003   0.003
 -0.001  -0.001  -5.811   0.012  -0.015  -7.733   0.018  -0.023
 -0.001  -0.001   0.012  -5.823  -0.011   0.018  -7.751  -0.018
  0.001   0.001  -0.015  -0.011  -5.810  -0.023  -0.018  -7.731
 -0.004  -0.005  -7.733   0.018  -0.023  -9.572   0.029  -0.036
 -0.003  -0.003   0.018  -7.751  -0.018   0.029  -9.599  -0.028
  0.003   0.003  -0.023  -0.018  -7.731  -0.036  -0.028  -9.567
 total augmentation occupancy for first ion, spin component:           1
  7.763  -3.634   0.220   0.174  -0.171  -0.063  -0.052   0.053
 -3.634   1.828  -0.188  -0.143   0.145   0.041   0.034  -0.035
  0.220  -0.188   2.223  -0.104   0.138  -0.359   0.055  -0.068
  0.174  -0.143  -0.104   2.367   0.109   0.054  -0.413  -0.052
 -0.171   0.145   0.138   0.109   2.221  -0.068  -0.052  -0.353
 -0.063   0.041  -0.359   0.054  -0.068   0.069  -0.014   0.019
 -0.052   0.034   0.055  -0.413  -0.052  -0.014   0.083   0.013
  0.053  -0.035  -0.068  -0.052  -0.353   0.019   0.013   0.067


------------------------ aborting loop because EDIFF is reached ----------------------------------------


    CHARGE:  cpu time    0.3161: real time    0.3161
    FORLOC:  cpu time    0.0094: real time    0.0094
    FORNL :  cpu time    2.1846: real time    2.8143
    STRESS:  cpu time    6.1023: real time    6.3664
    FORCOR:  cpu time    0.0450: real time    0.0451
    FORHAR:  cpu time    0.0168: real time    0.0168
    MIXING:  cpu time    0.0010: real time    0.0010
    OFIELD:  cpu time    0.0000: real time    0.0000

  FORCE on cell =-STRESS in cart. coord.  units (eV):
  Direction    XX          YY          ZZ          XY          YZ          ZX
  --------------------------------------------------------------------------------------
  Alpha Z   145.25178   145.25178   145.25178
  Ewald   -1694.75849 -1694.75849  -905.02568    -0.00000    -0.00000    -0.00000
  Hartree   302.21522   302.21522   669.09270    -0.00000     0.00000    -0.00000
  E(xc)    -479.13793  -479.13793  -477.18746    -0.00000     0.00000     0.00000
  Local    -345.92161  -345.92097 -1441.73471    -0.00000     0.00000    -0.00000
  n-local   443.67276   443.74369   439.62683     0.05514     0.01402     0.21139
  augment   -76.04950   -76.05005   -75.20303     0.00000    -0.00000     0.00000
  Kinetic  1726.75792  1727.82460  1658.76622     0.02477     0.30745    -0.38704
  Fock        0.00000     0.00000     0.00000     0.00000     0.00000     0.00000
  -------------------------------------------------------------------------------------
  Total      22.59899    22.59899    13.58666     0.00000    -0.00000    -0.00000
  in kB     107.85459   107.85459    64.84284     0.00000    -0.00000    -0.00000
  external pressure =       93.52 kB  Pullay stress =        0.00 kB


 VOLUME and BASIS-vectors are now :
 -----------------------------------------------------------------------------
  energy-cutoff  :      400.00
  volume of cell :      335.71
      direct lattice vectors                 reciprocal lattice vectors
     4.228801392 -7.324498866  0.000000000     0.118236813 -0.068264056  0.000000000
     4.228801392  7.324498866  0.000000000     0.118236813  0.068264056  0.000000000
     0.000000000  0.000000000  5.419208841     0.000000000  0.000000000  0.184528781

  length of vectors
     8.457602783  8.457602783  5.419208841     0.136528112  0.136528112  0.184528781


 FORCES acting on ions
    electron-ion (+dipol)            ewald-force                    non-local-force                 convergence-correction
 -----------------------------------------------------------------------------------------------
   -.382E+02 -.113E+02 0.875E+01   0.419E+02 0.638E+01 -.122E+02   -.371E+01 0.489E+01 0.345E+01   0.590E-02 0.126E-01 0.873E-03
   0.936E+01 0.387E+02 0.875E+01   -.154E+02 -.395E+02 -.122E+02   0.609E+01 0.763E+00 0.345E+01   0.796E-02 -.114E-01 0.873E-03
   0.166E+02 0.196E+02 0.132E+02   -.181E+02 -.170E+02 -.159E+02   0.147E+01 -.260E+01 0.271E+01   -.318E-02 -.128E-01 -.561E-03
   -.382E+02 0.113E+02 0.875E+01   0.419E+02 -.638E+01 -.122E+02   -.371E+01 -.489E+01 0.345E+01   0.590E-02 -.126E-01 0.873E-03
   0.866E+01 0.242E+02 0.132E+02   -.567E+01 -.242E+02 -.159E+02   -.298E+01 -.276E-01 0.271E+01   -.953E-02 -.917E-02 -.561E-03
   0.166E+02 -.196E+02 0.132E+02   -.181E+02 0.170E+02 -.159E+02   0.147E+01 0.260E+01 0.271E+01   -.318E-02 0.128E-01 -.561E-03
   0.289E+02 -.275E+02 0.875E+01   -.265E+02 0.331E+02 -.122E+02   -.239E+01 -.566E+01 0.345E+01   -.139E-01 -.119E-02 0.873E-03
   -.253E+02 -.459E+01 0.132E+02   0.238E+02 0.717E+01 -.159E+02   0.152E+01 -.257E+01 0.271E+01   0.127E-01 -.367E-02 -.561E-03
   0.936E+01 -.387E+02 0.875E+01   -.154E+02 0.395E+02 -.122E+02   0.609E+01 -.763E+00 0.345E+01   0.796E-02 0.114E-01 0.873E-03
   0.289E+02 0.275E+02 0.875E+01   -.265E+02 -.331E+02 -.122E+02   -.239E+01 0.566E+01 0.345E+01   -.139E-01 0.119E-02 0.873E-03
   -.253E+02 0.459E+01 0.132E+02   0.238E+02 -.717E+01 -.159E+02   0.152E+01 0.257E+01 0.271E+01   0.127E-01 0.367E-02 -.561E-03
   0.866E+01 -.242E+02 0.132E+02   -.567E+01 0.242E+02 -.159E+02   -.298E+01 0.276E-01 0.271E+01   -.953E-02 0.917E-02 -.561E-03
   0.774E+02 0.127E+02 0.499E+01   -.782E+02 -.139E+02 -.529E+01   0.762E+00 0.124E+01 0.303E+00   -.156E-01 -.463E-02 0.369E-03
   -.277E+02 -.734E+02 0.499E+01   0.270E+02 0.746E+02 -.529E+01   0.692E+00 -.128E+01 0.303E+00   0.380E-02 0.158E-01 0.369E-03
   0.774E+02 -.127E+02 0.499E+01   -.782E+02 0.139E+02 -.529E+01   0.762E+00 -.124E+01 0.303E+00   -.156E-01 0.463E-02 0.369E-03
   -.497E+02 0.607E+02 0.499E+01   0.511E+02 -.607E+02 -.529E+01   -.145E+01 0.400E-01 0.303E+00   0.118E-01 -.112E-01 0.369E-03
   -.855E-06 0.154E-06 0.129E+01   0.671E-13 -.147E-12 -.945E+00   -.148E-17 -.361E-17 -.359E+00   -.448E-07 0.280E-07 0.294E-03
   -.228E+02 0.423E+02 -.218E+02   0.275E+02 -.432E+02 0.231E+02   -.470E+01 0.867E+00 -.122E+01   -.332E-02 -.228E-02 -.865E-03
   -.855E-06 -.154E-06 0.129E+01   0.235E-13 0.157E-12 -.945E+00   -.313E-17 0.151E-17 -.359E+00   -.448E-07 -.280E-07 0.294E-03
   0.214E-07 0.260E-06 -.377E+02   0.213E-13 -.125E-10 0.319E+02   0.395E-17 -.161E-17 0.579E+01   0.105E-06 0.173E-07 -.344E-02
   -.253E+02 0.409E+02 -.218E+02   0.237E+02 -.454E+02 0.231E+02   0.160E+01 0.450E+01 -.122E+01   0.363E-02 0.173E-02 -.865E-03
   -.277E+02 0.734E+02 0.499E+01   0.270E+02 -.746E+02 -.529E+01   0.692E+00 0.128E+01 0.303E+00   0.380E-02 -.158E-01 0.369E-03
   -.497E+02 -.607E+02 0.499E+01   0.511E+02 0.607E+02 -.529E+01   -.145E+01 -.400E-01 0.303E+00   0.118E-01 0.112E-01 0.369E-03
   0.214E-07 -.260E-06 -.377E+02   0.391E-13 0.125E-10 0.319E+02   -.423E-17 -.694E-17 0.579E+01   0.105E-06 -.173E-07 -.344E-02
   0.481E+02 0.141E+01 -.218E+02   -.512E+02 0.223E+01 0.231E+02   0.310E+01 -.363E+01 -.122E+01   -.315E-03 -.401E-02 -.865E-03
   0.481E+02 -.141E+01 -.218E+02   -.512E+02 -.223E+01 0.231E+02   0.310E+01 0.363E+01 -.122E+01   -.315E-03 0.401E-02 -.865E-03
   -.253E+02 -.409E+02 -.218E+02   0.237E+02 0.454E+02 0.231E+02   0.160E+01 -.450E+01 -.122E+01   0.363E-02 -.173E-02 -.865E-03
   -.228E+02 -.423E+02 -.218E+02   0.275E+02 0.432E+02 0.231E+02   -.470E+01 -.867E+00 -.122E+01   -.332E-02 0.228E-02 -.865E-03
 -----------------------------------------------------------------------------------------------
   0.451E-05 -.903E-14 -.423E+02   0.284E-13 -.284E-13 -.142E-13   -.888E-15 0.666E-15 0.423E+02   -.132E-05 0.578E-12 -.739E-02
 
 
 POSITION                                       TOTAL-FORCE (eV/Angst)
 -----------------------------------------------------------------------------------
      2.77651      4.66729      1.14059        -0.005747      0.025708     -0.000481
      6.88254      2.58633      1.14059         0.025138     -0.007877     -0.000481
      5.21998     -4.32974      5.37466        -0.013422     -0.011988     -0.003520
      2.77651     -4.66729      3.85019        -0.005747     -0.025708     -0.000481
      2.09794      2.35576      2.66505        -0.003671     -0.017618     -0.003520
      5.21998      4.32974      2.66505        -0.013422      0.011988     -0.003520
      3.02735      0.07088      1.14059        -0.019390     -0.017831     -0.000481
      5.36848      0.63899      2.66505         0.017092      0.005630     -0.003520
      6.88254     -2.58633      3.85019         0.025138      0.007877     -0.000481
      3.02735     -0.07088      3.85019        -0.019390      0.017831     -0.000481
      5.36848     -0.63899      5.37466         0.017092     -0.005630     -0.003520
      2.09794     -2.35576      5.37466        -0.003671      0.017618     -0.003520
      2.17270      0.63822      2.51877         0.004826     -0.000712     -0.002365
      3.69516      5.12378      2.51877        -0.003030     -0.003824     -0.002365
      2.17270     -0.63822      5.22838         0.004826      0.000712     -0.002365
      6.81854      1.56250      2.51877        -0.001796      0.004536     -0.002365
     -0.00000      0.00000      5.18083         0.000000     -0.000000     -0.017891
      2.34386      3.04898      4.25046        -0.000358      0.004112      0.008285
     -0.00000      0.00000      2.47122         0.000000     -0.000000     -0.017891
      4.22880     -2.44150      2.63378         0.000000     -0.000000      0.012134
      4.64517     -0.50535      1.54086        -0.003382      0.002365      0.008285
      3.69516     -5.12378      5.22838        -0.003030      0.003824     -0.002365
      6.81854     -1.56250      5.22838        -0.001796     -0.004536     -0.002365
      4.22880      2.44150      5.34338         0.000000     -0.000000      0.012134
      5.69737     -3.77016      1.54086         0.003740      0.001746      0.008285
      5.69737      3.77016      4.25046         0.003740     -0.001746      0.008285
      4.64517      0.50535      4.25046        -0.003382     -0.002365      0.008285
      2.34386     -3.04898      1.54086        -0.000358     -0.004112      0.008285
 -----------------------------------------------------------------------------------
    total drift:                                0.000003      0.000000     -0.011565


--------------------------------------------------------------------------------------------------------



  FREE ENERGIE OF THE ION-ELECTRON SYSTEM (eV)
  ---------------------------------------------------
  free  energy   TOTEN  =      -200.97520555 eV

  energy  without entropy=     -200.96672751  energy(sigma->0) =     -200.97308604
 
 d Force = 0.7449337E-05[ 0.565E-05, 0.925E-05]  d Energy =-0.6291762E-05 0.137E-04
 d Force =-0.3127226E-02[-0.314E-02,-0.311E-02]  d Ewald  =-0.3127227E-02 0.118E-08


--------------------------------------------------------------------------------------------------------


    POTLOK:  cpu time    0.0407: real time    0.0408


--------------------------------------------------------------------------------------------------------




--------------------------------------------------------------------------------------------------------


  
 reached required accuracy - stopping structural energy minimisation
     LOOP+:  cpu time   20.7821: real time   21.7295
    4ORBIT:  cpu time    0.0032: real time    2.9702

 total amount of memory used by VASP MPI-rank0    65766. kBytes
=======================================================================

   base      :      30000. kBytes
   nonlr-proj:       5951. kBytes
   fftplans  :       2789. kBytes
   grid      :       4365. kBytes
   one-center:         21. kBytes
   wavefun   :      22640. kBytes
 
  
  
 General timing and accounting informations for this job:
 ========================================================
  
                  Total CPU time used (sec):      599.629
                            User time (sec):      598.903
                          System time (sec):        0.726
                         Elapsed time (sec):      619.594
  
                   Maximum memory used (kb):       91152.
                   Average memory used (kb):           0.
  
                          Minor page faults:       145151
                          Major page faults:            9
                 Voluntary context switches:        10731
