<?xml version="1.0" encoding="ISO-8859-1"?>
<modeling>
 <generator>
  <i name="program" type="string">vasp </i>
  <i name="version" type="string">5.4.4.18Apr17-6-g9f103f2a35  </i>
  <i name="subversion" type="string">(build Nov 01 2019 12:17:22) complex            parallel </i>
  <i name="platform" type="string">LinuxIFC </i>
  <i name="date" type="string">2023 05 19 </i>
  <i name="time" type="string">18:21:55 </i>
 </generator>
 <incar>
  <i type="string" name="PREC">accurate</i>
  <i type="string" name="ALGO"> Fast</i>
  <i type="int" name="IBRION">     2</i>
  <i type="int" name="NSW">   100</i>
  <i type="int" name="ISIF">     2</i>
  <i type="string" name="LREAL"> Auto</i>
  <i type="int" name="ISMEAR">     2</i>
  <i name="SIGMA">      0.10000000</i>
  <i type="logical" name="LWAVE"> F  </i>
  <i type="logical" name="LCHARG"> F  </i>
  <v type="int" name="KPOINT_BSE">    -1     0     0     0</v>
 </incar>
 <structure name="primitive_cell" >
  <crystal>
   <varray name="basis" >
    <v>       4.22880139      -7.32449887       0.00000000 </v>
    <v>       4.22880139       7.32449887       0.00000000 </v>
    <v>       0.00000000       0.00000000       5.41920884 </v>
   </varray>
   <i name="volume">    335.70753430 </i>
   <varray name="rec_basis" >
    <v>       0.11823681      -0.06826406       0.00000000 </v>
    <v>       0.11823681       0.06826406       0.00000000 </v>
    <v>       0.00000000       0.00000000       0.18452878 </v>
   </varray>
  </crystal>
  <varray name="positions" >
   <v>       0.00847736      -0.35287377       0.21326215 </v>
   <v>       0.08729345      -0.21311138       0.46674092 </v>
   <v>      -0.08729345      -0.30040483      -0.03325908 </v>
   <v>      -0.06686359       0.41763405       0.28259872 </v>
   <v>      -0.00847736      -0.36135113      -0.28673785 </v>
   <v>      -0.08582195       0.32157747      -0.00812732 </v>
   <v>       0.08582195       0.40739942       0.49187268 </v>
   <v>      -0.32157747      -0.40739942      -0.00812732 </v>
   <v>       0.06686359       0.48449764      -0.21740128 </v>
   <v>       0.32157747      -0.08582195       0.49187268 </v>
   <v>       0.33333333      -0.33333333      -0.02422298 </v>
   <v>      -0.33333333       0.33333333       0.47577702 </v>
   <v>      -0.41763405      -0.48449764       0.28259872 </v>
   <v>       0.00000000       0.00000000       0.45692726 </v>
   <v>       0.00000000       0.00000000      -0.04307274 </v>
   <v>       0.40739942       0.08582195      -0.00812732 </v>
   <v>       0.48449764       0.06686359       0.28259872 </v>
   <v>       0.41763405      -0.06686359      -0.21740128 </v>
   <v>      -0.40739942      -0.32157747       0.49187268 </v>
   <v>       0.21311138       0.30040483       0.46674092 </v>
   <v>      -0.21311138       0.08729345      -0.03325908 </v>
   <v>       0.30040483       0.21311138      -0.03325908 </v>
   <v>      -0.30040483      -0.08729345       0.46674092 </v>
   <v>      -0.48449764      -0.41763405      -0.21740128 </v>
   <v>       0.35287377       0.36135113       0.21326215 </v>
   <v>      -0.36135113      -0.00847736       0.21326215 </v>
   <v>      -0.35287377       0.00847736      -0.28673785 </v>
   <v>       0.36135113       0.35287377      -0.28673785 </v>
  </varray>
 </structure>
 <varray name="primitive_index" >
  <v type="int" >        1 </v>
  <v type="int" >       14 </v>
  <v type="int" >       23 </v>
  <v type="int" >       25 </v>
  <v type="int" >        9 </v>
  <v type="int" >        3 </v>
  <v type="int" >        5 </v>
  <v type="int" >       11 </v>
  <v type="int" >       18 </v>
  <v type="int" >        6 </v>
  <v type="int" >       24 </v>
  <v type="int" >       20 </v>
  <v type="int" >       21 </v>
  <v type="int" >       19 </v>
  <v type="int" >       17 </v>
  <v type="int" >       12 </v>
  <v type="int" >       28 </v>
  <v type="int" >       26 </v>
  <v type="int" >        8 </v>
  <v type="int" >       13 </v>
  <v type="int" >       22 </v>
  <v type="int" >       15 </v>
  <v type="int" >       16 </v>
  <v type="int" >       27 </v>
  <v type="int" >        7 </v>
  <v type="int" >        2 </v>
  <v type="int" >        4 </v>
  <v type="int" >       10 </v>
 </varray>
 <kpoints>
  <generation param="Auto">
   <i name="subdivisionlength">     45.00000000 </i>
   <v type="int" name="divisions">       6        6        8 </v>
   <v name="usershift">      0.00000000       0.00000000       0.00000000 </v>
   <v name="genvec1">      0.16666667      -0.00000000       0.00000000 </v>
   <v name="genvec2">     -0.00000000       0.16666667       0.00000000 </v>
   <v name="genvec3">      0.00000000       0.00000000       0.12500000 </v>
   <v name="shift">      0.00000000       0.00000000       0.00000000 </v>
  </generation>
  <varray name="kpointlist" >
   <v>       0.00000000       0.00000000       0.00000000 </v>
   <v>       0.16666667       0.00000000       0.00000000 </v>
   <v>       0.33333333       0.00000000       0.00000000 </v>
   <v>       0.50000000       0.00000000       0.00000000 </v>
   <v>       0.16666667       0.16666667       0.00000000 </v>
   <v>       0.33333333       0.16666667       0.00000000 </v>
   <v>       0.33333333       0.33333333       0.00000000 </v>
   <v>       0.00000000       0.00000000       0.12500000 </v>
   <v>       0.16666667       0.00000000       0.12500000 </v>
   <v>       0.33333333       0.00000000       0.12500000 </v>
   <v>       0.50000000       0.00000000       0.12500000 </v>
   <v>       0.16666667       0.16666667       0.12500000 </v>
   <v>       0.33333333       0.16666667       0.12500000 </v>
   <v>       0.33333333       0.33333333       0.12500000 </v>
   <v>      -0.16666667       0.33333333       0.12500000 </v>
   <v>      -0.33333333       0.50000000       0.12500000 </v>
   <v>      -0.33333333      -0.33333333       0.12500000 </v>
   <v>       0.00000000       0.00000000       0.25000000 </v>
   <v>       0.16666667       0.00000000       0.25000000 </v>
   <v>       0.33333333       0.00000000       0.25000000 </v>
   <v>       0.50000000       0.00000000       0.25000000 </v>
   <v>       0.16666667       0.16666667       0.25000000 </v>
   <v>       0.33333333       0.16666667       0.25000000 </v>
   <v>       0.33333333       0.33333333       0.25000000 </v>
   <v>      -0.16666667       0.33333333       0.25000000 </v>
   <v>      -0.33333333       0.50000000       0.25000000 </v>
   <v>      -0.33333333      -0.33333333       0.25000000 </v>
   <v>       0.00000000       0.00000000       0.37500000 </v>
   <v>       0.16666667       0.00000000       0.37500000 </v>
   <v>       0.33333333       0.00000000       0.37500000 </v>
   <v>       0.50000000       0.00000000       0.37500000 </v>
   <v>       0.16666667       0.16666667       0.37500000 </v>
   <v>       0.33333333       0.16666667       0.37500000 </v>
   <v>       0.33333333       0.33333333       0.37500000 </v>
   <v>      -0.16666667       0.33333333       0.37500000 </v>
   <v>      -0.33333333       0.50000000       0.37500000 </v>
   <v>      -0.33333333      -0.33333333       0.37500000 </v>
   <v>       0.00000000       0.00000000       0.50000000 </v>
   <v>       0.16666667       0.00000000       0.50000000 </v>
   <v>       0.33333333       0.00000000       0.50000000 </v>
   <v>       0.50000000       0.00000000       0.50000000 </v>
   <v>       0.16666667       0.16666667       0.50000000 </v>
   <v>       0.33333333       0.16666667       0.50000000 </v>
   <v>       0.33333333       0.33333333       0.50000000 </v>
  </varray>
  <varray name="weights" >
   <v>       0.00347222 </v>
   <v>       0.02083333 </v>
   <v>       0.02083333 </v>
   <v>       0.01041667 </v>
   <v>       0.02083333 </v>
   <v>       0.04166667 </v>
   <v>       0.00694444 </v>
   <v>       0.00694444 </v>
   <v>       0.04166667 </v>
   <v>       0.04166667 </v>
   <v>       0.02083333 </v>
   <v>       0.02083333 </v>
   <v>       0.04166667 </v>
   <v>       0.00694444 </v>
   <v>       0.02083333 </v>
   <v>       0.04166667 </v>
   <v>       0.00694444 </v>
   <v>       0.00694444 </v>
   <v>       0.04166667 </v>
   <v>       0.04166667 </v>
   <v>       0.02083333 </v>
   <v>       0.02083333 </v>
   <v>       0.04166667 </v>
   <v>       0.00694444 </v>
   <v>       0.02083333 </v>
   <v>       0.04166667 </v>
   <v>       0.00694444 </v>
   <v>       0.00694444 </v>
   <v>       0.04166667 </v>
   <v>       0.04166667 </v>
   <v>       0.02083333 </v>
   <v>       0.02083333 </v>
   <v>       0.04166667 </v>
   <v>       0.00694444 </v>
   <v>       0.02083333 </v>
   <v>       0.04166667 </v>
   <v>       0.00694444 </v>
   <v>       0.00347222 </v>
   <v>       0.02083333 </v>
   <v>       0.02083333 </v>
   <v>       0.01041667 </v>
   <v>       0.02083333 </v>
   <v>       0.04166667 </v>
   <v>       0.00694444 </v>
  </varray>
 </kpoints>
 <parameters>
  <separator name="general" >
   <i type="string" name="SYSTEM">unknown system</i>
   <i type="logical" name="LCOMPAT"> F  </i>
  </separator>
  <separator name="electronic" >
   <i type="string" name="PREC">accura</i>
   <i name="ENMAX">    400.00000000</i>
   <i name="ENAUG">    627.11200000</i>
   <i name="EDIFF">      0.00010000</i>
   <i type="int" name="IALGO">    68</i>
   <i type="int" name="IWAVPR">    11</i>
   <i type="int" name="NBANDS">    80</i>
   <i name="NELECT">    124.00000000</i>
   <i type="int" name="TURBO">     0</i>
   <i type="int" name="IRESTART">     0</i>
   <i type="int" name="NREBOOT">     0</i>
   <i type="int" name="NMIN">     0</i>
   <i name="EREF">      0.00000000</i>
   <separator name="electronic smearing" >
    <i type="int" name="ISMEAR">     2</i>
    <i name="SIGMA">      0.10000000</i>
    <i name="KSPACING">      0.50000000</i>
    <i type="logical" name="KGAMMA"> T  </i>
   </separator>
   <separator name="electronic projectors" >
    <i type="logical" name="LREAL"> T  </i>
    <v name="ROPT">     -0.00025000     -0.00025000</v>
    <i type="int" name="LMAXPAW">  -100</i>
    <i type="int" name="LMAXMIX">     2</i>
    <i type="logical" name="NLSPLINE"> F  </i>
   </separator>
   <separator name="electronic startup" >
    <i type="int" name="ISTART">     0</i>
    <i type="int" name="ICHARG">     2</i>
    <i type="int" name="INIWAV">     1</i>
   </separator>
   <separator name="electronic spin" >
    <i type="int" name="ISPIN">     1</i>
    <i type="logical" name="LNONCOLLINEAR"> F  </i>
    <v name="MAGMOM">      1.00000000      1.00000000      1.00000000      1.00000000      1.00000000      1.00000000      1.00000000      1.00000000      1.00000000      1.00000000      1.00000000      1.00000000      1.00000000      1.00000000      1.00000000      1.00000000      1.00000000      1.00000000      1.00000000      1.00000000
      1.00000000      1.00000000      1.00000000      1.00000000      1.00000000      1.00000000      1.00000000      1.00000000</v>
    <i name="NUPDOWN">     -1.00000000</i>
    <i type="logical" name="LSORBIT"> F  </i>
    <v name="SAXIS">      0.00000000      0.00000000      1.00000000</v>
    <i type="logical" name="LSPIRAL"> F  </i>
    <v name="QSPIRAL">      0.00000000      0.00000000      0.00000000</v>
    <i type="logical" name="LZEROZ"> F  </i>
   </separator>
   <separator name="electronic exchange-correlation" >
    <i type="logical" name="LASPH"> F  </i>
    <i type="logical" name="LMETAGGA"> F  </i>
   </separator>
   <separator name="electronic convergence" >
    <i type="int" name="NELM">    60</i>
    <i type="int" name="NELMDL">    -5</i>
    <i type="int" name="NELMIN">     2</i>
    <i name="ENINI">    400.00000000</i>
    <separator name="electronic convergence detail" >
     <i type="logical" name="LDIAG"> T  </i>
     <i type="logical" name="LSUBROT"> F  </i>
     <i name="WEIMIN">      0.00100000</i>
     <i name="EBREAK">      0.00000031</i>
     <i name="DEPER">      0.30000000</i>
     <i type="int" name="NRMM">     4</i>
     <i name="TIME">      0.40000000</i>
    </separator>
   </separator>
   <separator name="electronic mixer" >
    <i name="AMIX">      0.40000000</i>
    <i name="BMIX">      1.00000000</i>
    <i name="AMIN">      0.10000000</i>
    <i name="AMIX_MAG">      1.60000000</i>
    <i name="BMIX_MAG">      1.00000000</i>
    <separator name="electronic mixer details" >
     <i type="int" name="IMIX">     4</i>
     <i type="logical" name="MIXFIRST"> F  </i>
     <i type="int" name="MAXMIX">   -45</i>
     <i name="WC">    100.00000000</i>
     <i type="int" name="INIMIX">     1</i>
     <i type="int" name="MIXPRE">     1</i>
     <i type="int" name="MREMOVE">     5</i>
    </separator>
   </separator>
   <separator name="electronic dipolcorrection" >
    <i type="logical" name="LDIPOL"> F  </i>
    <i type="logical" name="LMONO"> F  </i>
    <i type="int" name="IDIPOL">     0</i>
    <i name="EPSILON">      1.00000000</i>
    <v name="DIPOL">   -100.00000000   -100.00000000   -100.00000000</v>
    <i name="EFIELD">      0.00000000</i>
   </separator>
  </separator>
  <separator name="grids" >
   <i type="int" name="NGX">    56</i>
   <i type="int" name="NGY">    56</i>
   <i type="int" name="NGZ">    36</i>
   <i type="int" name="NGXF">   112</i>
   <i type="int" name="NGYF">   112</i>
   <i type="int" name="NGZF">    72</i>
   <i type="logical" name="ADDGRID"> F  </i>
  </separator>
  <separator name="ionic" >
   <i type="int" name="NSW">   100</i>
   <i type="int" name="IBRION">     2</i>
   <i type="int" name="MDALGO">     0</i>
   <i type="int" name="ISIF">     2</i>
   <i name="PSTRESS">      0.00000000</i>
   <i name="EDIFFG">      0.00100000</i>
   <i type="int" name="NFREE">     1</i>
   <i name="POTIM">      0.50000000</i>
   <i name="SMASS">     -3.00000000</i>
   <i name="SCALEE">      1.00000000</i>
  </separator>
  <separator name="ionic md" >
   <i name="TEBEG">      0.00010000</i>
   <i name="TEEND">      0.00010000</i>
   <i type="int" name="NBLOCK">     1</i>
   <i type="int" name="KBLOCK">   100</i>
   <i type="int" name="NPACO">   256</i>
   <i name="APACO">     16.00000000</i>
  </separator>
  <separator name="symmetry" >
   <i type="int" name="ISYM">     2</i>
   <i name="SYMPREC">      0.00001000</i>
  </separator>
  <separator name="dos" >
   <i type="int" name="LORBIT">     0</i>
   <v name="RWIGS">     -1.00000000     -1.00000000</v>
   <i type="int" name="NEDOS">   301</i>
   <i name="EMIN">     10.00000000</i>
   <i name="EMAX">    -10.00000000</i>
   <i name="EFERMI">      0.00000000</i>
  </separator>
  <separator name="writing" >
   <i type="int" name="NWRITE">     2</i>
   <i type="logical" name="LWAVE"> F  </i>
   <i type="logical" name="LDOWNSAMPLE"> F  </i>
   <i type="logical" name="LCHARG"> F  </i>
   <i type="logical" name="LPARD"> F  </i>
   <i type="logical" name="LVTOT"> F  </i>
   <i type="logical" name="LVHAR"> F  </i>
   <i type="logical" name="LELF"> F  </i>
   <i type="logical" name="LOPTICS"> F  </i>
   <v name="STM">      0.00000000      0.00000000      0.00000000      0.00000000      0.00000000      0.00000000      0.00000000</v>
  </separator>
  <separator name="performance" >
   <i type="int" name="NPAR">     4</i>
   <i type="int" name="NSIM">     4</i>
   <i type="int" name="NBLK">    -1</i>
   <i type="logical" name="LPLANE"> T  </i>
   <i type="logical" name="LSCALAPACK"> F  </i>
   <i type="logical" name="LSCAAWARE"> F  </i>
   <i type="logical" name="LSCALU"> F  </i>
   <i type="logical" name="LASYNC"> F  </i>
   <i type="logical" name="LORBITALREAL"> F  </i>
  </separator>
  <separator name="miscellaneous" >
   <i type="int" name="IDIOT">     3</i>
   <i type="int" name="ISPECIAL">     0</i>
   <i type="logical" name="LMUSIC"> F  </i>
   <v name="POMASS">     14.00100000     28.08500000</v>
   <v name="DARWINR">      0.00000000      0.00000000</v>
   <v name="DARWINV">      1.00000000      1.00000000</v>
   <i type="logical" name="LCORR"> T  </i>
  </separator>
  <i type="logical" name="GGA_COMPAT"> T  </i>
  <i type="logical" name="LBERRY"> F  </i>
  <i type="int" name="ICORELEVEL">     0</i>
  <i type="logical" name="LDAU"> F  </i>
  <i type="int" name="I_CONSTRAINED_M">     0</i>
  <separator name="electronic exchange-correlation" >
   <i type="string" name="GGA">--</i>
   <i type="int" name="VOSKOWN">     0</i>
   <i type="logical" name="LHFCALC"> F  </i>
   <i type="string" name="PRECFOCK"></i>
   <i type="logical" name="LSYMGRAD"> F  </i>
   <i type="logical" name="LHFONE"> F  </i>
   <i type="logical" name="LRHFCALC"> F  </i>
   <i type="logical" name="LTHOMAS"> F  </i>
   <i type="logical" name="LMODELHF"> F  </i>
   <i name="ENCUT4O">     -1.00000000</i>
   <i type="int" name="EXXOEP">     0</i>
   <i type="int" name="FOURORBIT">     0</i>
   <i name="AEXX">      0.00000000</i>
   <i name="HFALPHA">      0.00000000</i>
   <i name="MCALPHA">      0.00000000</i>
   <i name="ALDAX">      1.00000000</i>
   <i name="AGGAX">      1.00000000</i>
   <i name="ALDAC">      1.00000000</i>
   <i name="AGGAC">      1.00000000</i>
   <i type="int" name="NKREDX">     1</i>
   <i type="int" name="NKREDY">     1</i>
   <i type="int" name="NKREDZ">     1</i>
   <i type="logical" name="SHIFTRED"> F  </i>
   <i type="logical" name="ODDONLY"> F  </i>
   <i type="logical" name="EVENONLY"> F  </i>
   <i type="int" name="LMAXFOCK">     0</i>
   <i type="int" name="NMAXFOCKAE">     0</i>
   <i type="logical" name="LFOCKAEDFT"> F  </i>
   <i name="HFSCREEN">      0.00000000</i>
   <i name="HFSCREENC">      0.00000000</i>
   <i type="int" name="NBANDSGWLOW">     0</i>
  </separator>
  <separator name="vdW DFT" >
   <i type="logical" name="LUSE_VDW"> F  </i>
   <i name="Zab_VDW">     -0.84910000</i>
   <i name="PARAM1">      0.12340000</i>
   <i name="PARAM2">      1.00000000</i>
   <i name="PARAM3">      0.00000000</i>
  </separator>
  <separator name="model GW" >
   <i type="int" name="MODEL_GW">     0</i>
   <i name="MODEL_EPS0">      7.19373288</i>
   <i name="MODEL_ALPHA">      1.00000000</i>
  </separator>
  <separator name="linear response parameters" >
   <i type="logical" name="LEPSILON"> F  </i>
   <i type="logical" name="LRPA"> F  </i>
   <i type="logical" name="LNABLA"> F  </i>
   <i type="logical" name="LVEL"> F  </i>
   <i type="int" name="KINTER">     0</i>
   <i name="CSHIFT">      0.10000000</i>
   <i name="OMEGAMAX">     -1.00000000</i>
   <i name="DEG_THRESHOLD">      0.00200000</i>
   <i name="RTIME">     -0.10000000</i>
   <i name="WPLASMAI">      0.00000000</i>
   <v name="DFIELD">      0.00000000      0.00000000      0.00000000</v>
   <v name="WPLASMA">      0.00000000      0.00000000      0.00000000      0.00000000      0.00000000      0.00000000      0.00000000      0.00000000      0.00000000</v>
  </separator>
  <separator name="orbital magnetization" >
   <i type="logical" name="NUCIND"> F  </i>
   <v name="MAGPOS">      0.00000000      0.00000000      0.00000000</v>
   <i type="logical" name="LNICSALL"> T  </i>
   <i type="logical" name="ORBITALMAG"> F  </i>
   <i type="logical" name="LMAGBLOCH"> F  </i>
   <i type="logical" name="LCHIMAG"> F  </i>
   <i type="logical" name="LGAUGE"> T  </i>
   <i type="int" name="MAGATOM">     0</i>
   <v name="MAGDIPOL">      0.00000000      0.00000000      0.00000000</v>
   <v name="AVECCONST">      0.00000000      0.00000000      0.00000000</v>
  </separator>
  <separator name="response functions" >
   <i type="logical" name="LADDER"> F  </i>
   <i type="logical" name="LRPAFORCE"> F  </i>
   <i type="logical" name="LFXC"> F  </i>
   <i type="logical" name="LHARTREE"> T  </i>
   <i type="int" name="IBSE">     0</i>
   <v type="int" name="KPOINT">    -1     0     0     0</v>
   <i type="logical" name="LTCTE"> F  </i>
   <i type="logical" name="LTETE"> F  </i>
   <i type="logical" name="LTRIPLET"> F  </i>
   <i type="logical" name="LFXCEPS"> F  </i>
   <i type="logical" name="LFXHEG"> F  </i>
   <i type="int" name="NATURALO">     2</i>
   <i type="logical" name="L2ORDER"> F  </i>
   <i type="logical" name="LMP2LT"> F  </i>
   <i type="logical" name="LUSEW"> F  </i>
   <i name="ENCUTGW">     -2.00000000</i>
   <i name="ENCUTGWSOFT">     -2.00000000</i>
   <i name="ENCUTLF">     -1.00000000</i>
   <i type="int" name="LMAXMP2">    -1</i>
   <i name="SCISSOR">      0.00000000</i>
   <i type="int" name="NOMEGA">     0</i>
   <i type="int" name="NOMEGAR">     0</i>
   <i type="int" name="NBANDSGW">    -1</i>
   <i type="int" name="NBANDSO">    -1</i>
   <i type="int" name="NBANDSV">    -1</i>
   <i type="int" name="NELM">     1</i>
   <i type="int" name="NELMHF">     1</i>
   <i type="int" name="DIM">     3</i>
   <i type="int" name="ANTIRES">     0</i>
   <i name="OMEGAMAX">    -30.00000000</i>
   <i name="OMEGAMIN">    -30.00000000</i>
   <i name="OMEGATL">   -200.00000000</i>
   <i type="int" name="OMEGAGRID">   140</i>
   <i name="CSHIFT">     -0.10000000</i>
   <i type="logical" name="SELFENERGY"> F  </i>
   <i type="logical" name="LSPECTRAL"> F  </i>
   <i type="logical" name="LSPECTRALGW"> F  </i>
   <i type="logical" name="LSINGLES"> F  </i>
   <i type="logical" name="LFERMIGW"> F  </i>
   <i type="logical" name="ODDONLYGW"> F  </i>
   <i type="logical" name="EVENONLYGW"> F  </i>
   <i type="int" name="NKREDLFX">     1</i>
   <i type="int" name="NKREDLFY">     1</i>
   <i type="int" name="NKREDLFZ">     1</i>
   <i type="int" name="MAXMEM">  2800</i>
   <i type="int" name="TELESCOPE">     0</i>
   <i type="int" name="TAUPAR">     1</i>
   <i type="int" name="OMEGAPAR">    -1</i>
   <i name="LAMBDA">      1.00000000</i>
  </separator>
  <separator name="External order field" >
   <i name="OFIELD_KAPPA">      0.00000000</i>
   <v name="OFIELD_K">      0.00000000      0.00000000      0.00000000</v>
   <i name="OFIELD_Q6_NEAR">      0.00000000</i>
   <i name="OFIELD_Q6_FAR">      0.00000000</i>
   <i name="OFIELD_A">      0.00000000</i>
  </separator>
 </parameters>
 <atominfo>
  <atoms>      28 </atoms>
  <types>       2 </types>
  <array name="atoms" >
   <dimension dim="1">ion</dimension>
   <field type="string">element</field>
   <field type="int">atomtype</field>
   <set>
    <rc><c>N </c><c>   1</c></rc>
    <rc><c>N </c><c>   1</c></rc>
    <rc><c>N </c><c>   1</c></rc>
    <rc><c>N </c><c>   1</c></rc>
    <rc><c>N </c><c>   1</c></rc>
    <rc><c>N </c><c>   1</c></rc>
    <rc><c>N </c><c>   1</c></rc>
    <rc><c>N </c><c>   1</c></rc>
    <rc><c>N </c><c>   1</c></rc>
    <rc><c>N </c><c>   1</c></rc>
    <rc><c>N </c><c>   1</c></rc>
    <rc><c>N </c><c>   1</c></rc>
    <rc><c>Si</c><c>   2</c></rc>
    <rc><c>Si</c><c>   2</c></rc>
    <rc><c>Si</c><c>   2</c></rc>
    <rc><c>Si</c><c>   2</c></rc>
    <rc><c>Si</c><c>   2</c></rc>
    <rc><c>Si</c><c>   2</c></rc>
    <rc><c>Si</c><c>   2</c></rc>
    <rc><c>Si</c><c>   2</c></rc>
    <rc><c>Si</c><c>   2</c></rc>
    <rc><c>Si</c><c>   2</c></rc>
    <rc><c>Si</c><c>   2</c></rc>
    <rc><c>Si</c><c>   2</c></rc>
    <rc><c>Si</c><c>   2</c></rc>
    <rc><c>Si</c><c>   2</c></rc>
    <rc><c>Si</c><c>   2</c></rc>
    <rc><c>Si</c><c>   2</c></rc>
   </set>
  </array>
  <array name="atomtypes" >
   <dimension dim="1">type</dimension>
   <field type="int">atomspertype</field>
   <field type="string">element</field>
   <field>mass</field>
   <field>valence</field>
   <field type="string">pseudopotential</field>
   <set>
    <rc><c>  12</c><c>N </c><c>     14.00100000</c><c>      5.00000000</c><c>  PAW_PBE N 08Apr2002                   </c></rc>
    <rc><c>  16</c><c>Si</c><c>     28.08500000</c><c>      4.00000000</c><c>  PAW_PBE Si 05Jan2001                  </c></rc>
   </set>
  </array>
 </atominfo>
 <structure name="initialpos" >
  <crystal>
   <varray name="basis" >
    <v>       4.22880139      -7.32449887       0.00000000 </v>
    <v>       4.22880139       7.32449887       0.00000000 </v>
    <v>       0.00000000       0.00000000       5.41920884 </v>
   </varray>
   <i name="volume">    335.70753430 </i>
   <varray name="rec_basis" >
    <v>       0.11823681      -0.06826406       0.00000000 </v>
    <v>       0.11823681       0.06826406       0.00000000 </v>
    <v>       0.00000000       0.00000000       0.18452878 </v>
   </varray>
  </crystal>
  <varray name="positions" >
   <v>       0.00847736       0.64712623       0.21326215 </v>
   <v>       0.63864887       0.99152264       0.21326215 </v>
   <v>       0.91417805       0.32157747       0.99187268 </v>
   <v>       0.64712623       0.00847736       0.71326215 </v>
   <v>       0.08582195       0.40739942       0.49187268 </v>
   <v>       0.32157747       0.91417805       0.49187268 </v>
   <v>       0.35287377       0.36135113       0.21326215 </v>
   <v>       0.59260058       0.67842253       0.49187268 </v>
   <v>       0.99152264       0.63864887       0.71326215 </v>
   <v>       0.36135113       0.35287377       0.71326215 </v>
   <v>       0.67842253       0.59260058       0.99187268 </v>
   <v>       0.40739942       0.08582195       0.99187268 </v>
   <v>       0.21311138       0.30040483       0.46674092 </v>
   <v>       0.08729345       0.78688862       0.46674092 </v>
   <v>       0.30040483       0.21311138       0.96674092 </v>
   <v>       0.69959517       0.91270655       0.46674092 </v>
   <v>       0.00000000       0.00000000       0.95692726 </v>
   <v>       0.06686359       0.48449764       0.78259872 </v>
   <v>       0.00000000       0.00000000       0.45692726 </v>
   <v>       0.66666667       0.33333333       0.47577702 </v>
   <v>       0.58236595       0.51550236       0.28259872 </v>
   <v>       0.78688862       0.08729345       0.96674092 </v>
   <v>       0.91270655       0.69959517       0.96674092 </v>
   <v>       0.33333333       0.66666667       0.97577702 </v>
   <v>       0.93313641       0.41763405       0.28259872 </v>
   <v>       0.41763405       0.93313641       0.78259872 </v>
   <v>       0.51550236       0.58236595       0.78259872 </v>
   <v>       0.48449764       0.06686359       0.28259872 </v>
  </varray>
 </structure>
 <calculation>
  <scstep>
   <time name="dav">   50.30   51.02</time>
   <time name="total">   51.45   52.17</time>
   <energy>
    <i name="alphaZ">    145.25177883 </i>
    <i name="ewald">  -4283.86916541 </i>
    <i name="hartreedc">  -1057.03391524 </i>
    <i name="XCdc">    101.17894538 </i>
    <i name="pawpsdc">   3869.17357318 </i>
    <i name="pawaedc">  -3601.97287308 </i>
    <i name="eentropy">     -0.00198800 </i>
    <i name="bandstr">    481.16829576 </i>
    <i name="atom">   4822.75196862 </i>
    <i name="e_fr_energy">    476.64662005 </i>
    <i name="e_wo_entrp">    476.64860805 </i>
    <i name="e_0_energy">    476.64711705 </i>
   </energy>
  </scstep>
  <scstep>
   <time name="dav">   20.65   21.01</time>
   <time name="total">   20.65   21.01</time>
   <energy>
    <i name="e_fr_energy">   -175.24181192 </i>
    <i name="e_wo_entrp">   -175.24395580 </i>
    <i name="e_0_energy">   -175.24234789 </i>
   </energy>
  </scstep>
  <scstep>
   <time name="dav">   14.91   14.91</time>
   <time name="total">   14.92   14.91</time>
   <energy>
    <i name="e_fr_energy">   -225.52972405 </i>
    <i name="e_wo_entrp">   -225.50620123 </i>
    <i name="e_0_energy">   -225.52384335 </i>
   </energy>
  </scstep>
  <scstep>
   <time name="dav">   28.08   28.07</time>
   <time name="total">   28.08   28.08</time>
   <energy>
    <i name="e_fr_energy">   -226.63264336 </i>
    <i name="e_wo_entrp">   -226.60615553 </i>
    <i name="e_0_energy">   -226.62602140 </i>
   </energy>
  </scstep>
  <scstep>
   <time name="dav">   18.59   18.58</time>
   <time name="total">   18.92   18.92</time>
   <energy>
    <i name="e_fr_energy">   -226.65892534 </i>
    <i name="e_wo_entrp">   -226.63241942 </i>
    <i name="e_0_energy">   -226.65229886 </i>
   </energy>
  </scstep>
  <scstep>
   <time name="diag">    0.91    0.91</time>
   <time name="diis">    4.59    4.59</time>
   <time name="orth">    0.09    0.09</time>
   <time name="total">    6.01    6.01</time>
   <energy>
    <i name="e_fr_energy">   -201.72587917 </i>
    <i name="e_wo_entrp">   -201.72234905 </i>
    <i name="e_0_energy">   -201.72499664 </i>
   </energy>
  </scstep>
  <scstep>
   <time name="diag">    0.91    0.91</time>
   <time name="diis">    4.68    4.68</time>
   <time name="orth">    0.09    0.09</time>
   <time name="total">    6.06    6.06</time>
   <energy>
    <i name="e_fr_energy">   -201.16228814 </i>
    <i name="e_wo_entrp">   -201.15415212 </i>
    <i name="e_0_energy">   -201.16025414 </i>
   </energy>
  </scstep>
  <scstep>
   <time name="diag">    0.91    0.91</time>
   <time name="diis">    5.45    5.89</time>
   <time name="orth">    0.09    0.09</time>
   <time name="total">    6.80    7.24</time>
   <energy>
    <i name="e_fr_energy">   -200.97705686 </i>
    <i name="e_wo_entrp">   -200.97409266 </i>
    <i name="e_0_energy">   -200.97631581 </i>
   </energy>
  </scstep>
  <scstep>
   <time name="diag">    0.90    0.91</time>
   <time name="diis">    6.33    6.34</time>
   <time name="orth">    4.50    4.49</time>
   <time name="total">   12.34   12.35</time>
   <energy>
    <i name="e_fr_energy">   -200.95095291 </i>
    <i name="e_wo_entrp">   -200.94210705 </i>
    <i name="e_0_energy">   -200.94874145 </i>
   </energy>
  </scstep>
  <scstep>
   <time name="diag">    0.90    0.90</time>
   <time name="diis">    4.87    4.87</time>
   <time name="orth">    0.09    0.09</time>
   <time name="total">    6.22    6.22</time>
   <energy>
    <i name="e_fr_energy">   -200.94488255 </i>
    <i name="e_wo_entrp">   -200.93798081 </i>
    <i name="e_0_energy">   -200.94315711 </i>
   </energy>
  </scstep>
  <scstep>
   <time name="diag">    1.51    1.51</time>
   <time name="diis">    6.24    6.24</time>
   <time name="orth">    0.09    0.09</time>
   <time name="total">    9.35    9.34</time>
   <energy>
    <i name="e_fr_energy">   -200.94308540 </i>
    <i name="e_wo_entrp">   -200.93467218 </i>
    <i name="e_0_energy">   -200.94098210 </i>
   </energy>
  </scstep>
  <scstep>
   <time name="diag">    0.90    0.90</time>
   <time name="diis">    5.18    5.18</time>
   <time name="orth">    0.09    0.09</time>
   <time name="total">    6.52    6.52</time>
   <energy>
    <i name="e_fr_energy">   -200.94288295 </i>
    <i name="e_wo_entrp">   -200.93501402 </i>
    <i name="e_0_energy">   -200.94091572 </i>
   </energy>
  </scstep>
  <scstep>
   <time name="diag">    0.91    0.91</time>
   <time name="diis">    4.00    4.00</time>
   <time name="orth">    0.09    0.09</time>
   <time name="total">    5.37    5.36</time>
   <energy>
    <i name="e_fr_energy">   -200.94272069 </i>
    <i name="e_wo_entrp">   -200.93447057 </i>
    <i name="e_0_energy">   -200.94065816 </i>
   </energy>
  </scstep>
  <scstep>
   <time name="diag">    0.90    0.90</time>
   <time name="diis">    3.28    3.28</time>
   <time name="orth">    0.09    0.09</time>
   <time name="total">    4.31    4.31</time>
   <energy>
    <i name="alphaZ">    145.25177883 </i>
    <i name="ewald">  -4283.86916541 </i>
    <i name="hartreedc">  -1280.21288871 </i>
    <i name="XCdc">    119.12890964 </i>
    <i name="pawpsdc">  19029.76868464 </i>
    <i name="pawaedc"> -18767.76367494 </i>
    <i name="eentropy">     -0.00822516 </i>
    <i name="bandstr">     14.00990730 </i>
    <i name="atom">   4822.75196862 </i>
    <i name="e_fr_energy">   -200.94270517 </i>
    <i name="e_wo_entrp">   -200.93448001 </i>
    <i name="e_0_energy">   -200.94064888 </i>
   </energy>
  </scstep>
  <structure>
   <crystal>
    <varray name="basis" >
     <v>       4.22880139      -7.32449887       0.00000000 </v>
     <v>       4.22880139       7.32449887       0.00000000 </v>
     <v>       0.00000000       0.00000000       5.41920884 </v>
    </varray>
    <i name="volume">    335.70753430 </i>
    <varray name="rec_basis" >
     <v>       0.11823681      -0.06826406       0.00000000 </v>
     <v>       0.11823681       0.06826406       0.00000000 </v>
     <v>       0.00000000       0.00000000       0.18452878 </v>
    </varray>
   </crystal>
   <varray name="positions" >
    <v>       0.00847736       0.64712623       0.21326215 </v>
    <v>       0.63864887       0.99152264       0.21326215 </v>
    <v>       0.91417805       0.32157747       0.99187268 </v>
    <v>       0.64712623       0.00847736       0.71326215 </v>
    <v>       0.08582195       0.40739942       0.49187268 </v>
    <v>       0.32157747       0.91417805       0.49187268 </v>
    <v>       0.35287377       0.36135113       0.21326215 </v>
    <v>       0.59260058       0.67842253       0.49187268 </v>
    <v>       0.99152264       0.63864887       0.71326215 </v>
    <v>       0.36135113       0.35287377       0.71326215 </v>
    <v>       0.67842253       0.59260058       0.99187268 </v>
    <v>       0.40739942       0.08582195       0.99187268 </v>
    <v>       0.21311138       0.30040483       0.46674092 </v>
    <v>       0.08729345       0.78688862       0.46674092 </v>
    <v>       0.30040483       0.21311138       0.96674092 </v>
    <v>       0.69959517       0.91270655       0.46674092 </v>
    <v>       0.00000000       0.00000000       0.95692726 </v>
    <v>       0.06686359       0.48449764       0.78259872 </v>
    <v>       0.00000000       0.00000000       0.45692726 </v>
    <v>       0.66666667       0.33333333       0.47577702 </v>
    <v>       0.58236595       0.51550236       0.28259872 </v>
    <v>       0.78688862       0.08729345       0.96674092 </v>
    <v>       0.91270655       0.69959517       0.96674092 </v>
    <v>       0.33333333       0.66666667       0.97577702 </v>
    <v>       0.93313641       0.41763405       0.28259872 </v>
    <v>       0.41763405       0.93313641       0.78259872 </v>
    <v>       0.51550236       0.58236595       0.78259872 </v>
    <v>       0.48449764       0.06686359       0.28259872 </v>
   </varray>
  </structure>
  <varray name="forces" >
   <v>       0.08237205      -0.03302871      -0.11090754 </v>
   <v>      -0.06978972      -0.05482193      -0.11090754 </v>
   <v>      -0.02638510       0.06578060      -0.04389870 </v>
   <v>       0.08237205       0.03302871      -0.11090754 </v>
   <v>       0.07016022       0.01004014      -0.04389870 </v>
   <v>      -0.02638510      -0.06578060      -0.04389870 </v>
   <v>      -0.01258232       0.08785064      -0.11090754 </v>
   <v>      -0.04377512       0.05574046      -0.04389870 </v>
   <v>      -0.06978972       0.05482193      -0.11090754 </v>
   <v>      -0.01258232      -0.08785064      -0.11090754 </v>
   <v>      -0.04377512      -0.05574046      -0.04389870 </v>
   <v>       0.07016022      -0.01004014      -0.04389870 </v>
   <v>      -0.12829810      -0.07054813      -0.00684104 </v>
   <v>       0.00305258       0.14638348      -0.00684104 </v>
   <v>      -0.12829810       0.07054813      -0.00684104 </v>
   <v>       0.12524553      -0.07583535      -0.00684104 </v>
   <v>      -0.00000000       0.00000000      -0.00283741 </v>
   <v>       0.05258755      -0.12430425       0.07290799 </v>
   <v>      -0.00000000       0.00000000      -0.00283741 </v>
   <v>      -0.00000000       0.00000000       0.26905530 </v>
   <v>       0.08135686      -0.10769428       0.07290799 </v>
   <v>       0.00305258      -0.14638348      -0.00684104 </v>
   <v>       0.12524553       0.07583535      -0.00684104 </v>
   <v>      -0.00000000       0.00000000       0.26905530 </v>
   <v>      -0.13394441      -0.01660997       0.07290799 </v>
   <v>      -0.13394441       0.01660997       0.07290799 </v>
   <v>       0.08135686       0.10769428       0.07290799 </v>
   <v>       0.05258755       0.12430425       0.07290799 </v>
  </varray>
  <varray name="stress" >
   <v>     117.61736011       0.00000000      -0.00000000 </v>
   <v>       0.00000000     117.61736011      -0.00000000 </v>
   <v>      -0.00000000      -0.00000000      78.44012721 </v>
  </varray>
  <energy>
   <i name="e_fr_energy">   -200.94270517 </i>
   <i name="e_wo_entrp">   -200.94064888 </i>
   <i name="e_0_energy">     -0.00822516 </i>
  </energy>
  <time name="totalsc">  206.75  208.38</time>
 </calculation>
 <calculation>
  <scstep>
   <time name="dav">   26.09   26.07</time>
   <time name="total">   27.35   27.33</time>
   <energy>
    <i name="alphaZ">    145.25177883 </i>
    <i name="ewald">  -4291.59459378 </i>
    <i name="hartreedc">  -1275.17737644 </i>
    <i name="XCdc">    118.99801263 </i>
    <i name="pawpsdc">  19031.01607149 </i>
    <i name="pawaedc"> -18769.01121180 </i>
    <i name="eentropy">     -0.00726186 </i>
    <i name="bandstr">     16.81621245 </i>
    <i name="atom">   4822.75196862 </i>
    <i name="e_fr_energy">   -200.95639985 </i>
    <i name="e_wo_entrp">   -200.94913799 </i>
    <i name="e_0_energy">   -200.95458439 </i>
   </energy>
  </scstep>
  <scstep>
   <time name="diag">    0.90    0.90</time>
   <time name="diis">    5.23    5.23</time>
   <time name="orth">    0.09    0.09</time>
   <time name="total">    6.70    6.70</time>
   <energy>
    <i name="e_fr_energy">   -200.95938113 </i>
    <i name="e_wo_entrp">   -200.95093637 </i>
    <i name="e_0_energy">   -200.95726994 </i>
   </energy>
  </scstep>
  <scstep>
   <time name="diag">    0.90    0.90</time>
   <time name="diis">    6.90    6.90</time>
   <time name="orth">    0.09    0.09</time>
   <time name="total">    8.24    8.25</time>
   <energy>
    <i name="e_fr_energy">   -200.95856312 </i>
    <i name="e_wo_entrp">   -200.95081776 </i>
    <i name="e_0_energy">   -200.95662678 </i>
   </energy>
  </scstep>
  <scstep>
   <time name="diag">    0.90    0.90</time>
   <time name="diis">    4.36    4.36</time>
   <time name="orth">    0.09    0.09</time>
   <time name="total">    5.72    5.71</time>
   <energy>
    <i name="e_fr_energy">   -200.95819565 </i>
    <i name="e_wo_entrp">   -200.95019294 </i>
    <i name="e_0_energy">   -200.95619497 </i>
   </energy>
  </scstep>
  <scstep>
   <time name="diag">    0.90    0.90</time>
   <time name="diis">    3.25    3.25</time>
   <time name="orth">    0.09    0.09</time>
   <time name="total">    4.28    4.28</time>
   <energy>
    <i name="alphaZ">    145.25177883 </i>
    <i name="ewald">  -4291.59459378 </i>
    <i name="hartreedc">  -1274.32016630 </i>
    <i name="XCdc">    118.93282119 </i>
    <i name="pawpsdc">  18923.35494831 </i>
    <i name="pawaedc"> -18661.31540080 </i>
    <i name="eentropy">     -0.00791547 </i>
    <i name="bandstr">     15.98842784 </i>
    <i name="atom">   4822.75196862 </i>
    <i name="e_fr_energy">   -200.95813155 </i>
    <i name="e_wo_entrp">   -200.95021608 </i>
    <i name="e_0_energy">   -200.95615268 </i>
   </energy>
  </scstep>
  <structure>
   <crystal>
    <varray name="basis" >
     <v>       4.22880139      -7.32449887       0.00000000 </v>
     <v>       4.22880139       7.32449887       0.00000000 </v>
     <v>       0.00000000       0.00000000       5.41920884 </v>
    </varray>
    <i name="volume">    335.70753430 </i>
    <varray name="rec_basis" >
     <v>       0.11823681      -0.06826406       0.00000000 </v>
     <v>       0.11823681       0.06826406       0.00000000 </v>
     <v>       0.00000000       0.00000000       0.18452878 </v>
    </varray>
   </crystal>
   <varray name="positions" >
    <v>       0.00905599       0.64748732       0.21227483 </v>
    <v>       0.63843133       0.99094401       0.21227483 </v>
    <v>       0.91381092       0.32164360       0.99148188 </v>
    <v>       0.64748732       0.00905599       0.71227483 </v>
    <v>       0.08618908       0.40783268       0.49148188 </v>
    <v>       0.32164360       0.91381092       0.49148188 </v>
    <v>       0.35251268       0.36156867       0.21227483 </v>
    <v>       0.59216732       0.67835640       0.49148188 </v>
    <v>       0.99094401       0.63843133       0.71227483 </v>
    <v>       0.36156867       0.35251268       0.71227483 </v>
    <v>       0.67835640       0.59216732       0.99148188 </v>
    <v>       0.40783268       0.08618908       0.99148188 </v>
    <v>       0.21261189       0.29944068       0.46668002 </v>
    <v>       0.08682878       0.78738811       0.46668002 </v>
    <v>       0.29944068       0.21261189       0.96668002 </v>
    <v>       0.70055932       0.91317122       0.46668002 </v>
    <v>      -0.00000000      -0.00000000       0.95690200 </v>
    <v>       0.06757292       0.48438823       0.78324776 </v>
    <v>      -0.00000000      -0.00000000       0.45690200 </v>
    <v>       0.66666667       0.33333333       0.47817219 </v>
    <v>       0.58318468       0.51561177       0.28324776 </v>
    <v>       0.78738811       0.08682878       0.96668002 </v>
    <v>       0.91317122       0.70055932       0.96668002 </v>
    <v>       0.33333333       0.66666667       0.97817219 </v>
    <v>       0.93242708       0.41681532       0.28324776 </v>
    <v>       0.41681532       0.93242708       0.78324776 </v>
    <v>       0.51561177       0.58318468       0.78324776 </v>
    <v>       0.48438823       0.06757292       0.28324776 </v>
   </varray>
  </structure>
  <varray name="forces" >
   <v>       0.01329931      -0.06466072       0.00561438 </v>
   <v>      -0.06264748       0.02081281       0.00561438 </v>
   <v>      -0.08174394       0.00899954       0.02390203 </v>
   <v>       0.01329931       0.06466072       0.00561438 </v>
   <v>       0.04866580      -0.06629255       0.02390203 </v>
   <v>      -0.08174394      -0.00899954       0.02390203 </v>
   <v>       0.04934817       0.04384790       0.00561438 </v>
   <v>       0.03307814       0.07529210       0.02390203 </v>
   <v>      -0.06264748      -0.02081281       0.00561438 </v>
   <v>       0.04934817      -0.04384790       0.00561438 </v>
   <v>       0.03307814      -0.07529210       0.02390203 </v>
   <v>       0.04866580       0.06629255       0.02390203 </v>
   <v>       0.05889913       0.00953773      -0.07883018 </v>
   <v>      -0.02118965      -0.05577701      -0.07883018 </v>
   <v>       0.05889913      -0.00953773      -0.07883018 </v>
   <v>      -0.03770948       0.04623928      -0.07883018 </v>
   <v>       0.00000000       0.00000000      -0.01015919 </v>
   <v>       0.06118845       0.05608861      -0.02326702 </v>
   <v>       0.00000000       0.00000000      -0.01015919 </v>
   <v>       0.00000000       0.00000000       0.22790156 </v>
   <v>      -0.07916838      -0.02494645      -0.02326702 </v>
   <v>      -0.02118965       0.05577701      -0.07883018 </v>
   <v>      -0.03770948      -0.04623928      -0.07883018 </v>
   <v>       0.00000000       0.00000000       0.22790156 </v>
   <v>       0.01797993       0.08103506      -0.02326702 </v>
   <v>       0.01797993      -0.08103506      -0.02326702 </v>
   <v>      -0.07916838       0.02494645      -0.02326702 </v>
   <v>       0.06118845      -0.05608861      -0.02326702 </v>
  </varray>
  <varray name="stress" >
   <v>     112.89823819       0.00000000       0.00000000 </v>
   <v>       0.00000000     112.89823819      -0.00000000 </v>
   <v>       0.00000000       0.00000000      73.81699677 </v>
  </varray>
  <energy>
   <i name="e_fr_energy">   -200.95813155 </i>
   <i name="e_wo_entrp">   -200.95615268 </i>
   <i name="e_0_energy">     -0.00791547 </i>
  </energy>
  <time name="totalsc">   67.09   67.81</time>
 </calculation>
 <calculation>
  <scstep>
   <time name="dav">   12.45   16.80</time>
   <time name="total">   12.81   17.16</time>
   <energy>
    <i name="alphaZ">    145.25177883 </i>
    <i name="ewald">  -4292.65386998 </i>
    <i name="hartreedc">  -1273.64680758 </i>
    <i name="XCdc">    118.91489536 </i>
    <i name="pawpsdc">  18911.30228054 </i>
    <i name="pawaedc"> -18649.26112585 </i>
    <i name="eentropy">     -0.00778576 </i>
    <i name="bandstr">     16.39038397 </i>
    <i name="atom">   4822.75196862 </i>
    <i name="e_fr_energy">   -200.95828183 </i>
    <i name="e_wo_entrp">   -200.95049608 </i>
    <i name="e_0_energy">   -200.95633539 </i>
   </energy>
  </scstep>
  <scstep>
   <time name="diag">    1.06    1.27</time>
   <time name="diis">    4.10    4.12</time>
   <time name="orth">    0.09    0.09</time>
   <time name="total">    5.29    5.52</time>
   <energy>
    <i name="alphaZ">    145.25177883 </i>
    <i name="ewald">  -4292.65386998 </i>
    <i name="hartreedc">  -1273.57697402 </i>
    <i name="XCdc">    118.91021715 </i>
    <i name="pawpsdc">  18908.06522042 </i>
    <i name="pawaedc"> -18646.02200783 </i>
    <i name="eentropy">     -0.00797014 </i>
    <i name="bandstr">     16.32329781 </i>
    <i name="atom">   4822.75196862 </i>
    <i name="e_fr_energy">   -200.95833914 </i>
    <i name="e_wo_entrp">   -200.95036900 </i>
    <i name="e_0_energy">   -200.95634660 </i>
   </energy>
  </scstep>
  <structure>
   <crystal>
    <varray name="basis" >
     <v>       4.22880139      -7.32449887       0.00000000 </v>
     <v>       4.22880139       7.32449887       0.00000000 </v>
     <v>       0.00000000       0.00000000       5.41920884 </v>
    </varray>
    <i name="volume">    335.70753430 </i>
    <varray name="rec_basis" >
     <v>       0.11823681      -0.06826406       0.00000000 </v>
     <v>       0.11823681       0.06826406       0.00000000 </v>
     <v>       0.00000000       0.00000000       0.18452878 </v>
    </varray>
   </crystal>
   <varray name="positions" >
    <v>       0.00913538       0.64753686       0.21213937 </v>
    <v>       0.63840148       0.99086462       0.21213937 </v>
    <v>       0.91376055       0.32165267       0.99142826 </v>
    <v>       0.64753686       0.00913538       0.71213937 </v>
    <v>       0.08623945       0.40789213       0.49142826 </v>
    <v>       0.32165267       0.91376055       0.49142826 </v>
    <v>       0.35246314       0.36159852       0.21213937 </v>
    <v>       0.59210787       0.67834733       0.49142826 </v>
    <v>       0.99086462       0.63840148       0.71213937 </v>
    <v>       0.36159852       0.35246314       0.71213937 </v>
    <v>       0.67834733       0.59210787       0.99142826 </v>
    <v>       0.40789213       0.08623945       0.99142826 </v>
    <v>       0.21254336       0.29930839       0.46667166 </v>
    <v>       0.08676503       0.78745664       0.46667166 </v>
    <v>       0.29930839       0.21254336       0.96667166 </v>
    <v>       0.70069161       0.91323497       0.46667166 </v>
    <v>      -0.00000000      -0.00000000       0.95689854 </v>
    <v>       0.06767024       0.48437322       0.78333682 </v>
    <v>      -0.00000000      -0.00000000       0.45689854 </v>
    <v>       0.66666667       0.33333333       0.47850083 </v>
    <v>       0.58329702       0.51562678       0.28333682 </v>
    <v>       0.78745664       0.08676503       0.96667166 </v>
    <v>       0.91323497       0.70069161       0.96667166 </v>
    <v>       0.33333333       0.66666667       0.97850083 </v>
    <v>       0.93232976       0.41670298       0.28333682 </v>
    <v>       0.41670298       0.93232976       0.78333682 </v>
    <v>       0.51562678       0.58329702       0.78333682 </v>
    <v>       0.48437322       0.06767024       0.28333682 </v>
   </varray>
  </structure>
  <varray name="forces" >
   <v>       0.00124067      -0.06899601       0.02734174 </v>
   <v>      -0.06037263       0.03342355       0.02734174 </v>
   <v>      -0.08873890      -0.00174876       0.03260163 </v>
   <v>       0.00124067       0.06899601       0.02734174 </v>
   <v>       0.04285498      -0.07772453       0.03260163 </v>
   <v>      -0.08873890       0.00174876       0.03260163 </v>
   <v>       0.05913196       0.03557246       0.02734174 </v>
   <v>       0.04588393       0.07597576       0.03260163 </v>
   <v>      -0.06037263      -0.03342355       0.02734174 </v>
   <v>       0.05913196      -0.03557246       0.02734174 </v>
   <v>       0.04588393      -0.07597576       0.03260163 </v>
   <v>       0.04285498       0.07772453       0.03260163 </v>
   <v>       0.08893992       0.02251484      -0.09032807 </v>
   <v>      -0.02497153      -0.08828165      -0.09032807 </v>
   <v>       0.08893992      -0.02251484      -0.09032807 </v>
   <v>      -0.06396838       0.06576681      -0.09032807 </v>
   <v>      -0.00000000       0.00000000      -0.01287422 </v>
   <v>       0.06466636       0.07969724      -0.03856905 </v>
   <v>      -0.00000000       0.00000000      -0.01287422 </v>
   <v>      -0.00000000       0.00000000       0.21973546 </v>
   <v>      -0.10135302      -0.01615409      -0.03856905 </v>
   <v>      -0.02497153       0.08828165      -0.09032807 </v>
   <v>      -0.06396838      -0.06576681      -0.09032807 </v>
   <v>      -0.00000000       0.00000000       0.21973546 </v>
   <v>       0.03668666       0.09585133      -0.03856905 </v>
   <v>       0.03668666      -0.09585133      -0.03856905 </v>
   <v>      -0.10135302       0.01615409      -0.03856905 </v>
   <v>       0.06466636      -0.07969724      -0.03856905 </v>
  </varray>
  <varray name="stress" >
   <v>     112.18165639       0.00000000       0.00000000 </v>
   <v>       0.00000000     112.18165639      -0.00000000 </v>
   <v>       0.00000000       0.00000000      72.95839514 </v>
  </varray>
  <energy>
   <i name="e_fr_energy">   -200.95833914 </i>
   <i name="e_wo_entrp">   -200.95634660 </i>
   <i name="e_0_energy">     -0.00797014 </i>
  </energy>
  <time name="totalsc">   27.79   32.40</time>
 </calculation>
 <calculation>
  <scstep>
   <time name="dav">    8.64    8.64</time>
   <time name="total">    9.01    9.01</time>
   <energy>
    <i name="alphaZ">    145.25177883 </i>
    <i name="ewald">  -4295.84782898 </i>
    <i name="hartreedc">  -1271.83805375 </i>
    <i name="XCdc">    118.82805267 </i>
    <i name="pawpsdc">  18904.51482202 </i>
    <i name="pawaedc"> -18642.47076120 </i>
    <i name="eentropy">     -0.00817743 </i>
    <i name="bandstr">     17.85251313 </i>
    <i name="atom">   4822.75196862 </i>
    <i name="e_fr_energy">   -200.96568609 </i>
    <i name="e_wo_entrp">   -200.95750866 </i>
    <i name="e_0_energy">   -200.96364173 </i>
   </energy>
  </scstep>
  <scstep>
   <time name="diag">    0.90    0.90</time>
   <time name="diis">    4.57    4.57</time>
   <time name="orth">    0.09    0.09</time>
   <time name="total">    5.93    5.93</time>
   <energy>
    <i name="e_fr_energy">   -200.96868320 </i>
    <i name="e_wo_entrp">   -200.96102403 </i>
    <i name="e_0_energy">   -200.96676841 </i>
   </energy>
  </scstep>
  <scstep>
   <time name="diag">    0.90    0.90</time>
   <time name="diis">    4.67    4.67</time>
   <time name="orth">    0.09    0.09</time>
   <time name="total">    6.02    6.02</time>
   <energy>
    <i name="e_fr_energy">   -200.96819520 </i>
    <i name="e_wo_entrp">   -200.96005934 </i>
    <i name="e_0_energy">   -200.96616123 </i>
   </energy>
  </scstep>
  <scstep>
   <time name="diag">    0.90    0.90</time>
   <time name="diis">    6.04    6.04</time>
   <time name="orth">    0.09    0.09</time>
   <time name="total">    7.38    7.38</time>
   <energy>
    <i name="e_fr_energy">   -200.96792304 </i>
    <i name="e_wo_entrp">   -200.96014176 </i>
    <i name="e_0_energy">   -200.96597772 </i>
   </energy>
  </scstep>
  <scstep>
   <time name="diag">    0.90    0.90</time>
   <time name="diis">    3.31    3.31</time>
   <time name="orth">    0.56    0.56</time>
   <time name="total">    4.81    4.81</time>
   <energy>
    <i name="alphaZ">    145.25177883 </i>
    <i name="ewald">  -4295.84782898 </i>
    <i name="hartreedc">  -1271.35304564 </i>
    <i name="XCdc">    118.78505681 </i>
    <i name="pawpsdc">  18814.67760875 </i>
    <i name="pawaedc"> -18552.60261878 </i>
    <i name="eentropy">     -0.00794844 </i>
    <i name="bandstr">     17.37717881 </i>
    <i name="atom">   4822.75196862 </i>
    <i name="e_fr_energy">   -200.96785001 </i>
    <i name="e_wo_entrp">   -200.95990157 </i>
    <i name="e_0_energy">   -200.96586290 </i>
   </energy>
  </scstep>
  <structure>
   <crystal>
    <varray name="basis" >
     <v>       4.22880139      -7.32449887       0.00000000 </v>
     <v>       4.22880139       7.32449887       0.00000000 </v>
     <v>       0.00000000       0.00000000       5.41920884 </v>
    </varray>
    <i name="volume">    335.70753430 </i>
    <varray name="rec_basis" >
     <v>       0.11823681      -0.06826406       0.00000000 </v>
     <v>       0.11823681       0.06826406       0.00000000 </v>
     <v>       0.00000000       0.00000000       0.18452878 </v>
    </varray>
   </crystal>
   <varray name="positions" >
    <v>       0.00975299       0.64754586       0.21174637 </v>
    <v>       0.63779288       0.99024701       0.21174637 </v>
    <v>       0.91300727       0.32116977       0.99147192 </v>
    <v>       0.64754586       0.00975299       0.71174637 </v>
    <v>       0.08699273       0.40816249       0.49147192 </v>
    <v>       0.32116977       0.91300727       0.49147192 </v>
    <v>       0.35245414       0.36220712       0.21174637 </v>
    <v>       0.59183751       0.67883023       0.49147192 </v>
    <v>       0.99024701       0.63779288       0.71174637 </v>
    <v>       0.36220712       0.35245414       0.71174637 </v>
    <v>       0.67883023       0.59183751       0.99147192 </v>
    <v>       0.40816249       0.08699273       0.99147192 </v>
    <v>       0.21266308       0.29927782       0.46580581 </v>
    <v>       0.08661474       0.78733692       0.46580581 </v>
    <v>       0.29927782       0.21266308       0.96580581 </v>
    <v>       0.70072218       0.91338526       0.46580581 </v>
    <v>      -0.00000000      -0.00000000       0.95676433 </v>
    <v>       0.06824157       0.48495061       0.78340679 </v>
    <v>      -0.00000000      -0.00000000       0.45676433 </v>
    <v>       0.66666667       0.33333333       0.48207069 </v>
    <v>       0.58329096       0.51504939       0.28340679 </v>
    <v>       0.78733692       0.08661474       0.96580581 </v>
    <v>       0.91338526       0.70072218       0.96580581 </v>
    <v>       0.33333333       0.66666667       0.98207069 </v>
    <v>       0.93175843       0.41670904       0.28340679 </v>
    <v>       0.41670904       0.93175843       0.78340679 </v>
    <v>       0.51504939       0.58329096       0.78340679 </v>
    <v>       0.48495061       0.06824157       0.28340679 </v>
   </varray>
  </structure>
  <varray name="forces" >
   <v>      -0.04440527      -0.00365647      -0.07653523 </v>
   <v>       0.01903604       0.04028433      -0.07653523 </v>
   <v>       0.05570786       0.02981064       0.01024376 </v>
   <v>      -0.04440527       0.00365647      -0.07653523 </v>
   <v>      -0.00203716       0.06314974       0.01024376 </v>
   <v>       0.05570786      -0.02981064       0.01024376 </v>
   <v>       0.02536923      -0.03662786      -0.07653523 </v>
   <v>      -0.05367070      -0.03333910       0.01024376 </v>
   <v>       0.01903604      -0.04028433      -0.07653523 </v>
   <v>       0.02536923       0.03662786      -0.07653523 </v>
   <v>      -0.05367070       0.03333910       0.01024376 </v>
   <v>      -0.00203716      -0.06314974       0.01024376 </v>
   <v>       0.11186503       0.01741762       0.01837185 </v>
   <v>      -0.04084841      -0.10558676       0.01837185 </v>
   <v>       0.11186503      -0.01741762       0.01837185 </v>
   <v>      -0.07101661       0.08816915       0.01837185 </v>
   <v>      -0.00000000      -0.00000000      -0.01969666 </v>
   <v>      -0.02357328       0.01386519       0.01872200 </v>
   <v>      -0.00000000      -0.00000000      -0.01969666 </v>
   <v>      -0.00000000      -0.00000000       0.10728951 </v>
   <v>      -0.00022097       0.02734766       0.01872200 </v>
   <v>      -0.04084841       0.10558676       0.01837185 </v>
   <v>      -0.07101661      -0.08816915       0.01837185 </v>
   <v>      -0.00000000      -0.00000000       0.10728951 </v>
   <v>       0.02379425      -0.01348247       0.01872200 </v>
   <v>       0.02379425       0.01348247       0.01872200 </v>
   <v>      -0.00022097      -0.02734766       0.01872200 </v>
   <v>      -0.02357328      -0.01386519       0.01872200 </v>
  </varray>
  <varray name="stress" >
   <v>     109.83279415       0.00000000       0.00000000 </v>
   <v>       0.00000000     109.83279415       0.00000000 </v>
   <v>       0.00000000       0.00000000      68.28913434 </v>
  </varray>
  <energy>
   <i name="e_fr_energy">   -200.96785001 </i>
   <i name="e_wo_entrp">   -200.96586290 </i>
   <i name="e_0_energy">     -0.00794844 </i>
  </energy>
  <time name="totalsc">   46.27   46.28</time>
 </calculation>
 <calculation>
  <scstep>
   <time name="dav">    8.05    8.06</time>
   <time name="total">    8.42    8.42</time>
   <energy>
    <i name="alphaZ">    145.25177883 </i>
    <i name="ewald">  -4296.29749166 </i>
    <i name="hartreedc">  -1271.10929847 </i>
    <i name="XCdc">    118.77277612 </i>
    <i name="pawpsdc">  18810.11934487 </i>
    <i name="pawaedc"> -18548.04360540 </i>
    <i name="eentropy">     -0.00799926 </i>
    <i name="bandstr">     17.59461536 </i>
    <i name="atom">   4822.75196862 </i>
    <i name="e_fr_energy">   -200.96791099 </i>
    <i name="e_wo_entrp">   -200.95991173 </i>
    <i name="e_0_energy">   -200.96591118 </i>
   </energy>
  </scstep>
  <scstep>
   <time name="diag">    3.09    3.09</time>
   <time name="diis">    4.43    4.43</time>
   <time name="orth">    0.09    0.09</time>
   <time name="total">    7.65    7.65</time>
   <energy>
    <i name="alphaZ">    145.25177883 </i>
    <i name="ewald">  -4296.29749166 </i>
    <i name="hartreedc">  -1271.08202492 </i>
    <i name="XCdc">    118.76964333 </i>
    <i name="pawpsdc">  18805.15045544 </i>
    <i name="pawaedc"> -18543.07293435 </i>
    <i name="eentropy">     -0.00790585 </i>
    <i name="bandstr">     17.56852806 </i>
    <i name="atom">   4822.75196862 </i>
    <i name="e_fr_energy">   -200.96798251 </i>
    <i name="e_wo_entrp">   -200.96007665 </i>
    <i name="e_0_energy">   -200.96600604 </i>
   </energy>
  </scstep>
  <structure>
   <crystal>
    <varray name="basis" >
     <v>       4.22880139      -7.32449887       0.00000000 </v>
     <v>       4.22880139       7.32449887       0.00000000 </v>
     <v>       0.00000000       0.00000000       5.41920884 </v>
    </varray>
    <i name="volume">    335.70753430 </i>
    <varray name="rec_basis" >
     <v>       0.11823681      -0.06826406       0.00000000 </v>
     <v>       0.11823681       0.06826406       0.00000000 </v>
     <v>       0.00000000       0.00000000       0.18452878 </v>
    </varray>
   </crystal>
   <varray name="positions" >
    <v>       0.00984092       0.64754714       0.21169042 </v>
    <v>       0.63770622       0.99015908       0.21169042 </v>
    <v>       0.91290002       0.32110101       0.99147813 </v>
    <v>       0.64754714       0.00984092       0.71169042 </v>
    <v>       0.08709998       0.40820099       0.49147813 </v>
    <v>       0.32110101       0.91290002       0.49147813 </v>
    <v>       0.35245286       0.36229378       0.21169042 </v>
    <v>       0.59179901       0.67889899       0.49147813 </v>
    <v>       0.99015908       0.63770622       0.71169042 </v>
    <v>       0.36229378       0.35245286       0.71169042 </v>
    <v>       0.67889899       0.59179901       0.99147813 </v>
    <v>       0.40820099       0.08709998       0.99147813 </v>
    <v>       0.21268013       0.29927347       0.46568253 </v>
    <v>       0.08659334       0.78731987       0.46568253 </v>
    <v>       0.29927347       0.21268013       0.96568253 </v>
    <v>       0.70072653       0.91340666       0.46568253 </v>
    <v>      -0.00000000      -0.00000000       0.95674522 </v>
    <v>       0.06832292       0.48503282       0.78341675 </v>
    <v>      -0.00000000      -0.00000000       0.45674522 </v>
    <v>       0.66666667       0.33333333       0.48257898 </v>
    <v>       0.58329009       0.51496718       0.28341675 </v>
    <v>       0.78731987       0.08659334       0.96568253 </v>
    <v>       0.91340666       0.70072653       0.96568253 </v>
    <v>       0.33333333       0.66666667       0.98257898 </v>
    <v>       0.93167708       0.41670991       0.28341675 </v>
    <v>       0.41670991       0.93167708       0.78341675 </v>
    <v>       0.51496718       0.58329009       0.78341675 </v>
    <v>       0.48503282       0.06832292       0.28341675 </v>
   </varray>
  </structure>
  <varray name="forces" >
   <v>      -0.05241070       0.00862932      -0.08991522 </v>
   <v>       0.03367856       0.04107434      -0.08991522 </v>
   <v>       0.08025867       0.03408279       0.00557752 </v>
   <v>      -0.05241070      -0.00862932      -0.08991522 </v>
   <v>      -0.01061278       0.08654744       0.00557752 </v>
   <v>       0.08025867      -0.03408279       0.00557752 </v>
   <v>       0.01873214      -0.04970366      -0.08991522 </v>
   <v>      -0.06964590      -0.05246466       0.00557752 </v>
   <v>       0.03367856      -0.04107434      -0.08991522 </v>
   <v>       0.01873214       0.04970366      -0.08991522 </v>
   <v>      -0.06964590       0.05246466       0.00557752 </v>
   <v>      -0.01061278      -0.08654744       0.00557752 </v>
   <v>       0.11414181       0.01557721       0.03458351 </v>
   <v>      -0.04358064      -0.10663831       0.03458351 </v>
   <v>       0.11414181      -0.01557721       0.03458351 </v>
   <v>      -0.07056116       0.09106110       0.03458351 </v>
   <v>      -0.00000000       0.00000000      -0.02056648 </v>
   <v>      -0.03517421       0.00454073       0.02775635 </v>
   <v>      -0.00000000       0.00000000      -0.02056648 </v>
   <v>      -0.00000000       0.00000000       0.08656000 </v>
   <v>       0.01365472       0.03273213       0.02775635 </v>
   <v>      -0.04358064       0.10663831       0.03458351 </v>
   <v>      -0.07056116      -0.09106110       0.03458351 </v>
   <v>      -0.00000000       0.00000000       0.08656000 </v>
   <v>       0.02151950      -0.02819140       0.02775635 </v>
   <v>       0.02151950       0.02819140       0.02775635 </v>
   <v>       0.01365472      -0.03273213       0.02775635 </v>
   <v>      -0.03517421      -0.00454073       0.02775635 </v>
  </varray>
  <varray name="stress" >
   <v>     109.32429948       0.00000000       0.00000000 </v>
   <v>       0.00000000     109.32429948       0.00000000 </v>
   <v>       0.00000000       0.00000000      67.57390078 </v>
  </varray>
  <energy>
   <i name="e_fr_energy">   -200.96798251 </i>
   <i name="e_wo_entrp">   -200.96600604 </i>
   <i name="e_0_energy">     -0.00790585 </i>
  </energy>
  <time name="totalsc">   25.82   25.83</time>
 </calculation>
 <calculation>
  <scstep>
   <time name="dav">   15.16   15.16</time>
   <time name="total">   15.52   15.52</time>
   <energy>
    <i name="alphaZ">    145.25177883 </i>
    <i name="ewald">  -4294.66416652 </i>
    <i name="hartreedc">  -1272.91997323 </i>
    <i name="XCdc">    118.75022651 </i>
    <i name="pawpsdc">  18802.00365892 </i>
    <i name="pawaedc"> -18539.92512622 </i>
    <i name="eentropy">     -0.00883436 </i>
    <i name="bandstr">     17.78910437 </i>
    <i name="atom">   4822.75196862 </i>
    <i name="e_fr_energy">   -200.97136308 </i>
    <i name="e_wo_entrp">   -200.96252871 </i>
    <i name="e_0_energy">   -200.96915448 </i>
   </energy>
  </scstep>
  <scstep>
   <time name="diag">    0.90    0.90</time>
   <time name="diis">    4.40    4.71</time>
   <time name="orth">    0.09    0.09</time>
   <time name="total">    5.75    6.06</time>
   <energy>
    <i name="e_fr_energy">   -200.97391372 </i>
    <i name="e_wo_entrp">   -200.96643435 </i>
    <i name="e_0_energy">   -200.97204388 </i>
   </energy>
  </scstep>
  <scstep>
   <time name="diag">    1.22    1.22</time>
   <time name="diis">    4.56    4.56</time>
   <time name="orth">    0.09    0.09</time>
   <time name="total">    7.01    7.01</time>
   <energy>
    <i name="e_fr_energy">   -200.97293363 </i>
    <i name="e_wo_entrp">   -200.96439031 </i>
    <i name="e_0_energy">   -200.97079780 </i>
   </energy>
  </scstep>
  <scstep>
   <time name="diag">    0.89    0.89</time>
   <time name="diis">    4.34    4.34</time>
   <time name="orth">    0.09    0.09</time>
   <time name="total">    5.67    5.67</time>
   <energy>
    <i name="e_fr_energy">   -200.97262954 </i>
    <i name="e_wo_entrp">   -200.96425467 </i>
    <i name="e_0_energy">   -200.97053582 </i>
   </energy>
  </scstep>
  <scstep>
   <time name="diag">    0.88    0.88</time>
   <time name="diis">    2.96    2.96</time>
   <time name="orth">    0.09    0.09</time>
   <time name="total">    3.96    3.96</time>
   <energy>
    <i name="alphaZ">    145.25177883 </i>
    <i name="ewald">  -4294.66416652 </i>
    <i name="hartreedc">  -1272.96342019 </i>
    <i name="XCdc">    118.73800608 </i>
    <i name="pawpsdc">  18754.89083975 </i>
    <i name="pawaedc"> -18492.79274105 </i>
    <i name="eentropy">     -0.00839021 </i>
    <i name="bandstr">     17.82355411 </i>
    <i name="atom">   4822.75196862 </i>
    <i name="e_fr_energy">   -200.97257058 </i>
    <i name="e_wo_entrp">   -200.96418037 </i>
    <i name="e_0_energy">   -200.97047303 </i>
   </energy>
  </scstep>
  <structure>
   <crystal>
    <varray name="basis" >
     <v>       4.22880139      -7.32449887       0.00000000 </v>
     <v>       4.22880139       7.32449887       0.00000000 </v>
     <v>       0.00000000       0.00000000       5.41920884 </v>
    </varray>
    <i name="volume">    335.70753430 </i>
    <varray name="rec_basis" >
     <v>       0.11823681      -0.06826406       0.00000000 </v>
     <v>       0.11823681       0.06826406       0.00000000 </v>
     <v>       0.00000000       0.00000000       0.18452878 </v>
    </varray>
   </crystal>
   <varray name="positions" >
    <v>       0.00989167       0.64726705       0.21059217 </v>
    <v>       0.63737538       0.99010833       0.21059217 </v>
    <v>       0.91278135       0.32139321       0.99155864 </v>
    <v>       0.64726705       0.00989167       0.71059217 </v>
    <v>       0.08721865       0.40861185       0.49155864 </v>
    <v>       0.32139321       0.91278135       0.49155864 </v>
    <v>       0.35273295       0.36262462       0.21059217 </v>
    <v>       0.59138815       0.67860679       0.49155864 </v>
    <v>       0.99010833       0.63737538       0.71059217 </v>
    <v>       0.36262462       0.35273295       0.71059217 </v>
    <v>       0.67860679       0.59138815       0.99155864 </v>
    <v>       0.40861185       0.08721865       0.99155864 </v>
    <v>       0.21339081       0.29999603       0.46545173 </v>
    <v>       0.08660523       0.78660919       0.46545173 </v>
    <v>       0.29999603       0.21339081       0.96545173 </v>
    <v>       0.70000397       0.91339477       0.46545173 </v>
    <v>      -0.00000000      -0.00000000       0.95646556 </v>
    <v>       0.06846206       0.48520747       0.78372280 </v>
    <v>      -0.00000000      -0.00000000       0.45646556 </v>
    <v>       0.66666667       0.33333333       0.48568613 </v>
    <v>       0.58325460       0.51479253       0.28372280 </v>
    <v>       0.78660919       0.08660523       0.96545173 </v>
    <v>       0.91339477       0.70000397       0.96545173 </v>
    <v>       0.33333333       0.66666667       0.98568613 </v>
    <v>       0.93153794       0.41674540       0.28372280 </v>
    <v>       0.41674540       0.93153794       0.78372280 </v>
    <v>       0.51479253       0.58325460       0.78372280 </v>
    <v>       0.48520747       0.06846206       0.28372280 </v>
   </varray>
  </structure>
  <varray name="forces" >
   <v>      -0.00397785      -0.01309612       0.03246955 </v>
   <v>      -0.00935265       0.00999298       0.03246955 </v>
   <v>      -0.01035755       0.00192030       0.00111558 </v>
   <v>      -0.00397785       0.01309612       0.03246955 </v>
   <v>       0.00684180      -0.00800975       0.00111558 </v>
   <v>      -0.01035755      -0.00192030       0.00111558 </v>
   <v>       0.01333049       0.00310314       0.03246955 </v>
   <v>       0.00351574       0.00993005       0.00111558 </v>
   <v>      -0.00935265      -0.00999298       0.03246955 </v>
   <v>       0.01333049      -0.00310314       0.03246955 </v>
   <v>       0.00351574      -0.00993005       0.00111558 </v>
   <v>       0.00684180       0.00800975       0.00111558 </v>
   <v>      -0.01104213       0.08284455      -0.05576546 </v>
   <v>       0.07726655      -0.03185951      -0.05576546 </v>
   <v>      -0.01104213      -0.08284455      -0.05576546 </v>
   <v>      -0.06622442      -0.05098504      -0.05576546 </v>
   <v>       0.00000000       0.00000000      -0.01814242 </v>
   <v>       0.01930044      -0.06005423       0.04511538 </v>
   <v>       0.00000000       0.00000000      -0.01814242 </v>
   <v>       0.00000000       0.00000000      -0.05066273 </v>
   <v>       0.04235827      -0.04674179       0.04511538 </v>
   <v>       0.07726655       0.03185951      -0.05576546 </v>
   <v>      -0.06622442       0.05098504      -0.05576546 </v>
   <v>       0.00000000       0.00000000      -0.05066273 </v>
   <v>      -0.06165871      -0.01331245       0.04511538 </v>
   <v>      -0.06165871       0.01331245       0.04511538 </v>
   <v>       0.04235827       0.04674179       0.04511538 </v>
   <v>       0.01930044       0.06005423       0.04511538 </v>
  </varray>
  <varray name="stress" >
   <v>     107.55893417       0.00000000      -0.00000000 </v>
   <v>       0.00000000     107.55893417       0.00000000 </v>
   <v>       0.00000000       0.00000000      66.66344649 </v>
  </varray>
  <energy>
   <i name="e_fr_energy">   -200.97257058 </i>
   <i name="e_wo_entrp">   -200.97047303 </i>
   <i name="e_0_energy">     -0.00839021 </i>
  </energy>
  <time name="totalsc">   46.94   49.86</time>
 </calculation>
 <calculation>
  <scstep>
   <time name="dav">   22.10   22.27</time>
   <time name="total">   22.45   22.63</time>
   <energy>
    <i name="alphaZ">    145.25177883 </i>
    <i name="ewald">  -4294.92072616 </i>
    <i name="hartreedc">  -1272.64115350 </i>
    <i name="XCdc">    118.73837946 </i>
    <i name="pawpsdc">  18753.26911317 </i>
    <i name="pawaedc"> -18491.16998424 </i>
    <i name="eentropy">     -0.00822675 </i>
    <i name="bandstr">     17.75611401 </i>
    <i name="atom">   4822.75196862 </i>
    <i name="e_fr_energy">   -200.97273655 </i>
    <i name="e_wo_entrp">   -200.96450980 </i>
    <i name="e_0_energy">   -200.97067986 </i>
   </energy>
  </scstep>
  <scstep>
   <time name="diag">    0.88    0.88</time>
   <time name="diis">    4.13    4.13</time>
   <time name="orth">    0.09    0.09</time>
   <time name="total">    5.15    5.15</time>
   <energy>
    <i name="alphaZ">    145.25177883 </i>
    <i name="ewald">  -4294.92072616 </i>
    <i name="hartreedc">  -1272.61622567 </i>
    <i name="XCdc">    118.73880136 </i>
    <i name="pawpsdc">  18757.63060899 </i>
    <i name="pawaedc"> -18495.53239177 </i>
    <i name="eentropy">     -0.00845177 </i>
    <i name="bandstr">     17.73183913 </i>
    <i name="atom">   4822.75196862 </i>
    <i name="e_fr_energy">   -200.97279843 </i>
    <i name="e_wo_entrp">   -200.96434667 </i>
    <i name="e_0_energy">   -200.97068549 </i>
   </energy>
  </scstep>
  <structure>
   <crystal>
    <varray name="basis" >
     <v>       4.22880139      -7.32449887       0.00000000 </v>
     <v>       4.22880139       7.32449887       0.00000000 </v>
     <v>       0.00000000       0.00000000       5.41920884 </v>
    </varray>
    <i name="volume">    335.70753430 </i>
    <varray name="rec_basis" >
     <v>       0.11823681      -0.06826406       0.00000000 </v>
     <v>       0.11823681       0.06826406       0.00000000 </v>
     <v>       0.00000000       0.00000000       0.18452878 </v>
    </varray>
   </crystal>
   <varray name="positions" >
    <v>       0.00988390       0.64730996       0.21076042 </v>
    <v>       0.63742606       0.99011610       0.21076042 </v>
    <v>       0.91279953       0.32134844       0.99154630 </v>
    <v>       0.64730996       0.00988390       0.71076042 </v>
    <v>       0.08720047       0.40854891       0.49154630 </v>
    <v>       0.32134844       0.91279953       0.49154630 </v>
    <v>       0.35269004       0.36257394       0.21076042 </v>
    <v>       0.59145109       0.67865156       0.49154630 </v>
    <v>       0.99011610       0.63742606       0.71076042 </v>
    <v>       0.36257394       0.35269004       0.71076042 </v>
    <v>       0.67865156       0.59145109       0.99154630 </v>
    <v>       0.40854891       0.08720047       0.99154630 </v>
    <v>       0.21328193       0.29988534       0.46548709 </v>
    <v>       0.08660341       0.78671807       0.46548709 </v>
    <v>       0.29988534       0.21328193       0.96548709 </v>
    <v>       0.70011466       0.91339659       0.46548709 </v>
    <v>      -0.00000000      -0.00000000       0.95650840 </v>
    <v>       0.06844075       0.48518071       0.78367591 </v>
    <v>      -0.00000000      -0.00000000       0.45650840 </v>
    <v>       0.66666667       0.33333333       0.48521012 </v>
    <v>       0.58326003       0.51481929       0.28367591 </v>
    <v>       0.78671807       0.08660341       0.96548709 </v>
    <v>       0.91339659       0.70011466       0.96548709 </v>
    <v>       0.33333333       0.66666667       0.98521012 </v>
    <v>       0.93155925       0.41673997       0.28367591 </v>
    <v>       0.41673997       0.93155925       0.78367591 </v>
    <v>       0.51481929       0.58326003       0.78367591 </v>
    <v>       0.48518071       0.06844075       0.28367591 </v>
   </varray>
  </structure>
  <varray name="forces" >
   <v>      -0.01043575      -0.00832580       0.01613163 </v>
   <v>      -0.00199248       0.01320052       0.01613163 </v>
   <v>       0.00208917       0.00601775       0.00109340 </v>
   <v>      -0.01043575       0.00832580       0.01613163 </v>
   <v>       0.00416694       0.00481815       0.00109340 </v>
   <v>       0.00208917      -0.00601775       0.00109340 </v>
   <v>       0.01242822      -0.00487473       0.01613163 </v>
   <v>      -0.00625611       0.00119961       0.00109340 </v>
   <v>      -0.00199248      -0.01320052       0.01613163 </v>
   <v>       0.01242822       0.00487473       0.01613163 </v>
   <v>      -0.00625611      -0.00119961       0.00109340 </v>
   <v>       0.00416694      -0.00481815       0.00109340 </v>
   <v>       0.01540537       0.07426520      -0.04347663 </v>
   <v>       0.05661287      -0.05047404      -0.04347663 </v>
   <v>       0.01540537      -0.07426520      -0.04347663 </v>
   <v>      -0.07201823      -0.02379116      -0.04347663 </v>
   <v>      -0.00000000       0.00000000      -0.01987054 </v>
   <v>       0.01364417      -0.05111598       0.04210108 </v>
   <v>      -0.00000000       0.00000000      -0.01987054 </v>
   <v>      -0.00000000       0.00000000      -0.02767790 </v>
   <v>       0.03744566      -0.03737419       0.04210108 </v>
   <v>       0.05661287       0.05047404      -0.04347663 </v>
   <v>      -0.07201823       0.02379116      -0.04347663 </v>
   <v>      -0.00000000       0.00000000      -0.02767790 </v>
   <v>      -0.05108982      -0.01374180       0.04210108 </v>
   <v>      -0.05108982       0.01374180       0.04210108 </v>
   <v>       0.03744566       0.03737419       0.04210108 </v>
   <v>       0.01364417       0.05111598       0.04210108 </v>
  </varray>
  <varray name="stress" >
   <v>     108.09031103       0.00000000       0.00000000 </v>
   <v>       0.00000000     108.09031103      -0.00000000 </v>
   <v>      -0.00000000      -0.00000000      66.90660477 </v>
  </varray>
  <energy>
   <i name="e_fr_energy">   -200.97279843 </i>
   <i name="e_wo_entrp">   -200.97068549 </i>
   <i name="e_0_energy">     -0.00845177 </i>
  </energy>
  <time name="totalsc">   38.67   38.84</time>
 </calculation>
 <calculation>
  <scstep>
   <time name="dav">   13.90   13.90</time>
   <time name="total">   14.86   15.79</time>
   <energy>
    <i name="alphaZ">    145.25177883 </i>
    <i name="ewald">  -4294.50606942 </i>
    <i name="hartreedc">  -1273.25342042 </i>
    <i name="XCdc">    118.72558708 </i>
    <i name="pawpsdc">  18757.90887763 </i>
    <i name="pawaedc"> -18495.81107875 </i>
    <i name="eentropy">     -0.00875326 </i>
    <i name="bandstr">     17.96658233 </i>
    <i name="atom">   4822.75196862 </i>
    <i name="e_fr_energy">   -200.97452736 </i>
    <i name="e_wo_entrp">   -200.96577410 </i>
    <i name="e_0_energy">   -200.97233904 </i>
   </energy>
  </scstep>
  <scstep>
   <time name="diag">    2.01    3.40</time>
   <time name="diis">    4.57    4.58</time>
   <time name="orth">    0.09    0.09</time>
   <time name="total">    7.57    9.54</time>
   <energy>
    <i name="e_fr_energy">   -200.97490395 </i>
    <i name="e_wo_entrp">   -200.96665380 </i>
    <i name="e_0_energy">   -200.97284141 </i>
   </energy>
  </scstep>
  <scstep>
   <time name="diag">    0.88    0.88</time>
   <time name="diis">    3.25    3.25</time>
   <time name="orth">    0.09    0.09</time>
   <time name="total">    4.57    4.57</time>
   <energy>
    <i name="e_fr_energy">   -200.97470408 </i>
    <i name="e_wo_entrp">   -200.96611530 </i>
    <i name="e_0_energy">   -200.97255688 </i>
   </energy>
  </scstep>
  <scstep>
   <time name="diag">    0.88    0.88</time>
   <time name="diis">    2.61    3.19</time>
   <time name="orth">    0.52    0.96</time>
   <time name="total">    4.06    5.08</time>
   <energy>
    <i name="alphaZ">    145.25177883 </i>
    <i name="ewald">  -4294.50606942 </i>
    <i name="hartreedc">  -1273.26888022 </i>
    <i name="XCdc">    118.72336098 </i>
    <i name="pawpsdc">  18745.38144248 </i>
    <i name="pawaedc"> -18483.28024806 </i>
    <i name="eentropy">     -0.00854401 </i>
    <i name="bandstr">     17.98050323 </i>
    <i name="atom">   4822.75196862 </i>
    <i name="e_fr_energy">   -200.97468756 </i>
    <i name="e_wo_entrp">   -200.96614355 </i>
    <i name="e_0_energy">   -200.97255156 </i>
   </energy>
  </scstep>
  <structure>
   <crystal>
    <varray name="basis" >
     <v>       4.22880139      -7.32449887       0.00000000 </v>
     <v>       4.22880139       7.32449887       0.00000000 </v>
     <v>       0.00000000       0.00000000       5.41920884 </v>
    </varray>
    <i name="volume">    335.70753430 </i>
    <varray name="rec_basis" >
     <v>       0.11823681      -0.06826406       0.00000000 </v>
     <v>       0.11823681       0.06826406       0.00000000 </v>
     <v>       0.00000000       0.00000000       0.18452878 </v>
    </varray>
   </crystal>
   <varray name="positions" >
    <v>       0.00986729       0.64713101       0.21055508 </v>
    <v>       0.63726372       0.99013271       0.21055508 </v>
    <v>       0.91275336       0.32147472       0.99158211 </v>
    <v>       0.64713101       0.00986729       0.71055508 </v>
    <v>       0.08724664       0.40872136       0.49158211 </v>
    <v>       0.32147472       0.91275336       0.49158211 </v>
    <v>       0.35286899       0.36273628       0.21055508 </v>
    <v>       0.59127864       0.67852528       0.49158211 </v>
    <v>       0.99013271       0.63726372       0.71055508 </v>
    <v>       0.36273628       0.35286899       0.71055508 </v>
    <v>       0.67852528       0.59127864       0.99158211 </v>
    <v>       0.40872136       0.08724664       0.99158211 </v>
    <v>       0.21334949       0.30045775       0.46501657 </v>
    <v>       0.08710826       0.78665051       0.46501657 </v>
[...]
       <r>   -1.9189    1.0000 </r>
       <r>   -1.0863    1.0000 </r>
       <r>   -1.0352    1.0000 </r>
       <r>   -0.7279    1.0000 </r>
       <r>   -0.7279    1.0000 </r>
       <r>    0.1117    1.0000 </r>
       <r>    0.1117    1.0000 </r>
       <r>    0.4247    1.0000 </r>
       <r>    0.4247    1.0000 </r>
       <r>    0.5081    1.0000 </r>
       <r>    0.5390    1.0000 </r>
       <r>    0.9249    1.0000 </r>
       <r>    0.9249    1.0000 </r>
       <r>    1.3683    1.0000 </r>
       <r>    1.3683    1.0000 </r>
       <r>    1.4586    1.0000 </r>
       <r>    1.6952    1.0000 </r>
       <r>    1.6952    1.0000 </r>
       <r>    1.7302    1.0000 </r>
       <r>    1.9436    1.0000 </r>
       <r>    2.6719    1.0000 </r>
       <r>    2.6719    1.0000 </r>
       <r>    2.9174    1.0000 </r>
       <r>    3.1623    1.0000 </r>
       <r>    3.1623    1.0000 </r>
       <r>    3.3300    1.0000 </r>
       <r>    3.6297    1.0000 </r>
       <r>    3.6297    1.0000 </r>
       <r>    3.6863    1.0000 </r>
       <r>    4.4908    1.0000 </r>
       <r>    4.4908    1.0000 </r>
       <r>    4.6595    1.0000 </r>
       <r>    4.7968    1.0000 </r>
       <r>    4.7968    1.0000 </r>
       <r>    4.9465    1.0000 </r>
       <r>    5.2472    1.0000 </r>
       <r>    5.2472    1.0000 </r>
       <r>    5.7281    1.0000 </r>
       <r>    5.7281    1.0000 </r>
       <r>    6.1263    1.0000 </r>
       <r>    6.1263    1.0000 </r>
       <r>    6.3693    1.0000 </r>
       <r>    6.3995    1.0000 </r>
       <r>    8.0204    0.1909 </r>
       <r>    8.0223    0.1756 </r>
       <r>    8.1042   -0.0419 </r>
       <r>    8.1042   -0.0419 </r>
       <r>   10.4747    0.0000 </r>
       <r>   10.4747    0.0000 </r>
       <r>   10.8019    0.0000 </r>
       <r>   10.8019    0.0000 </r>
       <r>   11.0860    0.0000 </r>
       <r>   11.4680    0.0000 </r>
       <r>   11.8562    0.0000 </r>
       <r>   11.8562    0.0000 </r>
       <r>   12.3782    0.0000 </r>
       <r>   12.6089    0.0000 </r>
       <r>   12.6089    0.0000 </r>
       <r>   12.7719    0.0000 </r>
       <r>   12.7719    0.0000 </r>
       <r>   12.8436    0.0000 </r>
       <r>   12.9807    0.0000 </r>
       <r>   13.0061    0.0000 </r>
      </set>
     </set>
    </set>
   </array>
  </eigenvalues>
  <separator name="orbital magnetization" >
   <v name="MAGDIPOLOUT">      0.00000000      0.00000000      0.00000000</v>
  </separator>
  <dos>
   <i name="efermi">      7.98887222 </i>
   <total>
    <array>
     <dimension dim="1">gridpoints</dimension>
     <dimension dim="2">spin</dimension>
     <field>energy</field>
     <field>total</field>
     <field>integrated</field>
     <set>
      <set comment="spin 1">
       <r>   -12.1615     0.0000     0.0000 </r>
       <r>   -12.0723     0.0000     0.0000 </r>
       <r>   -11.9832     0.0000     0.0000 </r>
       <r>   -11.8940     0.0000     0.0000 </r>
       <r>   -11.8049     0.0000     0.0000 </r>
       <r>   -11.7158     0.0000     0.0000 </r>
       <r>   -11.6266     0.0000     0.0000 </r>
       <r>   -11.5375     0.0000     0.0000 </r>
       <r>   -11.4483     0.0000     0.0000 </r>
       <r>   -11.3592     0.0000     0.0000 </r>
       <r>   -11.2701     0.0000     0.0000 </r>
       <r>   -11.1809     0.0010     0.0001 </r>
       <r>   -11.0918     0.0053     0.0006 </r>
       <r>   -11.0027    -0.0442    -0.0034 </r>
       <r>   -10.9135     0.3635     0.0290 </r>
       <r>   -10.8244     1.8935     0.1978 </r>
       <r>   -10.7352     3.1441     0.4781 </r>
       <r>   -10.6461     4.1550     0.8484 </r>
       <r>   -10.5570     3.7328     1.1812 </r>
       <r>   -10.4678     4.8687     1.6152 </r>
       <r>   -10.3787     5.6797     2.1214 </r>
       <r>   -10.2896     9.7944     2.9945 </r>
       <r>   -10.2004     7.5663     3.6689 </r>
       <r>   -10.1113     8.3900     4.4168 </r>
       <r>   -10.0221     7.4195     5.0782 </r>
       <r>    -9.9330     3.0316     5.3484 </r>
       <r>    -9.8439     3.9893     5.7040 </r>
       <r>    -9.7547     0.4891     5.7476 </r>
       <r>    -9.6656     3.8506     6.0908 </r>
       <r>    -9.5764     9.0589     6.8983 </r>
       <r>    -9.4873     3.8335     7.2400 </r>
       <r>    -9.3982     1.4957     7.3734 </r>
       <r>    -9.3090     9.4167     8.2127 </r>
       <r>    -9.2199    14.4824     9.5037 </r>
       <r>    -9.1308     7.1248    10.1388 </r>
       <r>    -9.0416     5.7992    10.6557 </r>
       <r>    -8.9525     5.2225    11.1212 </r>
       <r>    -8.8633     2.7956    11.3704 </r>
       <r>    -8.7742     7.3536    12.0259 </r>
       <r>    -8.6851    11.1821    13.0227 </r>
       <r>    -8.5959    15.9649    14.4457 </r>
       <r>    -8.5068    14.2993    15.7204 </r>
       <r>    -8.4177    13.6839    16.9401 </r>
       <r>    -8.3285    11.9759    18.0076 </r>
       <r>    -8.2394     8.4625    18.7619 </r>
       <r>    -8.1502     8.6245    19.5307 </r>
       <r>    -8.0611    12.7843    20.6703 </r>
       <r>    -7.9720    24.4179    22.8469 </r>
       <r>    -7.8828    12.8492    23.9922 </r>
       <r>    -7.7937     0.1975    24.0098 </r>
       <r>    -7.7045    -0.1557    23.9959 </r>
       <r>    -7.6154     0.0438    23.9998 </r>
       <r>    -7.5263     0.0018    24.0000 </r>
       <r>    -7.4371     0.0000    24.0000 </r>
       <r>    -7.3480     0.0000    24.0000 </r>
       <r>    -7.2589     0.0000    24.0000 </r>
       <r>    -7.1697     0.0000    24.0000 </r>
       <r>    -7.0806     0.0000    24.0000 </r>
       <r>    -6.9914     0.0000    24.0000 </r>
       <r>    -6.9023     0.0000    24.0000 </r>
       <r>    -6.8132     0.0000    24.0000 </r>
       <r>    -6.7240     0.0000    24.0000 </r>
       <r>    -6.6349     0.0000    24.0000 </r>
       <r>    -6.5457     0.0000    24.0000 </r>
       <r>    -6.4566     0.0000    24.0000 </r>
       <r>    -6.3675     0.0000    24.0000 </r>
       <r>    -6.2783     0.0000    24.0000 </r>
       <r>    -6.1892     0.0000    24.0000 </r>
       <r>    -6.1001     0.0000    24.0000 </r>
       <r>    -6.0109     0.0000    24.0000 </r>
       <r>    -5.9218     0.0000    24.0000 </r>
       <r>    -5.8326     0.0000    24.0000 </r>
       <r>    -5.7435     0.0000    24.0000 </r>
       <r>    -5.6544     0.0000    24.0000 </r>
       <r>    -5.5652     0.0000    24.0000 </r>
       <r>    -5.4761     0.0000    24.0000 </r>
       <r>    -5.3870     0.0000    24.0000 </r>
       <r>    -5.2978     0.0000    24.0000 </r>
       <r>    -5.2087     0.0000    24.0000 </r>
       <r>    -5.1195     0.0000    24.0000 </r>
       <r>    -5.0304     0.0000    24.0000 </r>
       <r>    -4.9413     0.0000    24.0000 </r>
       <r>    -4.8521     0.0000    24.0000 </r>
       <r>    -4.7630     0.0000    24.0000 </r>
       <r>    -4.6738     0.0000    24.0000 </r>
       <r>    -4.5847     0.0000    24.0000 </r>
       <r>    -4.4956     0.0000    24.0000 </r>
       <r>    -4.4064     0.0000    24.0000 </r>
       <r>    -4.3173     0.0000    24.0000 </r>
       <r>    -4.2282     0.0000    24.0000 </r>
       <r>    -4.1390     0.0000    24.0000 </r>
       <r>    -4.0499     0.0007    24.0001 </r>
       <r>    -3.9607     0.0004    24.0001 </r>
       <r>    -3.8716    -0.0104    23.9992 </r>
       <r>    -3.7825     0.2084    24.0177 </r>
       <r>    -3.6933     0.9376    24.1013 </r>
       <r>    -3.6042     0.6887    24.1627 </r>
       <r>    -3.5150     1.7676    24.3203 </r>
       <r>    -3.4259     1.7278    24.4743 </r>
       <r>    -3.3368     1.0212    24.5653 </r>
       <r>    -3.2476     3.6040    24.8866 </r>
       <r>    -3.1585     2.0794    25.0719 </r>
       <r>    -3.0694     2.1231    25.2612 </r>
       <r>    -2.9802     3.3756    25.5621 </r>
       <r>    -2.8911     1.5310    25.6985 </r>
       <r>    -2.8019     5.6087    26.1985 </r>
       <r>    -2.7128     7.0363    26.8257 </r>
       <r>    -2.6237     5.6758    27.3316 </r>
       <r>    -2.5345     9.9617    28.2196 </r>
       <r>    -2.4454     9.1626    29.0363 </r>
       <r>    -2.3563     7.1787    29.6762 </r>
       <r>    -2.2671     6.3072    30.2384 </r>
       <r>    -2.1780     6.1842    30.7897 </r>
       <r>    -2.0888     5.3296    31.2648 </r>
       <r>    -1.9997     5.4144    31.7474 </r>
       <r>    -1.9106     8.9415    32.5444 </r>
       <r>    -1.8214    11.2465    33.5469 </r>
       <r>    -1.7323    11.7637    34.5955 </r>
       <r>    -1.6431     9.8322    35.4719 </r>
       <r>    -1.5540    11.8688    36.5299 </r>
       <r>    -1.4649    11.7203    37.5746 </r>
       <r>    -1.3757     8.4156    38.3248 </r>
       <r>    -1.2866    12.0974    39.4031 </r>
       <r>    -1.1975     8.3850    40.1505 </r>
       <r>    -1.1083     4.8319    40.5812 </r>
       <r>    -1.0192     3.0607    40.8541 </r>
       <r>    -0.9300     0.7611    40.9219 </r>
       <r>    -0.8409     3.4062    41.2255 </r>
       <r>    -0.7518     3.8443    41.5682 </r>
       <r>    -0.6626     2.5208    41.7929 </r>
       <r>    -0.5735     6.0183    42.3294 </r>
       <r>    -0.4844     9.8530    43.2076 </r>
       <r>    -0.3952    10.0367    44.1023 </r>
       <r>    -0.3061     9.4627    44.9458 </r>
       <r>    -0.2169     8.3958    45.6942 </r>
       <r>    -0.1278     6.8587    46.3055 </r>
       <r>    -0.0387    10.6877    47.2582 </r>
       <r>     0.0505     8.5126    48.0170 </r>
       <r>     0.1396     7.2940    48.6672 </r>
       <r>     0.2288     7.6295    49.3473 </r>
       <r>     0.3179     5.0979    49.8017 </r>
       <r>     0.4070     8.0773    50.5217 </r>
       <r>     0.4962     8.6152    51.2896 </r>
       <r>     0.5853    11.8426    52.3453 </r>
       <r>     0.6744    10.7474    53.3033 </r>
       <r>     0.7636     9.1205    54.1163 </r>
       <r>     0.8527    13.1901    55.2920 </r>
       <r>     0.9419    10.6588    56.2421 </r>
       <r>     1.0310    12.5490    57.3607 </r>
       <r>     1.1201     9.9638    58.2488 </r>
       <r>     1.2093     8.2274    58.9822 </r>
       <r>     1.2984    14.0775    60.2371 </r>
       <r>     1.3876    14.9180    61.5668 </r>
       <r>     1.4767     8.9555    62.3651 </r>
       <r>     1.5658    11.0516    63.3502 </r>
       <r>     1.6550    12.5820    64.4718 </r>
       <r>     1.7441    10.2329    65.3839 </r>
       <r>     1.8332    10.3967    66.3106 </r>
       <r>     1.9224    14.0102    67.5595 </r>
       <r>     2.0115    15.6890    68.9580 </r>
       <r>     2.1007    14.5678    70.2565 </r>
       <r>     2.1898     8.9768    71.0567 </r>
       <r>     2.2789    11.6693    72.0969 </r>
       <r>     2.3681    10.2765    73.0129 </r>
       <r>     2.4572    14.4552    74.3014 </r>
       <r>     2.5463    12.5474    75.4199 </r>
       <r>     2.6355     9.6144    76.2769 </r>
       <r>     2.7246    12.3833    77.3807 </r>
       <r>     2.8138    11.1414    78.3738 </r>
       <r>     2.9029    12.1574    79.4575 </r>
       <r>     2.9920    12.2833    80.5524 </r>
       <r>     3.0812    12.9702    81.7086 </r>
       <r>     3.1703    11.9410    82.7730 </r>
       <r>     3.2595    10.7832    83.7342 </r>
       <r>     3.3486     9.8281    84.6102 </r>
       <r>     3.4377    10.0475    85.5058 </r>
       <r>     3.5269    10.6498    86.4551 </r>
       <r>     3.6160     7.8907    87.1585 </r>
       <r>     3.7051    11.1540    88.1528 </r>
       <r>     3.7943     9.3609    88.9872 </r>
       <r>     3.8834    14.3960    90.2704 </r>
       <r>     3.9726    11.9011    91.3312 </r>
       <r>     4.0617     6.9599    91.9516 </r>
       <r>     4.1508     8.0129    92.6659 </r>
       <r>     4.2400    11.8307    93.7205 </r>
       <r>     4.3291    13.6917    94.9409 </r>
       <r>     4.4183    11.5959    95.9745 </r>
       <r>     4.5074    13.0005    97.1334 </r>
       <r>     4.5965    10.5724    98.0758 </r>
       <r>     4.6857     7.2707    98.7239 </r>
       <r>     4.7748    10.6552    99.6737 </r>
       <r>     4.8639    12.8106   100.8156 </r>
       <r>     4.9531    20.1568   102.6123 </r>
       <r>     5.0422    12.7379   103.7478 </r>
       <r>     5.1314     6.6353   104.3392 </r>
       <r>     5.2205     8.5227   105.0989 </r>
       <r>     5.3096     6.9530   105.7187 </r>
       <r>     5.3988     5.6072   106.2185 </r>
       <r>     5.4879     8.6850   106.9927 </r>
       <r>     5.5770    16.1981   108.4366 </r>
       <r>     5.6662    13.4690   109.6372 </r>
       <r>     5.7553    16.4208   111.1009 </r>
       <r>     5.8445    14.7939   112.4196 </r>
       <r>     5.9336     8.0345   113.1358 </r>
       <r>     6.0227     5.1212   113.5923 </r>
       <r>     6.1119     4.0201   113.9506 </r>
       <r>     6.2010     7.7807   114.6442 </r>
       <r>     6.2902     7.2650   115.2917 </r>
       <r>     6.3793    10.0675   116.1891 </r>
       <r>     6.4684    11.1856   117.1862 </r>
       <r>     6.5576    12.4133   118.2927 </r>
       <r>     6.6467     8.3086   119.0333 </r>
       <r>     6.7358     5.9307   119.5620 </r>
       <r>     6.8250     2.6571   119.7988 </r>
       <r>     6.9141     5.5602   120.2944 </r>
       <r>     7.0033    10.0878   121.1937 </r>
       <r>     7.0924     5.8920   121.7189 </r>
       <r>     7.1815     0.4273   121.7570 </r>
       <r>     7.2707    -0.0989   121.7481 </r>
       <r>     7.3598     0.0215   121.7500 </r>
       <r>     7.4489    -0.0029   121.7498 </r>
       <r>     7.5381     0.0140   121.7510 </r>
       <r>     7.6272     0.5115   121.7966 </r>
       <r>     7.7164     1.7709   121.9545 </r>
       <r>     7.8055     3.7030   122.2846 </r>
       <r>     7.8946     5.3622   122.7625 </r>
       <r>     7.9838    12.8162   123.9050 </r>
       <r>     8.0729    16.7014   125.3937 </r>
       <r>     8.1621     6.8966   126.0084 </r>
       <r>     8.2512     2.5196   126.2330 </r>
       <r>     8.3403     0.2155   126.2522 </r>
       <r>     8.4295    -0.0344   126.2492 </r>
       <r>     8.5186     0.0086   126.2499 </r>
       <r>     8.6077     0.0007   126.2500 </r>
       <r>     8.6969     0.0000   126.2500 </r>
       <r>     8.7860     0.0000   126.2500 </r>
       <r>     8.8752     0.0000   126.2500 </r>
       <r>     8.9643     0.0000   126.2500 </r>
       <r>     9.0534     0.0001   126.2500 </r>
       <r>     9.1426     0.0087   126.2508 </r>
       <r>     9.2317    -0.0131   126.2496 </r>
       <r>     9.3209    -0.2001   126.2318 </r>
       <r>     9.4100     3.4161   126.5363 </r>
       <r>     9.4991     2.6522   126.7727 </r>
       <r>     9.5883    -0.2739   126.7483 </r>
       <r>     9.6774     0.0422   126.7520 </r>
       <r>     9.7665     0.1403   126.7646 </r>
       <r>     9.8557     0.6735   126.8246 </r>
       <r>     9.9448     1.3207   126.9423 </r>
       <r>    10.0340     1.4047   127.0675 </r>
       <r>    10.1231     1.9350   127.2400 </r>
       <r>    10.2122     3.1204   127.5182 </r>
       <r>    10.3014     6.3364   128.0830 </r>
       <r>    10.3905    11.2199   129.0831 </r>
       <r>    10.4796    13.8942   130.3216 </r>
       <r>    10.5688    16.2427   131.7694 </r>
       <r>    10.6579    10.3325   132.6905 </r>
       <r>    10.7471     8.1592   133.4178 </r>
       <r>    10.8362    10.6189   134.3643 </r>
       <r>    10.9253     8.1004   135.0864 </r>
       <r>    11.0145     4.2903   135.4688 </r>
       <r>    11.1036     4.8687   135.9028 </r>
       <r>    11.1928     4.8280   136.3331 </r>
       <r>    11.2819     6.1333   136.8798 </r>
       <r>    11.3710     6.1757   137.4303 </r>
       <r>    11.4602     8.9961   138.2322 </r>
       <r>    11.5493    13.3768   139.4246 </r>
       <r>    11.6384     8.3889   140.1724 </r>
       <r>    11.7276     8.5305   140.9328 </r>
       <r>    11.8167    11.5465   141.9620 </r>
       <r>    11.9059    10.6963   142.9155 </r>
       <r>    11.9950     9.3046   143.7449 </r>
       <r>    12.0841     8.1658   144.4728 </r>
       <r>    12.1733     9.8622   145.3519 </r>
       <r>    12.2624    11.5185   146.3786 </r>
       <r>    12.3515    13.6429   147.5947 </r>
       <r>    12.4407    10.6530   148.5443 </r>
       <r>    12.5298    14.1790   149.8082 </r>
       <r>    12.6190    15.8475   151.2208 </r>
       <r>    12.7081    16.4598   152.6880 </r>
       <r>    12.7972    18.2791   154.3174 </r>
       <r>    12.8864    19.0267   156.0134 </r>
       <r>    12.9755    17.2201   157.5483 </r>
       <r>    13.0647    15.1043   158.8947 </r>
       <r>    13.1538     8.3859   159.6422 </r>
       <r>    13.2429     3.5048   159.9546 </r>
       <r>    13.3321     0.2998   159.9813 </r>
       <r>    13.4212     0.2077   159.9999 </r>
       <r>    13.5103     0.0018   160.0000 </r>
       <r>    13.5995    -0.0009   159.9999 </r>
       <r>    13.6886     0.0007   160.0000 </r>
       <r>    13.7778     0.0000   160.0000 </r>
       <r>    13.8669     0.0000   160.0000 </r>
       <r>    13.9560     0.0000   160.0000 </r>
       <r>    14.0452     0.0000   160.0000 </r>
       <r>    14.1343     0.0000   160.0000 </r>
       <r>    14.2235     0.0000   160.0000 </r>
       <r>    14.3126     0.0000   160.0000 </r>
       <r>    14.4017     0.0000   160.0000 </r>
       <r>    14.4909     0.0000   160.0000 </r>
       <r>    14.5800     0.0000   160.0000 </r>
      </set>
     </set>
    </array>
   </total>
  </dos>
 </calculation>
 <structure name="finalpos" >
  <crystal>
   <varray name="basis" >
    <v>       4.22880139      -7.32449887       0.00000000 </v>
    <v>       4.22880139       7.32449887       0.00000000 </v>
    <v>       0.00000000       0.00000000       5.41920884 </v>
   </varray>
   <i name="volume">    335.70753430 </i>
   <varray name="rec_basis" >
    <v>       0.11823681      -0.06826406       0.00000000 </v>
    <v>       0.11823681       0.06826406       0.00000000 </v>
    <v>       0.00000000       0.00000000       0.18452878 </v>
   </varray>
  </crystal>
  <varray name="positions" >
   <v>       0.00967746       0.64689393       0.21047131 </v>
   <v>       0.63721646       0.99032254       0.21047131 </v>
   <v>       0.91275970       0.32162793       0.99177923 </v>
   <v>       0.64689393       0.00967746       0.71047131 </v>
   <v>       0.08724030       0.40886823       0.49177923 </v>
   <v>       0.32162793       0.91275970       0.49177923 </v>
   <v>       0.35310607       0.36278354       0.21047131 </v>
   <v>       0.59113177       0.67837207       0.49177923 </v>
   <v>       0.99032254       0.63721646       0.71047131 </v>
   <v>       0.36278354       0.35310607       0.71047131 </v>
   <v>       0.67837207       0.59113177       0.99177923 </v>
   <v>       0.40886823       0.08724030       0.99177923 </v>
   <v>       0.21332540       0.30045983       0.46478643 </v>
   <v>       0.08713444       0.78667460       0.46478643 </v>
   <v>       0.30045983       0.21332540       0.96478643 </v>
   <v>       0.69954017       0.91286556       0.46478643 </v>
   <v>      -0.00000000      -0.00000000       0.95601183 </v>
   <v>       0.06899513       0.48526707       0.78433244 </v>
   <v>      -0.00000000      -0.00000000       0.45601183 </v>
   <v>       0.66666667       0.33333333       0.48600761 </v>
   <v>       0.58372807       0.51473293       0.28433244 </v>
   <v>       0.78667460       0.08713444       0.96478643 </v>
   <v>       0.91286556       0.69954017       0.96478643 </v>
   <v>       0.33333333       0.66666667       0.98600761 </v>
   <v>       0.93100487       0.41627193       0.28433244 </v>
   <v>       0.41627193       0.93100487       0.78433244 </v>
   <v>       0.51473293       0.58372807       0.78433244 </v>
   <v>       0.48526707       0.06899513       0.28433244 </v>
  </varray>
 </structure>
</modeling>
