unknown system                          
           1
     4.228801   -7.324499    0.000000
     4.228801    7.324499    0.000000
     0.000000    0.000000    5.419209
   Si   N 
  12  16
Direct configuration=     1
   0.00847736  0.64712623  0.21326215
   0.63864887  0.99152264  0.21326215
   0.91417805  0.32157747  0.99187268
   0.64712623  0.00847736  0.71326215
   0.08582195  0.40739942  0.49187268
   0.32157747  0.91417805  0.49187268
   0.35287377  0.36135113  0.21326215
   0.59260058  0.67842253  0.49187268
   0.99152264  0.63864887  0.71326215
   0.36135113  0.35287377  0.71326215
   0.67842253  0.59260058  0.99187268
   0.40739942  0.08582195  0.99187268
   0.21311138  0.30040483  0.46674092
   0.08729345  0.78688862  0.46674092
   0.30040483  0.21311138  0.96674092
   0.69959517  0.91270655  0.46674092
   0.00000000  0.00000000  0.95692726
   0.06686359  0.48449764  0.78259872
   0.00000000  0.00000000  0.45692726
   0.66666667  0.33333333  0.47577702
   0.58236595  0.51550236  0.28259872
   0.78688862  0.08729345  0.96674092
   0.91270655  0.69959517  0.96674092
   0.33333333  0.66666667  0.97577702
   0.93313641  0.41763405  0.28259872
   0.41763405  0.93313641  0.78259872
   0.51550236  0.58236595  0.78259872
   0.48449764  0.06686359  0.28259872
Direct configuration=     2
   0.00905599  0.64748732  0.21227483
   0.63843133  0.99094401  0.21227483
   0.91381092  0.32164360  0.99148188
   0.64748732  0.00905599  0.71227483
   0.08618908  0.40783268  0.49148188
   0.32164360  0.91381092  0.49148188
   0.35251268  0.36156867  0.21227483
   0.59216732  0.67835640  0.49148188
   0.99094401  0.63843133  0.71227483
   0.36156867  0.35251268  0.71227483
   0.67835640  0.59216732  0.99148188
   0.40783268  0.08618908  0.99148188
   0.21261189  0.29944068  0.46668002
   0.08682878  0.78738811  0.46668002
   0.29944068  0.21261189  0.96668002
   0.70055932  0.91317122  0.46668002
  -0.00000000 -0.00000000  0.95690200
   0.06757292  0.48438823  0.78324776
  -0.00000000 -0.00000000  0.45690200
   0.66666667  0.33333333  0.47817219
   0.58318468  0.51561177  0.28324776
   0.78738811  0.08682878  0.96668002
   0.91317122  0.70055932  0.96668002
   0.33333333  0.66666667  0.97817219
   0.93242708  0.41681532  0.28324776
   0.41681532  0.93242708  0.78324776
   0.51561177  0.58318468  0.78324776
   0.48438823  0.06757292  0.28324776
Direct configuration=     3
   0.00913538  0.64753686  0.21213937
   0.63840148  0.99086462  0.21213937
   0.91376055  0.32165267  0.99142826
   0.64753686  0.00913538  0.71213937
   0.08623945  0.40789213  0.49142826
   0.32165267  0.91376055  0.49142826
   0.35246314  0.36159852  0.21213937
   0.59210787  0.67834733  0.49142826
   0.99086462  0.63840148  0.71213937
   0.36159852  0.35246314  0.71213937
   0.67834733  0.59210787  0.99142826
   0.40789213  0.08623945  0.99142826
   0.21254336  0.29930839  0.46667166
   0.08676503  0.78745664  0.46667166
   0.29930839  0.21254336  0.96667166
   0.70069161  0.91323497  0.46667166
  -0.00000000 -0.00000000  0.95689854
   0.06767024  0.48437322  0.78333682
  -0.00000000 -0.00000000  0.45689854
   0.66666667  0.33333333  0.47850083
   0.58329702  0.51562678  0.28333682
   0.78745664  0.08676503  0.96667166
   0.91323497  0.70069161  0.96667166
   0.33333333  0.66666667  0.97850083
   0.93232976  0.41670298  0.28333682
   0.41670298  0.93232976  0.78333682
   0.51562678  0.58329702  0.78333682
   0.48437322  0.06767024  0.28333682
Direct configuration=     4
   0.00975299  0.64754586  0.21174637
   0.63779288  0.99024701  0.21174637
   0.91300727  0.32116977  0.99147192
   0.64754586  0.00975299  0.71174637
   0.08699273  0.40816249  0.49147192
   0.32116977  0.91300727  0.49147192
   0.35245414  0.36220712  0.21174637
   0.59183751  0.67883023  0.49147192
   0.99024701  0.63779288  0.71174637
   0.36220712  0.35245414  0.71174637
   0.67883023  0.59183751  0.99147192
   0.40816249  0.08699273  0.99147192
   0.21266308  0.29927782  0.46580581
   0.08661474  0.78733692  0.46580581
   0.29927782  0.21266308  0.96580581
   0.70072218  0.91338526  0.46580581
  -0.00000000 -0.00000000  0.95676433
   0.06824157  0.48495061  0.78340679
  -0.00000000 -0.00000000  0.45676433
   0.66666667  0.33333333  0.48207069
   0.58329096  0.51504939  0.28340679
   0.78733692  0.08661474  0.96580581
   0.91338526  0.70072218  0.96580581
   0.33333333  0.66666667  0.98207069
   0.93175843  0.41670904  0.28340679
   0.41670904  0.93175843  0.78340679
   0.51504939  0.58329096  0.78340679
   0.48495061  0.06824157  0.28340679
Direct configuration=     5
   0.00984092  0.64754714  0.21169042
   0.63770622  0.99015908  0.21169042
   0.91290002  0.32110101  0.99147813
   0.64754714  0.00984092  0.71169042
   0.08709998  0.40820099  0.49147813
   0.32110101  0.91290002  0.49147813
   0.35245286  0.36229378  0.21169042
   0.59179901  0.67889899  0.49147813
   0.99015908  0.63770622  0.71169042
   0.36229378  0.35245286  0.71169042
   0.67889899  0.59179901  0.99147813
   0.40820099  0.08709998  0.99147813
   0.21268013  0.29927347  0.46568253
   0.08659334  0.78731987  0.46568253
   0.29927347  0.21268013  0.96568253
   0.70072653  0.91340666  0.46568253
  -0.00000000 -0.00000000  0.95674522
   0.06832292  0.48503282  0.78341675
  -0.00000000 -0.00000000  0.45674522
   0.66666667  0.33333333  0.48257898
   0.58329009  0.51496718  0.28341675
   0.78731987  0.08659334  0.96568253
   0.91340666  0.70072653  0.96568253
   0.33333333  0.66666667  0.98257898
   0.93167708  0.41670991  0.28341675
   0.41670991  0.93167708  0.78341675
   0.51496718  0.58329009  0.78341675
   0.48503282  0.06832292  0.28341675
Direct configuration=     6
   0.00989167  0.64726705  0.21059217
   0.63737538  0.99010833  0.21059217
   0.91278135  0.32139321  0.99155864
   0.64726705  0.00989167  0.71059217
   0.08721865  0.40861185  0.49155864
   0.32139321  0.91278135  0.49155864
   0.35273295  0.36262462  0.21059217
   0.59138815  0.67860679  0.49155864
   0.99010833  0.63737538  0.71059217
   0.36262462  0.35273295  0.71059217
   0.67860679  0.59138815  0.99155864
   0.40861185  0.08721865  0.99155864
   0.21339081  0.29999603  0.46545173
   0.08660523  0.78660919  0.46545173
   0.29999603  0.21339081  0.96545173
   0.70000397  0.91339477  0.46545173
  -0.00000000 -0.00000000  0.95646556
   0.06846206  0.48520747  0.78372280
  -0.00000000 -0.00000000  0.45646556
   0.66666667  0.33333333  0.48568613
   0.58325460  0.51479253  0.28372280
   0.78660919  0.08660523  0.96545173
   0.91339477  0.70000397  0.96545173
   0.33333333  0.66666667  0.98568613
   0.93153794  0.41674540  0.28372280
   0.41674540  0.93153794  0.78372280
   0.51479253  0.58325460  0.78372280
   0.48520747  0.06846206  0.28372280
Direct configuration=     7
   0.00988390  0.64730996  0.21076042
   0.63742606  0.99011610  0.21076042
   0.91279953  0.32134844  0.99154630
   0.64730996  0.00988390  0.71076042
   0.08720047  0.40854891  0.49154630
   0.32134844  0.91279953  0.49154630
   0.35269004  0.36257394  0.21076042
   0.59145109  0.67865156  0.49154630
   0.99011610  0.63742606  0.71076042
   0.36257394  0.35269004  0.71076042
   0.67865156  0.59145109  0.99154630
   0.40854891  0.08720047  0.99154630
   0.21328193  0.29988534  0.46548709
   0.08660341  0.78671807  0.46548709
   0.29988534  0.21328193  0.96548709
   0.70011466  0.91339659  0.46548709
  -0.00000000 -0.00000000  0.95650840
   0.06844075  0.48518071  0.78367591
  -0.00000000 -0.00000000  0.45650840
   0.66666667  0.33333333  0.48521012
   0.58326003  0.51481929  0.28367591
   0.78671807  0.08660341  0.96548709
   0.91339659  0.70011466  0.96548709
   0.33333333  0.66666667  0.98521012
   0.93155925  0.41673997  0.28367591
   0.41673997  0.93155925  0.78367591
   0.51481929  0.58326003  0.78367591
   0.48518071  0.06844075  0.28367591
Direct configuration=     8
   0.00986729  0.64713101  0.21055508
   0.63726372  0.99013271  0.21055508
   0.91275336  0.32147472  0.99158211
   0.64713101  0.00986729  0.71055508
   0.08724664  0.40872136  0.49158211
   0.32147472  0.91275336  0.49158211
   0.35286899  0.36273628  0.21055508
   0.59127864  0.67852528  0.49158211
   0.99013271  0.63726372  0.71055508
   0.36273628  0.35286899  0.71055508
   0.67852528  0.59127864  0.99158211
   0.40872136  0.08724664  0.99158211
   0.21334949  0.30045775  0.46501657
   0.08710826  0.78665051  0.46501657
   0.30045775  0.21334949  0.96501657
   0.69954225  0.91289174  0.46501657
  -0.00000000 -0.00000000  0.95623746
   0.06873755  0.48514405  0.78415803
  -0.00000000 -0.00000000  0.45623746
   0.66666667  0.33333333  0.48595486
   0.58359351  0.51485595  0.28415803
   0.78665051  0.08710826  0.96501657
   0.91289174  0.69954225  0.96501657
   0.33333333  0.66666667  0.98595486
   0.93126245  0.41640649  0.28415803
   0.41640649  0.93126245  0.78415803
   0.51485595  0.58359351  0.78415803
   0.48514405  0.06873755  0.28415803
Direct configuration=     9
   0.00986678  0.64712541  0.21054866
   0.63725864  0.99013322  0.21054866
   0.91275191  0.32147867  0.99158323
   0.64712541  0.00986678  0.71054866
   0.08724809  0.40872676  0.49158323
   0.32147867  0.91275191  0.49158323
   0.35287459  0.36274136  0.21054866
   0.59127324  0.67852133  0.49158323
   0.99013322  0.63725864  0.71054866
   0.36274136  0.35287459  0.71054866
   0.67852133  0.59127324  0.99158323
   0.40872676  0.08724809  0.99158323
   0.21335160  0.30047566  0.46500185
   0.08712406  0.78664840  0.46500185
   0.30047566  0.21335160  0.96500185
   0.69952434  0.91287594  0.46500185
  -0.00000000 -0.00000000  0.95622898
   0.06874684  0.48514290  0.78417312
  -0.00000000 -0.00000000  0.45622898
   0.66666667  0.33333333  0.48597816
   0.58360394  0.51485710  0.28417312
   0.78664840  0.08712406  0.96500185
   0.91287594  0.69952434  0.96500185
   0.33333333  0.66666667  0.98597816
   0.93125316  0.41639606  0.28417312
   0.41639606  0.93125316  0.78417312
   0.51485710  0.58360394  0.78417312
   0.48514290  0.06874684  0.28417312
Direct configuration=    10
   0.00966002  0.64687260  0.21046419
   0.63721258  0.99033998  0.21046419
   0.91276042  0.32164169  0.99179729
   0.64687260  0.00966002  0.71046419
   0.08723958  0.40888127  0.49179729
   0.32164169  0.91276042  0.49179729
   0.35312740  0.36278742  0.21046419
   0.59111873  0.67835831  0.49179729
   0.99033998  0.63721258  0.71046419
   0.36278742  0.35312740  0.71046419
   0.67835831  0.59111873  0.99179729
   0.40888127  0.08723958  0.99179729
   0.21332298  0.30045838  0.46476658
   0.08713539  0.78667702  0.46476658
   0.30045838  0.21332298  0.96476658
   0.69954162  0.91286461  0.46476658
  -0.00000000 -0.00000000  0.95599182
   0.06901801  0.48527851  0.78434712
  -0.00000000 -0.00000000  0.45599182
   0.66666667  0.33333333  0.48601032
   0.58373951  0.51472149  0.28434712
   0.78667702  0.08713539  0.96476658
   0.91286461  0.69954162  0.96476658
   0.33333333  0.66666667  0.98601032
   0.93098199  0.41626049  0.28434712
   0.41626049  0.93098199  0.78434712
   0.51472149  0.58373951  0.78434712
   0.48527851  0.06901801  0.28434712
Direct configuration=    11
   0.00967746  0.64689393  0.21047131
   0.63721646  0.99032254  0.21047131
   0.91275970  0.32162793  0.99177923
   0.64689393  0.00967746  0.71047131
   0.08724030  0.40886823  0.49177923
   0.32162793  0.91275970  0.49177923
   0.35310607  0.36278354  0.21047131
   0.59113177  0.67837207  0.49177923
   0.99032254  0.63721646  0.71047131
   0.36278354  0.35310607  0.71047131
   0.67837207  0.59113177  0.99177923
   0.40886823  0.08724030  0.99177923
   0.21332540  0.30045983  0.46478643
   0.08713444  0.78667460  0.46478643
   0.30045983  0.21332540  0.96478643
   0.69954017  0.91286556  0.46478643
  -0.00000000 -0.00000000  0.95601183
   0.06899513  0.48526707  0.78433244
  -0.00000000 -0.00000000  0.45601183
   0.66666667  0.33333333  0.48600761
   0.58372807  0.51473293  0.28433244
   0.78667460  0.08713444  0.96478643
   0.91286556  0.69954017  0.96478643
   0.33333333  0.66666667  0.98600761
   0.93100487  0.41627193  0.28433244
   0.41627193  0.93100487  0.78433244
   0.51473293  0.58372807  0.78433244
   0.48526707  0.06899513  0.28433244
