  28  28   0   0
  0.1044420E+02  0.7752244E-09  0.7752244E-09  0.5618852E-09  0.5000000E-15
  1.000000000000000E-004
  CAR 
 unknown system                          
     14.04933359    -12.30700780  301      7.66377436      1.00000000
    -12.307  0.0000E+00  0.0000E+00
    -12.219  0.0000E+00  0.0000E+00
    -12.131  0.0000E+00  0.0000E+00
    -12.043  0.0000E+00  0.0000E+00
    -11.956  0.3945E-32  0.3466E-33
    -11.868  0.3952E-26  0.3472E-27
    -11.780  0.8273E-21  0.7268E-22
    -11.692  0.3603E-16  0.3166E-17
    -11.604  0.3232E-12  0.2839E-13
    -11.516  0.5828E-09  0.5123E-10
    -11.428  0.2021E-06  0.1781E-07
    -11.341  0.1194E-04  0.1067E-05
    -11.253  0.5578E-04  0.5967E-05
    -11.165 -0.4869E-03 -0.3681E-04
    -11.077  0.3894E-02  0.3053E-03
    -10.989  0.1976E-01  0.2041E-02
    -10.901  0.3391E-01  0.5021E-02
    -10.813  0.4202E-01  0.8712E-02
    -10.726  0.4102E-01  0.1232E-01
    -10.638  0.4950E-01  0.1666E-01
    -10.550  0.6608E-01  0.2247E-01
    -10.462  0.1031E+00  0.3153E-01
    -10.374  0.7360E-01  0.3800E-01
    -10.286  0.9285E-01  0.4615E-01
    -10.199  0.6081E-01  0.5149E-01
    -10.111  0.3607E-01  0.5466E-01
    -10.023  0.3111E-01  0.5740E-01
     -9.935  0.5048E-02  0.5784E-01
     -9.847  0.6604E-01  0.6364E-01
     -9.759  0.8490E-01  0.7110E-01
     -9.671  0.1617E-01  0.7252E-01
     -9.584  0.4693E-01  0.7664E-01
     -9.496  0.1479E+00  0.8964E-01
     -9.408  0.1081E+00  0.9914E-01
     -9.320  0.6411E-01  0.1048E+00
     -9.232  0.5238E-01  0.1094E+00
     -9.144  0.4058E-01  0.1129E+00
     -9.056  0.5208E-01  0.1175E+00
     -8.969  0.1033E+00  0.1266E+00
     -8.881  0.1589E+00  0.1406E+00
     -8.793  0.1558E+00  0.1542E+00
     -8.705  0.1443E+00  0.1669E+00
     -8.617  0.1287E+00  0.1782E+00
     -8.529  0.9256E-01  0.1864E+00
     -8.441  0.9215E-01  0.1945E+00
     -8.354  0.1316E+00  0.2060E+00
     -8.266  0.2463E+00  0.2276E+00
     -8.178  0.1385E+00  0.2398E+00
     -8.090  0.3537E-02  0.2401E+00
     -8.002 -0.2026E-02  0.2400E+00
     -7.914  0.5074E-03  0.2400E+00
     -7.826  0.2601E-04  0.2400E+00
     -7.739  0.1705E-06  0.2400E+00
     -7.651  0.1996E-09  0.2400E+00
     -7.563  0.4584E-13  0.2400E+00
     -7.475  0.1161E-17  0.2400E+00
     -7.387  0.0000E+00  0.2400E+00
     -7.299  0.0000E+00  0.2400E+00
     -7.211  0.0000E+00  0.2400E+00
     -7.124  0.0000E+00  0.2400E+00
     -7.036  0.0000E+00  0.2400E+00
     -6.948  0.0000E+00  0.2400E+00
     -6.860  0.0000E+00  0.2400E+00
     -6.772  0.0000E+00  0.2400E+00
     -6.684  0.0000E+00  0.2400E+00
     -6.596  0.0000E+00  0.2400E+00
     -6.509  0.0000E+00  0.2400E+00
     -6.421  0.0000E+00  0.2400E+00
     -6.333  0.0000E+00  0.2400E+00
     -6.245  0.0000E+00  0.2400E+00
     -6.157  0.0000E+00  0.2400E+00
     -6.069  0.0000E+00  0.2400E+00
     -5.981  0.0000E+00  0.2400E+00
     -5.894  0.0000E+00  0.2400E+00
     -5.806  0.0000E+00  0.2400E+00
     -5.718  0.0000E+00  0.2400E+00
     -5.630  0.0000E+00  0.2400E+00
     -5.542  0.0000E+00  0.2400E+00
     -5.454  0.0000E+00  0.2400E+00
     -5.367  0.0000E+00  0.2400E+00
     -5.279  0.0000E+00  0.2400E+00
     -5.191  0.0000E+00  0.2400E+00
     -5.103  0.0000E+00  0.2400E+00
     -5.015  0.0000E+00  0.2400E+00
     -4.927  0.0000E+00  0.2400E+00
     -4.839  0.5879E-31  0.2400E+00
     -4.752  0.4094E-25  0.2400E+00
     -4.664  0.5809E-20  0.2400E+00
     -4.576  0.1660E-15  0.2400E+00
     -4.488  0.9352E-12  0.2400E+00
     -4.400  0.1015E-08  0.2400E+00
     -4.312  0.2058E-06  0.2400E+00
     -4.224  0.7185E-05  0.2400E+00
     -4.137  0.1069E-04  0.2400E+00
     -4.049 -0.2021E-03  0.2400E+00
     -3.961  0.2460E-02  0.2402E+00
     -3.873  0.7728E-02  0.2409E+00
     -3.785  0.1066E-01  0.2418E+00
     -3.697  0.1686E-01  0.2433E+00
     -3.609  0.1105E-01  0.2443E+00
     -3.522  0.2793E-01  0.2467E+00
     -3.434  0.1889E-01  0.2484E+00
     -3.346  0.3048E-01  0.2511E+00
     -3.258  0.2656E-01  0.2534E+00
     -3.170  0.2019E-01  0.2552E+00
     -3.082  0.4813E-01  0.2594E+00
     -2.994  0.5155E-01  0.2639E+00
     -2.907  0.7063E-01  0.2701E+00
     -2.819  0.8339E-01  0.2775E+00
     -2.731  0.9215E-01  0.2855E+00
     -2.643  0.8620E-01  0.2931E+00
     -2.555  0.7535E-01  0.2997E+00
     -2.467  0.6508E-01  0.3055E+00
     -2.379  0.5451E-01  0.3102E+00
     -2.292  0.5600E-01  0.3152E+00
     -2.204  0.6961E-01  0.3213E+00
     -2.116  0.9838E-01  0.3299E+00
     -2.028  0.1245E+00  0.3409E+00
     -1.940  0.1045E+00  0.3500E+00
     -1.852  0.1095E+00  0.3597E+00
     -1.764  0.1232E+00  0.3705E+00
     -1.677  0.1064E+00  0.3798E+00
     -1.589  0.9494E-01  0.3882E+00
     -1.501  0.1117E+00  0.3980E+00
     -1.413  0.6730E-01  0.4039E+00
     -1.325  0.3483E-01  0.4070E+00
     -1.237  0.2697E-01  0.4093E+00
     -1.149  0.1564E-01  0.4107E+00
     -1.062  0.2832E-01  0.4132E+00
     -0.974  0.4009E-01  0.4167E+00
     -0.886  0.3822E-01  0.4201E+00
     -0.798  0.6745E-01  0.4260E+00
     -0.710  0.1041E+00  0.4351E+00
     -0.622  0.8827E-01  0.4429E+00
     -0.535  0.8707E-01  0.4505E+00
     -0.447  0.8883E-01  0.4584E+00
     -0.359  0.7352E-01  0.4648E+00
     -0.271  0.1145E+00  0.4749E+00
     -0.183  0.8017E-01  0.4819E+00
     -0.095  0.7687E-01  0.4887E+00
     -0.007  0.6229E-01  0.4941E+00
      0.080  0.6307E-01  0.4997E+00
      0.168  0.8505E-01  0.5072E+00
      0.256  0.9539E-01  0.5155E+00
      0.344  0.1124E+00  0.5254E+00
      0.432  0.1042E+00  0.5346E+00
      0.520  0.8179E-01  0.5417E+00
      0.608  0.1270E+00  0.5529E+00
      0.695  0.1226E+00  0.5637E+00
      0.783  0.1021E+00  0.5726E+00
      0.871  0.1176E+00  0.5830E+00
      0.959  0.9336E-01  0.5912E+00
      1.047  0.1446E+00  0.6039E+00
      1.135  0.1526E+00  0.6173E+00
      1.223  0.8744E-01  0.6250E+00
      1.310  0.1201E+00  0.6355E+00
      1.398  0.1184E+00  0.6459E+00
      1.486  0.1159E+00  0.6561E+00
      1.574  0.1016E+00  0.6650E+00
      1.662  0.1493E+00  0.6782E+00
      1.750  0.1658E+00  0.6927E+00
      1.838  0.1430E+00  0.7053E+00
      1.925  0.1063E+00  0.7146E+00
      2.013  0.1098E+00  0.7243E+00
      2.101  0.1126E+00  0.7342E+00
      2.189  0.1220E+00  0.7449E+00
      2.277  0.1177E+00  0.7552E+00
      2.365  0.1217E+00  0.7659E+00
      2.453  0.1152E+00  0.7760E+00
      2.540  0.1182E+00  0.7864E+00
      2.628  0.1175E+00  0.7968E+00
      2.716  0.1331E+00  0.8084E+00
      2.804  0.1008E+00  0.8173E+00
      2.892  0.1099E+00  0.8270E+00
      2.980  0.1174E+00  0.8373E+00
      3.068  0.1029E+00  0.8463E+00
      3.155  0.8681E-01  0.8539E+00
      3.243  0.1050E+00  0.8632E+00
      3.331  0.8989E-01  0.8711E+00
      3.419  0.1035E+00  0.8802E+00
      3.507  0.9201E-01  0.8882E+00
      3.595  0.1439E+00  0.9009E+00
      3.683  0.1104E+00  0.9106E+00
      3.770  0.8085E-01  0.9177E+00
      3.858  0.8443E-01  0.9251E+00
      3.946  0.1093E+00  0.9347E+00
      4.034  0.1249E+00  0.9457E+00
      4.122  0.1271E+00  0.9568E+00
      4.210  0.1292E+00  0.9682E+00
      4.297  0.1156E+00  0.9784E+00
      4.385  0.7938E-01  0.9853E+00
      4.473  0.9168E-01  0.9934E+00
      4.561  0.1218E+00  0.1004E+01
      4.649  0.1910E+00  0.1021E+01
      4.737  0.1675E+00  0.1036E+01
      4.825  0.7952E-01  0.1043E+01
      4.912  0.7131E-01  0.1049E+01
      5.000  0.7583E-01  0.1055E+01
      5.088  0.7292E-01  0.1062E+01
      5.176  0.7707E-01  0.1069E+01
      5.264  0.1273E+00  0.1080E+01
      5.352  0.1663E+00  0.1094E+01
      5.440  0.1661E+00  0.1109E+01
      5.527  0.1390E+00  0.1121E+01
      5.615  0.1050E+00  0.1130E+01
      5.703  0.5069E-01  0.1135E+01
      5.791  0.6327E-01  0.1140E+01
      5.879  0.6252E-01  0.1146E+01
      5.967  0.8048E-01  0.1153E+01
      6.055  0.1062E+00  0.1162E+01
      6.142  0.1205E+00  0.1173E+01
      6.230  0.1134E+00  0.1183E+01
      6.318  0.9330E-01  0.1191E+01
      6.406  0.5663E-01  0.1196E+01
      6.494  0.2568E-01  0.1198E+01
      6.582  0.5390E-01  0.1203E+01
      6.670  0.1067E+00  0.1212E+01
      6.757  0.5674E-01  0.1217E+01
      6.845  0.9771E-03  0.1218E+01
      6.933 -0.6870E-03  0.1217E+01
      7.021  0.1962E-03  0.1217E+01
      7.109  0.4827E-04  0.1218E+01
      7.197 -0.1409E-03  0.1217E+01
      7.285  0.7893E-03  0.1218E+01
      7.372  0.1032E-01  0.1218E+01
      7.460  0.3091E-01  0.1221E+01
      7.548  0.5058E-01  0.1226E+01
      7.636  0.1057E+00  0.1235E+01
      7.724  0.1831E+00  0.1251E+01
      7.812  0.9373E-01  0.1259E+01
      7.900  0.3320E-01  0.1262E+01
      7.987  0.4404E-02  0.1263E+01
      8.075 -0.5526E-03  0.1262E+01
      8.163  0.1052E-03  0.1262E+01
      8.251  0.1618E-04  0.1262E+01
      8.339  0.2410E-06  0.1262E+01
      8.427  0.6209E-09  0.1262E+01
      8.515  0.1638E-11  0.1263E+01
      8.602  0.3029E-08  0.1263E+01
      8.690  0.1252E-05  0.1263E+01
      8.778  0.7584E-04  0.1263E+01
      8.866 -0.1156E-04  0.1263E+01
      8.954 -0.2576E-02  0.1262E+01
      9.042  0.3030E-01  0.1265E+01
      9.129  0.3144E-01  0.1268E+01
      9.217 -0.2328E-02  0.1267E+01
      9.305 -0.9400E-04  0.1267E+01
      9.393  0.3900E-03  0.1268E+01
      9.481  0.3181E-02  0.1268E+01
      9.569  0.9798E-02  0.1269E+01
      9.657  0.1321E-01  0.1270E+01
      9.744  0.1470E-01  0.1271E+01
      9.832  0.2319E-01  0.1273E+01
      9.920  0.4446E-01  0.1277E+01
     10.008  0.7373E-01  0.1284E+01
     10.096  0.1200E+00  0.1294E+01
     10.184  0.1839E+00  0.1310E+01
     10.272  0.1349E+00  0.1322E+01
     10.359  0.8584E-01  0.1330E+01
     10.447  0.9645E-01  0.1338E+01
     10.535  0.1001E+00  0.1347E+01
     10.623  0.6916E-01  0.1353E+01
     10.711  0.5936E-01  0.1358E+01
     10.799  0.4945E-01  0.1363E+01
     10.887  0.5360E-01  0.1367E+01
     10.974  0.7353E-01  0.1374E+01
     11.062  0.9110E-01  0.1382E+01
     11.150  0.1347E+00  0.1394E+01
     11.238  0.1051E+00  0.1403E+01
     11.326  0.7939E-01  0.1410E+01
     11.414  0.9899E-01  0.1418E+01
     11.502  0.1218E+00  0.1429E+01
     11.589  0.1001E+00  0.1438E+01
     11.677  0.9795E-01  0.1447E+01
     11.765  0.1015E+00  0.1455E+01
     11.853  0.1251E+00  0.1466E+01
     11.941  0.1389E+00  0.1479E+01
     12.029  0.1380E+00  0.1491E+01
     12.117  0.1415E+00  0.1503E+01
     12.204  0.1713E+00  0.1518E+01
     12.292  0.1892E+00  0.1535E+01
     12.380  0.1792E+00  0.1551E+01
     12.468  0.1675E+00  0.1565E+01
     12.556  0.1701E+00  0.1580E+01
     12.644  0.1264E+00  0.1591E+01
     12.732  0.7416E-01  0.1598E+01
     12.819  0.2109E-01  0.1600E+01
     12.907  0.2501E-02  0.1600E+01
     12.995  0.4366E-04  0.1600E+01
     13.083  0.1429E-04  0.1600E+01
     13.171  0.1432E-04  0.1600E+01
     13.259  0.4127E-06  0.1600E+01
     13.346  0.1658E-08  0.1600E+01
     13.434  0.1154E-11  0.1600E+01
     13.522  0.1509E-15  0.1600E+01
     13.610  0.0000E+00  0.1600E+01
     13.698  0.0000E+00  0.1600E+01
     13.786  0.0000E+00  0.1600E+01
     13.874  0.0000E+00  0.1600E+01
     13.961  0.0000E+00  0.1600E+01
     14.049  0.0000E+00  0.1600E+01
