   28   28  100    1
  0.1044420E+02  0.7752244E-09  0.7752244E-09  0.5618852E-09  0.5000000E-15
  1.000000000000000E-004
  CAR 
 unknown system                          
    124     52     80
 
  0.3742002E-15  0.3742002E-15  0.3742002E-15  0.2551020E-02
    1      -11.108992   1.000000
    2      -10.435109   1.000000
    3      -10.435109   1.000000
    4       -9.604966   1.000000
    5       -9.604966   1.000000
    6       -8.915834   1.000000
    7       -8.533167   1.000000
    8       -8.500909   1.000000
    9       -8.500909   1.000000
   10       -8.456646   1.000000
   11       -8.387855   1.000000
   12       -8.387855   1.000000
   13       -4.009943   1.000000
   14       -3.080931   1.000000
   15       -3.080931   1.000000
   16       -2.763524   1.000000
   17       -2.093343   1.000000
   18       -1.861203   1.000000
   19       -1.861203   1.000000
   20       -1.319843   1.000000
   21       -0.928786   1.000000
   22       -0.928786   1.000000
   23       -0.634118   1.000000
   24       -0.265204   1.000000
   25       -0.265204   1.000000
   26        0.074842   1.000000
   27        0.128345   1.000000
   28        0.756607   1.000000
   29        0.860079   1.000000
   30        0.860079   1.000000
   31        1.133575   1.000000
   32        1.630584   1.000000
   33        1.630584   1.000000
   34        1.667321   1.000000
   35        1.859050   1.000000
   36        1.859050   1.000000
   37        2.215318   1.000000
   38        2.262706   1.000000
   39        2.262706   1.000000
   40        2.587763   1.000000
   41        2.587763   1.000000
   42        3.345031   1.000000
   43        3.345031   1.000000
   44        3.351913   1.000000
   45        3.471883   1.000000
   46        3.471883   1.000000
   47        3.985379   1.000000
   48        4.136349   1.000000
   49        4.370116   1.000000
   50        4.445053   1.000000
   51        4.445053   1.000000
   52        4.815409   1.000000
   53        5.009221   1.000000
   54        5.137868   1.000000
   55        5.137868   1.000000
   56        5.521604   1.000000
   57        5.521604   1.000000
   58        6.180505   1.000000
   59        6.180506   1.000000
   60        6.683510   1.000000
   61        6.683511   1.000000
   62        7.276825   0.999998
   63        7.920418   0.001682
   64        9.391988   0.000000
   65        9.391988   0.000000
   66       10.246683   0.000000
   67       10.246683   0.000000
   68       10.602463   0.000000
   69       10.652373   0.000000
   70       10.652373   0.000000
   71       11.428704   0.000000
   72       11.530905   0.000000
   73       11.750835   0.000000
   74       11.750835   0.000000
   75       12.014215   0.000000
   76       12.371986   0.000000
   77       12.509300   0.000000
   78       12.509316   0.000000
   79       12.677138   0.000000
   80       12.722219   0.000000
 
  0.1428571E+00  0.3608225E-15  0.3742002E-15  0.1530612E-01
    1      -11.085627   1.000000
    2      -10.483396   1.000000
    3      -10.453528   1.000000
    4       -9.579808   1.000000
    5       -9.553175   1.000000
    6       -8.893613   1.000000
    7       -8.633832   1.000000
    8       -8.513847   1.000000
    9       -8.485758   1.000000
   10       -8.449904   1.000000
   11       -8.387478   1.000000
   12       -8.358360   1.000000
   13       -3.949243   1.000000
   14       -3.087110   1.000000
   15       -3.019383   1.000000
   16       -2.724304   1.000000
   17       -2.145623   1.000000
   18       -1.912792   1.000000
   19       -1.861729   1.000000
   20       -1.507973   1.000000
   21       -1.109104   1.000000
   22       -0.875110   1.000000
   23       -0.648165   1.000000
   24       -0.282751   1.000000
   25       -0.125286   1.000000
   26        0.163615   1.000000
   27        0.264616   1.000000
   28        0.788687   1.000000
   29        0.806274   1.000000
   30        0.813765   1.000000
   31        1.165877   1.000000
   32        1.507091   1.000000
   33        1.646461   1.000000
   34        1.710778   1.000000
   35        1.871173   1.000000
   36        1.887732   1.000000
   37        2.215986   1.000000
   38        2.259744   1.000000
   39        2.404907   1.000000
   40        2.616202   1.000000
   41        2.633672   1.000000
   42        3.241238   1.000000
   43        3.286451   1.000000
   44        3.351053   1.000000
   45        3.510698   1.000000
   46        3.553757   1.000000
   47        3.985200   1.000000
   48        4.013401   1.000000
   49        4.161830   1.000000
   50        4.500251   1.000000
   51        4.675312   1.000000
   52        4.826507   1.000000
   53        4.990189   1.000000
   54        5.164542   1.000000
   55        5.217119   1.000000
   56        5.467517   1.000000
   57        5.521061   1.000000
   58        6.095362   1.000000
   59        6.135889   1.000000
   60        6.597787   1.000000
   61        6.674639   1.000000
   62        7.305063   0.999988
   63        7.870416   0.004875
   64        9.481715   0.000000
   65        9.530530   0.000000
   66       10.196105   0.000000
   67       10.226634   0.000000
   68       10.657331   0.000000
   69       10.740693   0.000000
   70       10.781258   0.000000
   71       11.242876   0.000000
   72       11.542321   0.000000
   73       11.654445   0.000000
   74       11.875376   0.000000
   75       12.095369   0.000000
   76       12.293628   0.000000
   77       12.432268   0.000000
   78       12.553181   0.000000
   79       12.603428   0.000000
   80       12.689506   0.000000
 
  0.2857143E+00  0.4163336E-15  0.3742002E-15  0.1530612E-01
    1      -11.018873   1.000000
    2      -10.600912   1.000000
    3      -10.490333   1.000000
    4       -9.533884   1.000000
    5       -9.414336   1.000000
    6       -8.831640   1.000000
    7       -8.807932   1.000000
    8       -8.554634   1.000000
    9       -8.489246   1.000000
   10       -8.436995   1.000000
   11       -8.386750   1.000000
   12       -8.330073   1.000000
   13       -3.772990   1.000000
   14       -3.106718   1.000000
   15       -2.870766   1.000000
   16       -2.655980   1.000000
   17       -2.305373   1.000000
   18       -2.019865   1.000000
   19       -1.877251   1.000000
   20       -1.761342   1.000000
   21       -1.428283   1.000000
   22       -0.764608   1.000000
   23       -0.680048   1.000000
   24       -0.405154   1.000000
   25        0.032867   1.000000
   26        0.417637   1.000000
   27        0.438141   1.000000
   28        0.685926   1.000000
   29        0.827461   1.000000
   30        0.903369   1.000000
   31        1.298197   1.000000
   32        1.369011   1.000000
   33        1.623461   1.000000
   34        1.655944   1.000000
   35        1.822997   1.000000
   36        1.963784   1.000000
   37        2.214329   1.000000
   38        2.277919   1.000000
   39        2.625504   1.000000
   40        2.652379   1.000000
   41        2.724629   1.000000
   42        3.116082   1.000000
   43        3.179977   1.000000
   44        3.362197   1.000000
   45        3.532021   1.000000
   46        3.695170   1.000000
   47        3.893698   1.000000
   48        4.020846   1.000000
   49        4.115586   1.000000
   50        4.540553   1.000000
   51        4.674761   1.000000
   52        4.858617   1.000000
   53        4.918337   1.000000
   54        5.192971   1.000000
   55        5.268197   1.000000
   56        5.455737   1.000000
   57        5.516227   1.000000
   58        5.935348   1.000000
   59        6.018665   1.000000
   60        6.419479   1.000000
   61        6.700412   1.000000
   62        7.377039   0.999462
   63        7.759326  -0.051622
   64        9.681343   0.000000
   65        9.873611   0.000000
   66       10.081076   0.000000
   67       10.213164   0.000000
   68       10.688961   0.000000
   69       10.957618   0.000000
   70       11.029391   0.000000
   71       11.075848   0.000000
   72       11.446059   0.000000
   73       11.609380   0.000000
   74       11.979042   0.000000
   75       12.127806   0.000000
   76       12.241003   0.000000
   77       12.299215   0.000000
   78       12.366521   0.000000
   79       12.502149   0.000000
   80       12.614179   0.000000
 
  0.4285714E+00  0.3608225E-15  0.3742002E-15  0.1530612E-01
    1      -10.924987   1.000000
    2      -10.730877   1.000000
    3      -10.516277   1.000000
    4       -9.504541   1.000000
    5       -9.223383   1.000000
    6       -9.012457   1.000000
    7       -8.751183   1.000000
    8       -8.617199   1.000000
    9       -8.492904   1.000000
   10       -8.426811   1.000000
   11       -8.385537   1.000000
   12       -8.322563   1.000000
   13       -3.525216   1.000000
   14       -3.179304   1.000000
   15       -2.828760   1.000000
   16       -2.622893   1.000000
   17       -2.328243   1.000000
   18       -2.090382   1.000000
   19       -2.014397   1.000000
   20       -1.830914   1.000000
   21       -1.652680   1.000000
   22       -0.718268   1.000000
   23       -0.661324   1.000000
   24       -0.528723   1.000000
   25        0.170833   1.000000
   26        0.386949   1.000000
   27        0.575343   1.000000
   28        0.664955   1.000000
   29        0.991185   1.000000
   30        1.022667   1.000000
   31        1.240468   1.000000
   32        1.453408   1.000000
   33        1.591144   1.000000
   34        1.634586   1.000000
   35        1.749930   1.000000
   36        1.999758   1.000000
   37        2.112659   1.000000
   38        2.308959   1.000000
   39        2.590765   1.000000
   40        2.748702   1.000000
   41        2.866127   1.000000
   42        3.068972   1.000000
   43        3.132274   1.000000
   44        3.304860   1.000000
   45        3.535912   1.000000
   46        3.843734   1.000000
   47        3.943539   1.000000
   48        4.117294   1.000000
   49        4.239347   1.000000
   50        4.487268   1.000000
   51        4.555313   1.000000
   52        4.815150   1.000000
   53        4.896707   1.000000
   54        5.026795   1.000000
   55        5.328452   1.000000
   56        5.390471   1.000000
   57        5.501400   1.000000
   58        5.797824   1.000000
   59        6.102026   1.000000
   60        6.255404   1.000000
   61        6.753806   1.000000
   62        7.464634   0.995091
   63        7.650644   0.637052
   64        9.867353   0.000000
   65        9.980213   0.000000
   66       10.160443   0.000000
   67       10.370294   0.000000
   68       10.494629   0.000000
   69       11.035862   0.000000
   70       11.087844   0.000000
   71       11.184344   0.000000
   72       11.387848   0.000000
   73       11.690665   0.000000
   74       11.950808   0.000000
   75       12.018575   0.000000
   76       12.178609   0.000000
   77       12.195852   0.000000
   78       12.263495   0.000000
   79       12.463945   0.000000
   80       12.482917   0.000000
 
  0.1428571E+00  0.1428571E+00  0.3742002E-15  0.1530612E-01
    1      -11.040506   1.000000
    2      -10.558673   1.000000
    3      -10.489224   1.000000
    4       -9.525098   1.000000
    5       -9.477722   1.000000
    6       -8.851117   1.000000
    7       -8.758774   1.000000
    8       -8.532595   1.000000
    9       -8.494360   1.000000
   10       -8.440484   1.000000
   11       -8.386408   1.000000
   12       -8.336475   1.000000
   13       -3.830041   1.000000
   14       -3.086723   1.000000
   15       -2.929067   1.000000
   16       -2.671357   1.000000
   17       -2.235152   1.000000
   18       -2.030377   1.000000
   19       -1.859386   1.000000
   20       -1.716754   1.000000
   21       -1.296303   1.000000
   22       -0.853939   1.000000
   23       -0.660441   1.000000
   24       -0.340978   1.000000
   25       -0.025294   1.000000
   26        0.341887   1.000000
   27        0.438340   1.000000
   28        0.716193   1.000000
   29        0.787621   1.000000
   30        0.869744   1.000000
   31        1.249697   1.000000
   32        1.414799   1.000000
   33        1.608723   1.000000
   34        1.757375   1.000000
   35        1.784230   1.000000
   36        1.940398   1.000000
   37        2.223901   1.000000
   38        2.273587   1.000000
   39        2.565114   1.000000
   40        2.662472   1.000000
   41        2.664607   1.000000
   42        3.154666   1.000000
   43        3.208235   1.000000
   44        3.355337   1.000000
   45        3.589382   1.000000
   46        3.592465   1.000000
   47        3.893239   1.000000
   48        4.006416   1.000000
   49        4.132771   1.000000
   50        4.581238   1.000000
   51        4.664077   1.000000
   52        4.838728   1.000000
   53        4.944786   1.000000
   54        5.186390   1.000000
   55        5.341637   1.000000
   56        5.356830   1.000000
   57        5.532068   1.000000
   58        5.947056   1.000000
   59        6.073021   1.000000
   60        6.479905   1.000000
   61        6.681370   1.000000
   62        7.353989   0.999813
   63        7.790426  -0.031466
   64        9.636902   0.000000
   65        9.757284   0.000000
   66       10.127360   0.000000
   67       10.180143   0.000000
   68       10.776073   0.000000
   69       10.802491   0.000000
   70       11.024410   0.000000
   71       11.079087   0.000000
   72       11.444164   0.000000
   73       11.721910   0.000000
   74       11.951664   0.000000
   75       12.074173   0.000000
   76       12.209018   0.000000
   77       12.318055   0.000000
   78       12.374000   0.000000
   79       12.580502   0.000000
   80       12.632781   0.000000
 
  0.2857143E+00  0.1428571E+00  0.3742002E-15  0.3061224E-01
    1      -10.957253   1.000000
    2      -10.674831   1.000000
    3      -10.531397   1.000000
    4       -9.466479   1.000000
    5       -9.336437   1.000000
    6       -8.941616   1.000000
    7       -8.776387   1.000000
    8       -8.574726   1.000000
    9       -8.506724   1.000000
   10       -8.429153   1.000000
   11       -8.382612   1.000000
   12       -8.329130   1.000000
   13       -3.608227   1.000000
   14       -3.094563   1.000000
   15       -2.851478   1.000000
   16       -2.676383   1.000000
   17       -2.321393   1.000000
   18       -2.128534   1.000000
   19       -1.913406   1.000000
   20       -1.843056   1.000000
   21       -1.550187   1.000000
   22       -0.783251   1.000000
   23       -0.674081   1.000000
   24       -0.479715   1.000000
   25        0.102905   1.000000
   26        0.465095   1.000000
   27        0.558393   1.000000
   28        0.636210   1.000000
   29        0.934761   1.000000
   30        0.996872   1.000000
   31        1.316962   1.000000
   32        1.413856   1.000000
   33        1.549717   1.000000
   34        1.672540   1.000000
   35        1.781388   1.000000
   36        1.943332   1.000000
   37        2.158596   1.000000
   38        2.343136   1.000000
   39        2.626701   1.000000
   40        2.651592   1.000000
   41        2.754486   1.000000
   42        3.081566   1.000000
   43        3.103513   1.000000
   44        3.402666   1.000000
   45        3.554066   1.000000
   46        3.768129   1.000000
   47        3.984781   1.000000
   48        4.097390   1.000000
   49        4.153602   1.000000
   50        4.547543   1.000000
   51        4.655858   1.000000
   52        4.849512   1.000000
   53        4.864657   1.000000
   54        5.099696   1.000000
   55        5.257615   1.000000
   56        5.341946   1.000000
   57        5.511755   1.000000
   58        5.737913   1.000000
   59        6.114692   1.000000
   60        6.376941   1.000000
   61        6.716368   1.000000
   62        7.433932   0.996489
   63        7.683375   0.298724
   64        9.842485   0.000000
   65        9.961059   0.000000
   66       10.125081   0.000000
   67       10.240067   0.000000
   68       10.654123   0.000000
   69       10.888456   0.000000
   70       11.172035   0.000000
   71       11.245569   0.000000
   72       11.350231   0.000000
   73       11.721864   0.000000
   74       11.894730   0.000000
   75       12.006491   0.000000
   76       12.117430   0.000000
   77       12.240348   0.000000
   78       12.300821   0.000000
   79       12.519557   0.000000
   80       12.554712   0.000000
 
  0.4285714E+00  0.1428571E+00  0.3742002E-15  0.1530612E-01
    1      -10.882153   1.000000
    2      -10.764429   1.000000
    3      -10.547940   1.000000
    4       -9.447387   1.000000
    5       -9.152260   1.000000
    6       -9.136767   1.000000
    7       -8.718942   1.000000
    8       -8.618513   1.000000
    9       -8.510480   1.000000
   10       -8.424165   1.000000
   11       -8.379363   1.000000
   12       -8.330709   1.000000
   13       -3.410957   1.000000
   14       -3.172821   1.000000
   15       -2.883115   1.000000
   16       -2.702940   1.000000
   17       -2.265383   1.000000
   18       -2.137806   1.000000
   19       -2.012006   1.000000
   20       -1.831915   1.000000
   21       -1.695870   1.000000
   22       -0.751787   1.000000
   23       -0.646056   1.000000
   24       -0.576429   1.000000
   25        0.191884   1.000000
   26        0.408647   1.000000
   27        0.550577   1.000000
   28        0.718934   1.000000
   29        1.044785   1.000000
   30        1.079496   1.000000
   31        1.254317   1.000000
   32        1.456366   1.000000
   33        1.524456   1.000000
   34        1.728512   1.000000
   35        1.730899   1.000000
   36        1.989129   1.000000
   37        2.016195   1.000000
   38        2.373756   1.000000
   39        2.585431   1.000000
   40        2.692757   1.000000
   41        2.825684   1.000000
   42        3.024937   1.000000
   43        3.055323   1.000000
   44        3.389192   1.000000
   45        3.578729   1.000000
   46        3.950417   1.000000
   47        3.956770   1.000000
   48        4.202372   1.000000
   49        4.249967   1.000000
   50        4.493055   1.000000
   51        4.590513   1.000000
   52        4.778366   1.000000
   53        4.927316   1.000000
   54        5.007578   1.000000
   55        5.266595   1.000000
   56        5.344839   1.000000
   57        5.351789   1.000000
   58        5.638276   1.000000
   59        6.270891   1.000000
   60        6.279048   1.000000
   61        6.738195   1.000000
   62        7.496919   1.001265
   63        7.612512   0.945738
   64        9.931942   0.000000
   65        9.980808   0.000000
   66       10.173801   0.000000
   67       10.386046   0.000000
   68       10.517124   0.000000
   69       10.923544   0.000000
   70       11.116734   0.000000
   71       11.299045   0.000000
   72       11.488540   0.000000
   73       11.657877   0.000000
   74       11.859710   0.000000
   75       11.956239   0.000000
   76       12.075389   0.000000
   77       12.261647   0.000000
   78       12.303842   0.000000
   79       12.396924   0.000000
   80       12.463291   0.000000
 
  0.2857143E+00  0.2857143E+00  0.3742002E-15  0.1530612E-01
    1      -10.868132   1.000000
    2      -10.758718   1.000000
    3      -10.580909   1.000000
    4       -9.343603   1.000000
    5       -9.273862   1.000000
    6       -9.117312   1.000000
    7       -8.710563   1.000000
    8       -8.581644   1.000000
    9       -8.544389   1.000000
   10       -8.423480   1.000000
   11       -8.369108   1.000000
   12       -8.343763   1.000000
   13       -3.375566   1.000000
   14       -3.024488   1.000000
   15       -2.968307   1.000000
   16       -2.848446   1.000000
   17       -2.242397   1.000000
   18       -2.143536   1.000000
   19       -1.940752   1.000000
   20       -1.846154   1.000000
   21       -1.726669   1.000000
   22       -0.766932   1.000000
   23       -0.667405   1.000000
   24       -0.592139   1.000000
   25        0.173555   1.000000
   26        0.481647   1.000000
   27        0.518061   1.000000
   28        0.730779   1.000000
   29        1.082602   1.000000
   30        1.102847   1.000000
   31        1.339033   1.000000
   32        1.425336   1.000000
   33        1.445825   1.000000
   34        1.771321   1.000000
   35        1.799320   1.000000
   36        1.889448   1.000000
   37        2.001108   1.000000
   38        2.479307   1.000000
   39        2.522906   1.000000
   40        2.605470   1.000000
   41        2.840106   1.000000
   42        2.941011   1.000000
   43        2.999518   1.000000
   44        3.529596   1.000000
   45        3.543058   1.000000
   46        3.944614   1.000000
   47        4.077493   1.000000
   48        4.197757   1.000000
   49        4.251953   1.000000
   50        4.530804   1.000000
   51        4.713357   1.000000
   52        4.783909   1.000000
   53        4.910317   1.000000
   54        5.061424   1.000000
   55        5.127520   1.000000
   56        5.210230   1.000000
   57        5.335290   1.000000
   58        5.507528   1.000000
   59        6.319679   1.000000
   60        6.400953   1.000000
   61        6.696368   1.000000
   62        7.506800   1.006304
   63        7.598789   1.005886
   64        9.950525   0.000000
   65       10.001995   0.000000
   66       10.193110   0.000000
   67       10.313797   0.000000
   68       10.582973   0.000000
   69       10.879850   0.000000
   70       11.118916   0.000000
   71       11.429846   0.000000
   72       11.444663   0.000000
   73       11.695393   0.000000
   74       11.820166   0.000000
   75       11.872710   0.000000
   76       11.968185   0.000000
   77       12.311767   0.000000
   78       12.336479   0.000000
   79       12.471744   0.000000
   80       12.557197   0.000000
 
  0.3742002E-15  0.3742002E-15  0.1250000E+00  0.5102041E-02
    1      -11.058504   1.000000
    2      -10.388997   1.000000
    3      -10.388997   1.000000
    4       -9.582209   1.000000
    5       -9.582209   1.000000
    6       -9.138803   1.000000
    7       -8.605575   1.000000
    8       -8.605575   1.000000
    9       -8.508573   1.000000
   10       -8.419881   1.000000
   11       -8.419881   1.000000
   12       -8.331791   1.000000
   13       -3.955963   1.000000
   14       -2.929445   1.000000
   15       -2.929445   1.000000
   16       -2.805822   1.000000
   17       -2.011047   1.000000
   18       -1.805093   1.000000
   19       -1.805093   1.000000
   20       -1.384847   1.000000
   21       -0.895482   1.000000
   22       -0.895482   1.000000
   23       -0.549567   1.000000
   24       -0.294858   1.000000
   25       -0.294858   1.000000
   26       -0.158724   1.000000
   27        0.140464   1.000000
   28        0.872250   1.000000
   29        0.872250   1.000000
   30        1.061467   1.000000
   31        1.100193   1.000000
   32        1.570728   1.000000
   33        1.570728   1.000000
   34        1.638123   1.000000
   35        1.839559   1.000000
   36        1.839559   1.000000
   37        2.217130   1.000000
   38        2.217130   1.000000
   39        2.250534   1.000000
   40        2.502227   1.000000
   41        2.502228   1.000000
   42        3.265674   1.000000
   43        3.337514   1.000000
   44        3.337514   1.000000
   45        3.492295   1.000000
   46        3.492295   1.000000
   47        3.943594   1.000000
   48        3.966974   1.000000
   49        4.363602   1.000000
   50        4.363602   1.000000
   51        4.514641   1.000000
   52        4.666154   1.000000
   53        5.114904   1.000000
   54        5.114904   1.000000
   55        5.173141   1.000000
   56        5.584229   1.000000
   57        5.584229   1.000000
   58        6.184808   1.000000
   59        6.184808   1.000000
   60        6.643892   1.000000
   61        6.643892   1.000000
   62        7.353199   0.999820
   63        7.828081  -0.002397
   64        9.497017   0.000000
   65        9.497017   0.000000
   66       10.290167   0.000000
   67       10.290167   0.000000
   68       10.615361   0.000000
   69       10.821008   0.000000
   70       10.821008   0.000000
   71       11.454873   0.000000
   72       11.703125   0.000000
   73       11.703125   0.000000
   74       11.722369   0.000000
   75       12.121416   0.000000
   76       12.236221   0.000000
   77       12.315434   0.000000
   78       12.315439   0.000000
   79       12.625451   0.000000
   80       12.704010   0.000000
 
  0.1428571E+00  0.3608225E-15  0.1250000E+00  0.3061224E-01
    1      -11.035495   1.000000
    2      -10.437584   1.000000
    3      -10.407187   1.000000
    4       -9.558309   1.000000
    5       -9.531988   1.000000
    6       -9.113730   1.000000
    7       -8.658248   1.000000
    8       -8.623574   1.000000
    9       -8.565805   1.000000
   10       -8.422316   1.000000
   11       -8.360229   1.000000
   12       -8.322455   1.000000
   13       -3.893508   1.000000
   14       -2.952064   1.000000
   15       -2.874375   1.000000
   16       -2.754807   1.000000
   17       -2.059295   1.000000
   18       -1.873359   1.000000
   19       -1.805050   1.000000
   20       -1.524725   1.000000
   21       -1.079795   1.000000
   22       -0.863125   1.000000
   23       -0.557402   1.000000
   24       -0.291584   1.000000
   25       -0.184920   1.000000
   26       -0.053075   1.000000
   27        0.249337   1.000000
   28        0.799705   1.000000
   29        0.827758   1.000000
   30        1.084547   1.000000
   31        1.124215   1.000000
   32        1.424835   1.000000
   33        1.602302   1.000000
   34        1.662610   1.000000
   35        1.812630   1.000000
   36        1.924175   1.000000
   37        2.187005   1.000000
   38        2.215910   1.000000
   39        2.394087   1.000000
   40        2.535189   1.000000
   41        2.568007   1.000000
   42        3.189870   1.000000
   43        3.258794   1.000000
   44        3.397240   1.000000
   45        3.495125   1.000000
   46        3.592336   1.000000
   47        3.856651   1.000000
   48        3.957643   1.000000
   49        4.321734   1.000000
   50        4.413311   1.000000
   51        4.601867   1.000000
   52        4.671671   1.000000
   53        5.061583   1.000000
   54        5.151539   1.000000
   55        5.237249   1.000000
   56        5.504429   1.000000
   57        5.568878   1.000000
   58        6.108348   1.000000
   59        6.135569   1.000000
   60        6.556402   1.000000
   61        6.639321   1.000000
   62        7.380611   0.999374
   63        7.801910  -0.020635
   64        9.575575   0.000000
   65        9.622479   0.000000
   66       10.258992   0.000000
   67       10.290775   0.000000
   68       10.694441   0.000000
   69       10.780392   0.000000
   70       10.921893   0.000000
   71       11.284953   0.000000
   72       11.603130   0.000000
   73       11.720180   0.000000
   74       11.864536   0.000000
   75       12.088408   0.000000
   76       12.137468   0.000000
   77       12.364199   0.000000
   78       12.412518   0.000000
   79       12.556561   0.000000
   80       12.652458   0.000000
 
  0.2857143E+00  0.4163336E-15  0.1250000E+00  0.3061224E-01
    1      -10.969466   1.000000
    2      -10.554818   1.000000
    3      -10.443583   1.000000
    4       -9.517262   1.000000
    5       -9.397672   1.000000
    6       -9.040309   1.000000
    7       -8.813903   1.000000
    8       -8.695770   1.000000
    9       -8.584545   1.000000
   10       -8.423650   1.000000
   11       -8.308029   1.000000
   12       -8.302446   1.000000
   13       -3.714254   1.000000
   14       -2.988701   1.000000
   15       -2.740751   1.000000
   16       -2.672340   1.000000
   17       -2.230989   1.000000
   18       -1.995061   1.000000
   19       -1.820739   1.000000
   20       -1.731864   1.000000
   21       -1.383874   1.000000
   22       -0.760299   1.000000
   23       -0.549767   1.000000
   24       -0.362103   1.000000
   25       -0.129256   1.000000
   26        0.233597   1.000000
   27        0.406127   1.000000
   28        0.633654   1.000000
   29        0.803018   1.000000
   30        1.085720   1.000000
   31        1.282276   1.000000
   32        1.308592   1.000000
   33        1.572209   1.000000
   34        1.641847   1.000000
   35        1.784946   1.000000
   36        1.984879   1.000000
   37        2.191323   1.000000
   38        2.239234   1.000000
   39        2.512013   1.000000
   40        2.651568   1.000000
   41        2.705086   1.000000
   42        3.093049   1.000000
   43        3.199897   1.000000
   44        3.379544   1.000000
   45        3.528224   1.000000
   46        3.723515   1.000000
   47        3.863342   1.000000
   48        4.019943   1.000000
   49        4.255746   1.000000
   50        4.505263   1.000000
   51        4.622915   1.000000
   52        4.699814   1.000000
   53        4.930059   1.000000
   54        5.127726   1.000000
   55        5.294295   1.000000
   56        5.444513   1.000000
   57        5.542155   1.000000
   58        5.933749   1.000000
   59        6.012455   1.000000
   60        6.369748   1.000000
   61        6.664188   1.000000
   62        7.450891   0.995362
   63        7.737287  -0.029499
   64        9.756100   0.000000
   65        9.915430   0.000000
   66       10.157628   0.000000
   67       10.297881   0.000000
   68       10.712638   0.000000
   69       10.905798   0.000000
   70       11.035250   0.000000
   71       11.181589   0.000000
   72       11.441708   0.000000
   73       11.672067   0.000000
   74       11.927387   0.000000
   75       12.095123   0.000000
   76       12.175139   0.000000
   77       12.288123   0.000000
   78       12.362124   0.000000
   79       12.446795   0.000000
   80       12.607625   0.000000
 
  0.4285714E+00  0.3608225E-15  0.1250000E+00  0.3061224E-01