 running on   16 total cores
 distrk:  each k-point on   16 cores,    1 groups
 distr:  one band on    4 cores,    4 groups
 using from now: INCAR     
 vasp.5.4.4.18Apr17-6-g9f103f2a35 (build Nov 01 2019 12:17:22) complex          
  
 POSCAR found type information on POSCAR  Si N 
 POSCAR found :  2 types and      28 ions
 WARNING: type information on POSCAR and POTCAR are incompatible
 POTCAR overwrites the type information in POSCAR
 typ   1 type information:  Si N 
 WARNING: type information on POSCAR and POTCAR are incompatible
 POTCAR overwrites the type information in POSCAR
 typ   2 type information:  N  Si
 LDA part: xc-table for Pade appr. of Perdew
 generate k-points for:    7    7    8
 POSCAR, INCAR and KPOINTS ok, starting setup
 FFT: planning ...
 WAVECAR not read
 entering main loop
       N       E                     dE             d eps       ncg     rms          rms(c)
DAV:   1     0.504787909910E+03    0.50479E+03   -0.51549E+04  8320   0.115E+03
DAV:   2    -0.132580614600E+03   -0.63737E+03   -0.61613E+03 10488   0.257E+02
DAV:   3    -0.182637751604E+03   -0.50057E+02   -0.48493E+02 10576   0.694E+01
DAV:   4    -0.184094521466E+03   -0.14568E+01   -0.14254E+01 10568   0.112E+01
DAV:   5    -0.184137503647E+03   -0.42982E-01   -0.42647E-01 10480   0.168E+00    0.393E+01
RMM:   6    -0.162137954535E+03    0.22000E+02   -0.94246E+01  8341   0.249E+01    0.176E+01
RMM:   7    -0.161957496916E+03    0.18046E+00   -0.45840E+00  8995   0.463E+00    0.931E+00
RMM:   8    -0.161825493051E+03    0.13200E+00   -0.64945E-01  8331   0.240E+00    0.138E+00
RMM:   9    -0.161798068062E+03    0.27425E-01   -0.84014E-02  8856   0.741E-01    0.380E-01
RMM:  10    -0.161799126854E+03   -0.10588E-02   -0.27429E-02  9086   0.385E-01    0.263E-01
RMM:  11    -0.161798349238E+03    0.77762E-03   -0.26928E-03  8534   0.140E-01    0.590E-02
RMM:  12    -0.161798354739E+03   -0.55001E-05   -0.38013E-04  5931   0.486E-02
   1 F= -.16179835E+03 E0= -.16179876E+03  d E =-.161798E+03
 curvature:   0.00 expect dE= 0.000E+00 dE for cont linesearch  0.000E+00
 trial: gam= 0.00000 g(F)=  0.655E+01 g(S)=  0.271E+02 ort = 0.000E+00 (trialstep = 0.100E+01)
 search vector abs. value=  0.337E+02
 bond charge predicted
       N       E                     dE             d eps       ncg     rms          rms(c)
DAV:   1    -0.198393903786E+03   -0.36596E+02   -0.10478E+03  8568   0.111E+02    0.369E+01
RMM:   2    -0.169660808676E+03    0.28733E+02   -0.10141E+02  8320   0.282E+01    0.124E+01
RMM:   3    -0.167741119522E+03    0.19197E+01   -0.89124E+00  8571   0.681E+00    0.604E+00
RMM:   4    -0.167071256748E+03    0.66986E+00   -0.12649E+00  8575   0.253E+00    0.246E+00
RMM:   5    -0.166955059226E+03    0.11620E+00   -0.36313E-01  8427   0.134E+00    0.888E-01
RMM:   6    -0.166947533808E+03    0.75254E-02   -0.92723E-02  9043   0.638E-01    0.467E-01
RMM:   7    -0.166947983128E+03   -0.44932E-03   -0.11607E-02  9058   0.215E-01    0.223E-01
RMM:   8    -0.166946547813E+03    0.14353E-02   -0.96749E-03  8476   0.216E-01    0.993E-02
RMM:   9    -0.166946475896E+03    0.71917E-04   -0.41916E-04  6041   0.417E-02
   2 F= -.16694648E+03 E0= -.16694659E+03  d E =-.514812E+01
 trial-energy change:   -5.148121  1 .order   -8.444341  -33.669383   16.780700
 step:   0.5714(harm=  0.6674)  dis= 0.07700  next Energy=  -170.802380 (dE=-0.900E+01)
 bond charge predicted
       N       E                     dE             d eps       ncg     rms          rms(c)
DAV:   1    -0.176792183647E+03   -0.98456E+01   -0.21639E+02  8336   0.549E+01    0.184E+01
RMM:   2    -0.171041597049E+03    0.57506E+01   -0.23149E+01  8320   0.133E+01    0.477E+00
RMM:   3    -0.170710939023E+03    0.33066E+00   -0.17502E+00  8404   0.340E+00    0.204E+00
RMM:   4    -0.170559120511E+03    0.15182E+00   -0.53097E-01  8320   0.179E+00    0.116E+00
RMM:   5    -0.170537391219E+03    0.21729E-01   -0.50507E-02  8654   0.543E-01    0.780E-01
RMM:   6    -0.170539306269E+03   -0.19150E-02   -0.62578E-02  8744   0.578E-01    0.334E-01
RMM:   7    -0.170535365890E+03    0.39404E-02   -0.10760E-02  8334   0.259E-01    0.735E-02
RMM:   8    -0.170535413535E+03   -0.47645E-04   -0.94753E-04  8025   0.709E-02
   3 F= -.17053541E+03 E0= -.17053633E+03  d E =-.873706E+01
 curvature:  -0.31 expect dE=-0.117E+01 dE for cont linesearch -0.112E-01
 ZBRENT: interpolating
 opt :   0.5531  next Energy=  -170.545525 (dE=-0.875E+01)
 bond charge predicted
       N       E                     dE             d eps       ncg     rms          rms(c)
DAV:   1    -0.170552741417E+03   -0.17376E-01   -0.38232E-01  9848   0.229E+00    0.750E-01
RMM:   2    -0.170542880350E+03    0.98611E-02   -0.37365E-02  8320   0.541E-01    0.215E-01
RMM:   3    -0.170542282368E+03    0.59798E-03   -0.30028E-03  8495   0.137E-01    0.873E-02
RMM:   4    -0.170542032800E+03    0.24957E-03   -0.54655E-04  7596   0.585E-02    0.333E-02
RMM:   5    -0.170542012391E+03    0.20410E-04   -0.53143E-05  4999   0.205E-02
   4 F= -.17054201E+03 E0= -.17054281E+03  d E =-.874366E+01
 curvature:  -0.28 expect dE=-0.101E+01 dE for cont linesearch -0.553E-03
 trial: gam= 0.11567 g(F)=  0.297E+01 g(S)=  0.666E+00 ort =-0.260E+00 (trialstep = 0.911E+00)
 search vector abs. value=  0.403E+01
 bond charge predicted
       N       E                     dE             d eps       ncg     rms          rms(c)
DAV:   1    -0.173498958568E+03   -0.29569E+01   -0.17050E+02  8320   0.496E+01    0.417E+00
RMM:   2    -0.173832512551E+03   -0.33355E+00   -0.42785E+00  8349   0.650E+00    0.138E+00
RMM:   3    -0.173838975838E+03   -0.64633E-02   -0.34431E-01  9078   0.120E+00    0.107E+00
RMM:   4    -0.173827612658E+03    0.11363E-01   -0.45458E-02  8590   0.561E-01    0.339E-01
RMM:   5    -0.173827604903E+03    0.77553E-05   -0.40249E-03  9033   0.139E-01    0.180E-01
RMM:   6    -0.173827596477E+03    0.84258E-05   -0.14112E-03  8718   0.906E-02    0.651E-02
RMM:   7    -0.173827564490E+03    0.31988E-04   -0.16325E-04  5237   0.347E-02
   5 F= -.17382756E+03 E0= -.17382752E+03  d E =-.328555E+01
 ZBRENT: can't locate minimum, use default step
 trial-energy change:   -3.285552  1 .order   -3.245510   -3.282721   -3.208299
 step:   3.6425(harm= 40.1678)  dis= 0.36021  next Energy=  -242.942293 (dE=-0.724E+02)
 bond charge predicted
       N       E                     dE             d eps       ncg     rms          rms(c)
DAV:   1    -0.176378693111E+03   -0.25511E+01   -0.14995E+03  8320   0.147E+02    0.249E+01
RMM:   2    -0.181049795594E+03   -0.46711E+01   -0.64167E+01  8325   0.262E+01    0.797E+00
RMM:   3    -0.181050315499E+03   -0.51991E-03   -0.37641E+00  8836   0.413E+00    0.720E+00
RMM:   4    -0.180894289209E+03    0.15603E+00   -0.94834E-01  8583   0.241E+00    0.267E+00
RMM:   5    -0.180881977681E+03    0.12312E-01   -0.79271E-02  8650   0.645E-01    0.156E+00
RMM:   6    -0.180886261873E+03   -0.42842E-02   -0.23486E-02  8613   0.381E-01    0.350E-01
RMM:   7    -0.180886698489E+03   -0.43662E-03   -0.44057E-03  8723   0.143E-01    0.121E-01
RMM:   8    -0.180886996308E+03   -0.29782E-03   -0.80948E-04  6932   0.677E-02    0.460E-02
RMM:   9    -0.180887062172E+03   -0.65864E-04   -0.25853E-04  5405   0.406E-02
   6 F= -.18088706E+03 E0= -.18088696E+03  d E =-.103450E+02
 curvature:  -3.01 expect dE=-0.158E+02 dE for cont linesearch -0.571E+00
 trial: gam= 1.04211 g(F)=  0.336E+01 g(S)=  0.189E+01 ort = 0.873E+00 (trialstep = 0.512E+00)
 search vector abs. value=  0.114E+02
 bond charge predicted
       N       E                     dE             d eps       ncg     rms          rms(c)
DAV:   1    -0.183851270362E+03   -0.29643E+01   -0.10758E+02  9200   0.384E+01    0.819E+00
RMM:   2    -0.183368953167E+03    0.48232E+00   -0.50776E+00  8320   0.744E+00    0.252E+00
RMM:   3    -0.183291923229E+03    0.77030E-01   -0.62662E-01  8612   0.211E+00    0.120E+00
RMM:   4    -0.183268676643E+03    0.23247E-01   -0.65456E-02  8618   0.626E-01    0.734E-01
RMM:   5    -0.183264960690E+03    0.37160E-02   -0.12426E-02  8634   0.288E-01    0.393E-01
RMM:   6    -0.183264557724E+03    0.40297E-03   -0.91854E-03  8379   0.237E-01    0.158E-01
RMM:   7    -0.183264295929E+03    0.26179E-03   -0.93203E-04  8270   0.792E-02    0.204E-02
RMM:   8    -0.183264293449E+03    0.24800E-05   -0.87127E-05  5076   0.241E-02
   7 F= -.18326429E+03 E0= -.18326466E+03  d E =-.237723E+01
 trial-energy change:   -2.377231  1 .order   -2.293344   -3.158506   -1.428181
 step:   0.8029(harm=  0.9354)  dis= 0.15293  next Energy=  -183.684442 (dE=-0.280E+01)
 bond charge predicted
       N       E                     dE             d eps       ncg     rms          rms(c)
DAV:   1    -0.183851771561E+03   -0.58748E+00   -0.34896E+01  9120   0.220E+01    0.459E+00
RMM:   2    -0.183702755167E+03    0.14902E+00   -0.15181E+00  8320   0.421E+00    0.152E+00
RMM:   3    -0.183673817795E+03    0.28937E-01   -0.21519E-01  8530   0.126E+00    0.597E-01
RMM:   4    -0.183666780196E+03    0.70376E-02   -0.18407E-02  8611   0.337E-01    0.369E-01
RMM:   5    -0.183665536027E+03    0.12442E-02   -0.41598E-03  8572   0.167E-01    0.203E-01
RMM:   6    -0.183665451471E+03    0.84556E-04   -0.26820E-03  8349   0.131E-01    0.899E-02
RMM:   7    -0.183665357528E+03    0.93943E-04   -0.29404E-04  5362   0.480E-02
   8 F= -.18366536E+03 E0= -.18366556E+03  d E =-.277830E+01
 curvature:  -0.78 expect dE=-0.190E+01 dE for cont linesearch -0.363E-02
 trial: gam= 0.22058 g(F)=  0.199E+01 g(S)=  0.432E+00 ort =-0.230E+00 (trialstep = 0.571E+00)
 search vector abs. value=  0.287E+01
 bond charge predicted
       N       E                     dE             d eps       ncg     rms          rms(c)
DAV:   1    -0.184688339747E+03   -0.10229E+01   -0.12108E+02  8336   0.425E+01    0.360E+00
RMM:   2    -0.184901016324E+03   -0.21268E+00   -0.31182E+00  8325   0.568E+00    0.150E+00
RMM:   3    -0.184859276674E+03    0.41740E-01   -0.17449E-01  8672   0.110E+00    0.812E-01
RMM:   4    -0.184847162939E+03    0.12114E-01   -0.43753E-02  8454   0.584E-01    0.210E-01
RMM:   5    -0.184847000964E+03    0.16198E-03   -0.35468E-03  8816   0.139E-01    0.826E-02
RMM:   6    -0.184846975162E+03    0.25801E-04   -0.42476E-04  6184   0.548E-02
   9 F= -.18484698E+03 E0= -.18484680E+03  d E =-.118162E+01
 trial-energy change:   -1.181618  1 .order   -1.168182   -1.351364   -0.984999
 step:   1.5342(harm=  2.1044)  dis= 0.13583  next Energy=  -185.743612 (dE=-0.208E+01)
 bond charge predicted
       N       E                     dE             d eps       ncg     rms          rms(c)
DAV:   1    -0.185180253041E+03   -0.33325E+00   -0.34643E+02  8320   0.719E+01    0.717E+00
RMM:   2    -0.185820833602E+03   -0.64058E+00   -0.99901E+00  8321   0.104E+01    0.276E+00
RMM:   3    -0.185671389832E+03    0.14944E+00   -0.55821E-01  8646   0.199E+00    0.156E+00
RMM:   4    -0.185627704793E+03    0.43685E-01   -0.14942E-01  8403   0.108E+00    0.444E-01
RMM:   5    -0.185626603233E+03    0.11016E-02   -0.14050E-02  8665   0.289E-01    0.155E-01
RMM:   6    -0.185626514184E+03    0.89049E-04   -0.13811E-03  8702   0.945E-02    0.608E-02
RMM:   7    -0.185626507878E+03    0.63062E-05   -0.14558E-04  5150   0.346E-02
  10 F= -.18562651E+03 E0= -.18562657E+03  d E =-.196115E+01
 curvature:  -1.10 expect dE=-0.370E+01 dE for cont linesearch -0.362E-01
 trial: gam= 1.28213 g(F)=  0.246E+01 g(S)=  0.899E+00 ort =-0.308E+00 (trialstep = 0.301E+00)
 search vector abs. value=  0.730E+01
 bond charge predicted
       N       E                     dE             d eps       ncg     rms          rms(c)
DAV:   1    -0.186308031189E+03   -0.68152E+00   -0.53672E+01  9056   0.283E+01    0.278E+00
RMM:   2    -0.186325225120E+03   -0.17194E-01   -0.13883E+00  8322   0.369E+00    0.120E+00
RMM:   3    -0.186307441804E+03    0.17783E-01   -0.11694E-01  8709   0.896E-01    0.596E-01
RMM:   4    -0.186301873266E+03    0.55685E-02   -0.15278E-02  8357   0.341E-01    0.217E-01
RMM:   5    -0.186301553639E+03    0.31963E-03   -0.29253E-03  8576   0.140E-01    0.771E-02
RMM:   6    -0.186301530748E+03    0.22892E-04   -0.75406E-04  7537   0.684E-02
  11 F= -.18630153E+03 E0= -.18630173E+03  d E =-.675023E+00
 trial-energy change:   -0.675023  1 .order   -0.670548   -0.892003   -0.449093
 step:   0.5739(harm=  0.6055)  dis= 0.06411  next Energy=  -186.508959 (dE=-0.882E+00)
 bond charge predicted
       N       E                     dE             d eps       ncg     rms          rms(c)
DAV:   1    -0.186540558983E+03   -0.23901E+00   -0.44354E+01  8464   0.257E+01    0.255E+00
RMM:   2    -0.186548659421E+03   -0.81004E-02   -0.11352E+00  8320   0.337E+00    0.106E+00
RMM:   3    -0.186532577036E+03    0.16082E-01   -0.93866E-02  8650   0.815E-01    0.508E-01
RMM:   4    -0.186527984269E+03    0.45928E-02   -0.12226E-02  8346   0.308E-01    0.190E-01
RMM:   5    -0.186527703644E+03    0.28062E-03   -0.24441E-03  8551   0.128E-01    0.698E-02
RMM:   6    -0.186527686548E+03    0.17097E-04   -0.56162E-04  7243   0.600E-02
  12 F= -.18652769E+03 E0= -.18652784E+03  d E =-.901179E+00
 curvature:  -0.74 expect dE=-0.205E+01 dE for cont linesearch -0.166E-02
 trial: gam= 0.30745 g(F)=  0.262E+01 g(S)=  0.156E+00 ort = 0.128E+00 (trialstep = 0.355E+00)
 search vector abs. value=  0.355E+01
 bond charge predicted
       N       E                     dE             d eps       ncg     rms          rms(c)
DAV:   1    -0.187327757572E+03   -0.80005E+00   -0.14461E+01  8544   0.148E+01    0.142E+00
RMM:   2    -0.187363764405E+03   -0.36007E-01   -0.48426E-01  8320   0.236E+00    0.902E-01
RMM:   3    -0.187358127134E+03    0.56373E-02   -0.29153E-02  8577   0.463E-01    0.552E-01
RMM:   4    -0.187356726909E+03    0.14002E-02   -0.54608E-03  8390   0.219E-01    0.177E-01
RMM:   5    -0.187356632012E+03    0.94898E-04   -0.71124E-04  8346   0.750E-02
  13 F= -.18735663E+03 E0= -.18735676E+03  d E =-.828945E+00
 trial-energy change:   -0.828945  1 .order   -0.831353   -1.000777   -0.661930
 step:   1.1618(harm=  1.0494)  dis= 0.14560  next Energy=  -188.079748 (dE=-0.155E+01)
 bond charge predicted
       N       E                     dE             d eps       ncg     rms          rms(c)
DAV:   1    -0.187941105839E+03   -0.58438E+00   -0.73203E+01  8320   0.332E+01    0.319E+00
RMM:   2    -0.188131258999E+03   -0.19015E+00   -0.25466E+00  8320   0.537E+00    0.196E+00
RMM:   3    -0.188103463718E+03    0.27795E-01   -0.14464E-01  8582   0.103E+00    0.125E+00
RMM:   4    -0.188096548392E+03    0.69153E-02   -0.29326E-02  8372   0.501E-01    0.451E-01
RMM:   5    -0.188096114151E+03    0.43424E-03   -0.42503E-03  8450   0.195E-01    0.647E-02
RMM:   6    -0.188096090753E+03    0.23397E-04   -0.26322E-04  5565   0.421E-02
  14 F= -.18809609E+03 E0= -.18809568E+03  d E =-.156840E+01
 curvature:  -0.64 expect dE=-0.157E+01 dE for cont linesearch -0.237E-03
 trial: gam= 0.88211 g(F)=  0.133E+01 g(S)=  0.110E+01 ort = 0.362E-01 (trialstep = 0.348E+00)
 search vector abs. value=  0.526E+01
 bond charge predicted
       N       E                     dE             d eps       ncg     rms          rms(c)
DAV:   1    -0.188794923307E+03   -0.69881E+00   -0.46355E+01  8432   0.270E+01    0.260E+00
RMM:   2    -0.188818058919E+03   -0.23136E-01   -0.11852E+00  8320   0.352E+00    0.997E-01
RMM:   3    -0.188809610158E+03    0.84488E-02   -0.72593E-02  8646   0.735E-01    0.508E-01
RMM:   4    -0.188805860878E+03    0.37493E-02   -0.11941E-02  8321   0.303E-01    0.156E-01
RMM:   5    -0.188805712511E+03    0.14837E-03   -0.10975E-03  8559   0.889E-02    0.821E-02
RMM:   6    -0.188805708870E+03    0.36411E-05   -0.35936E-04  6241   0.473E-02
  15 F= -.18880571E+03 E0= -.18880548E+03  d E =-.709618E+00
 trial-energy change:   -0.709618  1 .order   -0.706090   -0.859429   -0.552751
 step:   0.8829(harm=  0.9764)  dis= 0.10990  next Energy=  -189.242423 (dE=-0.115E+01)
 bond charge predicted
       N       E                     dE             d eps       ncg     rms          rms(c)
DAV:   1    -0.189234053902E+03   -0.42834E+00   -0.10987E+02  8336   0.418E+01    0.427E+00
RMM:   2    -0.189282124648E+03   -0.48071E-01   -0.28951E+00  8320   0.558E+00    0.157E+00
RMM:   3    -0.189258798683E+03    0.23326E-01   -0.16382E-01  8610   0.113E+00    0.821E-01
RMM:   4    -0.189249155057E+03    0.96436E-02   -0.31424E-02  8320   0.496E-01    0.246E-01
RMM:   5    -0.189248770653E+03    0.38440E-03   -0.24261E-03  8567   0.133E-01    0.134E-01
RMM:   6    -0.189248759951E+03    0.10702E-04   -0.86951E-04  7884   0.731E-02
  16 F= -.18924876E+03 E0= -.18924878E+03  d E =-.115267E+01
 curvature:  -1.02 expect dE=-0.148E+01 dE for cont linesearch -0.146E-03
 trial: gam= 0.48191 g(F)=  0.111E+01 g(S)=  0.344E+00 ort = 0.275E-01 (trialstep = 0.455E+00)
 search vector abs. value=  0.270E+01
 bond charge predicted
       N       E                     dE             d eps       ncg     rms          rms(c)
DAV:   1    -0.189686356459E+03   -0.43759E+00   -0.83768E+01  8448   0.361E+01    0.239E+00
RMM:   2    -0.189819244123E+03   -0.13289E+00   -0.18258E+00  8320   0.431E+00    0.102E+00
RMM:   3    -0.189798234419E+03    0.21010E-01   -0.79361E-02  8554   0.806E-01    0.606E-01
RMM:   4    -0.189789844472E+03    0.83899E-02   -0.23858E-02  8320   0.449E-01    0.154E-01
RMM:   5    -0.189789838534E+03    0.59380E-05   -0.17439E-03  8615   0.105E-01    0.655E-02
RMM:   6    -0.189789828244E+03    0.10290E-04   -0.10523E-04  5091   0.337E-02
  17 F= -.18978983E+03 E0= -.18979011E+03  d E =-.541068E+00
 trial-energy change:   -0.541068  1 .order   -0.539595   -0.667607   -0.411583
 step:   1.1295(harm=  1.1872)  dis= 0.10501  next Energy=  -190.099338 (dE=-0.851E+00)
 bond charge predicted
       N       E                     dE             d eps       ncg     rms          rms(c)
DAV:   1    -0.189867846324E+03   -0.78008E-01   -0.18352E+02  8320   0.533E+01    0.372E+00
RMM:   2    -0.190180312089E+03   -0.31247E+00   -0.41401E+00  8320   0.656E+00    0.160E+00
RMM:   3    -0.190130069026E+03    0.50243E-01   -0.17287E-01  8510   0.120E+00    0.984E-01
RMM:   4    -0.190109620581E+03    0.20448E-01   -0.57491E-02  8320   0.691E-01    0.263E-01
RMM:   5    -0.190109383616E+03    0.23696E-03   -0.46940E-03  8539   0.175E-01    0.972E-02
RMM:   6    -0.190109386984E+03   -0.33679E-05   -0.26050E-04  5505   0.483E-02
  18 F= -.19010939E+03 E0= -.19010959E+03  d E =-.860627E+00
 curvature:  -1.09 expect dE=-0.989E+00 dE for cont linesearch -0.269E-03
 trial: gam= 0.56430 g(F)=  0.648E+00 g(S)=  0.262E+00 ort = 0.259E-01 (trialstep = 0.590E+00)
 search vector abs. value=  0.180E+01
 bond charge predicted
       N       E                     dE             d eps       ncg     rms          rms(c)
DAV:   1    -0.190431394230E+03   -0.32201E+00   -0.69888E+01  8416   0.325E+01    0.244E+00
RMM:   2    -0.190482115270E+03   -0.50721E-01   -0.13604E+00  8320   0.369E+00    0.134E+00
RMM:   3    -0.190465479606E+03    0.16636E-01   -0.86935E-02  8442   0.870E-01    0.731E-01
RMM:   4    -0.190460143817E+03    0.53358E-02   -0.13100E-02  8325   0.331E-01    0.243E-01
RMM:   5    -0.190459898169E+03    0.24565E-03   -0.23583E-03  8474   0.133E-01    0.725E-02
RMM:   6    -0.190459854215E+03    0.43953E-04   -0.43607E-04  6691   0.528E-02
  19 F= -.19045985E+03 E0= -.19045983E+03  d E =-.350467E+00
 trial-energy change:   -0.350467  1 .order   -0.351750   -0.545661   -0.157839
 step:   0.8373(harm=  0.8303)  dis= 0.05360  next Energy=  -190.492810 (dE=-0.383E+00)
 bond charge predicted
       N       E                     dE             d eps       ncg     rms          rms(c)
DAV:   1    -0.190492223408E+03   -0.32325E-01   -0.12277E+01  9056   0.136E+01    0.103E+00
RMM:   2    -0.190499465490E+03   -0.72421E-02   -0.24355E-01  8320   0.155E+00    0.519E-01
RMM:   3    -0.190496801119E+03    0.26644E-02   -0.15235E-02  8478   0.362E-01    0.268E-01
RMM:   4    -0.190495926196E+03    0.87492E-03   -0.24605E-03  8320   0.142E-01    0.829E-02
RMM:   5    -0.190495894695E+03    0.31501E-04   -0.30538E-04  5511   0.500E-02
  20 F= -.19049589E+03 E0= -.19049577E+03  d E =-.386508E+00
 curvature:  -0.81 expect dE=-0.609E+00 dE for cont linesearch -0.148E-03
 trial: gam= 0.87253 g(F)=  0.506E+00 g(S)=  0.249E+00 ort = 0.182E-01 (trialstep = 0.534E+00)
 search vector abs. value=  0.216E+01
 bond charge predicted
       N       E                     dE             d eps       ncg     rms          rms(c)
DAV:   1    -0.190767111076E+03   -0.27118E+00   -0.85633E+01  8320   0.360E+01    0.190E+00
RMM:   2    -0.190887000469E+03   -0.11989E+00   -0.15700E+00  8320   0.389E+00    0.888E-01
RMM:   3    -0.190876452456E+03    0.10548E-01   -0.64854E-02  8616   0.720E-01    0.593E-01
RMM:   4    -0.190870274385E+03    0.61781E-02   -0.33474E-02  8320   0.505E-01    0.132E-01
RMM:   5    -0.190870006588E+03    0.26780E-03   -0.13569E-03  8438   0.947E-02    0.709E-02
RMM:   6    -0.190870003668E+03    0.29195E-05   -0.21358E-04  5141   0.404E-02
  21 F= -.19087000E+03 E0= -.19087019E+03  d E =-.374109E+00
 trial-energy change:   -0.374109  1 .order   -0.371107   -0.411223   -0.330992
 step:   1.7898(harm=  2.7354)  dis= 0.16177  next Energy=  -191.298666 (dE=-0.803E+00)
 bond charge predicted
       N       E                     dE             d eps       ncg     rms          rms(c)
DAV:   1    -0.190659348602E+03    0.21066E+00   -0.46799E+02  8320   0.841E+01    0.635E+00
RMM:   2    -0.191513722061E+03   -0.85437E+00   -0.11464E+01  8320   0.109E+01    0.249E+00
RMM:   3    -0.191431356373E+03    0.82366E-01   -0.39281E-01  8577   0.182E+00    0.195E+00
RMM:   4    -0.191382758783E+03    0.48598E-01   -0.24450E-01  8320   0.134E+00    0.559E-01
RMM:   5    -0.191379855055E+03    0.29037E-02   -0.18231E-02  8331   0.356E-01    0.291E-01
RMM:   6    -0.191380018920E+03   -0.16387E-03   -0.15516E-03  8744   0.968E-02    0.136E-01
RMM:   7    -0.191380010258E+03    0.86620E-05   -0.15558E-03  8313   0.101E-01    0.448E-02
RMM:   8    -0.191379955414E+03    0.54844E-04   -0.11851E-04  5077   0.319E-02
  22 F= -.19137996E+03 E0= -.19137963E+03  d E =-.884061E+00
 curvature:  -3.12 expect dE=-0.492E+01 dE for cont linesearch -0.446E-01
 ZBRENT: extrapolating
 opt :   2.2859  next Energy=  -191.423508 (dE=-0.928E+00)
 bond charge predicted
       N       E                     dE             d eps       ncg     rms          rms(c)
DAV:   1    -0.191335750296E+03    0.44260E-01   -0.74603E+01  8576   0.336E+01    0.180E+00
RMM:   2    -0.191432583769E+03   -0.96833E-01   -0.13173E+00  8320   0.360E+00    0.847E-01
RMM:   3    -0.191422864856E+03    0.97189E-02   -0.55300E-02  8605   0.674E-01    0.575E-01
RMM:   4    -0.191417491586E+03    0.53733E-02   -0.28764E-02  8320   0.464E-01    0.126E-01
RMM:   5    -0.191417319213E+03    0.17237E-03   -0.12481E-03  8450   0.909E-02    0.691E-02
RMM:   6    -0.191417329303E+03   -0.10091E-04   -0.17903E-04  5096   0.375E-02
  23 F= -.19141733E+03 E0= -.19141751E+03  d E =-.921435E+00
 curvature:  -3.05 expect dE=-0.799E+01 dE for cont linesearch -0.117E-02
 trial: gam= 3.44228 g(F)=  0.250E+01 g(S)=  0.125E+00 ort =-0.287E-01 (trialstep = 0.681E-01)
 search vector abs. value=  0.280E+02
 bond charge predicted
       N       E                     dE             d eps       ncg     rms          rms(c)
DAV:   1    -0.191562481110E+03   -0.14516E+00   -0.18154E+01  9008   0.166E+01    0.772E-01
RMM:   2    -0.191586027906E+03   -0.23547E-01   -0.29219E-01  8321   0.168E+00    0.382E-01
RMM:   3    -0.191583946859E+03    0.20810E-02   -0.12419E-02  8666   0.312E-01    0.254E-01
RMM:   4    -0.191582716754E+03    0.12301E-02   -0.58825E-03  8320   0.216E-01    0.531E-02
RMM:   5    -0.191582700542E+03    0.16213E-04   -0.16529E-04  5281   0.352E-02
  24 F= -.19158270E+03 E0= -.19158304E+03  d E =-.165371E+00
 ZBRENT: can't locate minimum, use default step
 trial-energy change:   -0.165371  1 .order   -0.164654   -0.172006   -0.157303
 step:   0.2726(harm=  0.7972)  dis= 0.08973  next Energy=  -192.423421 (dE=-0.101E+01)
 bond charge predicted
       N       E                     dE             d eps       ncg     rms          rms(c)
DAV:   1    -0.191765830457E+03   -0.18311E+00   -0.16219E+02  8320   0.496E+01    0.300E+00
RMM:   2    -0.192013486988E+03   -0.24766E+00   -0.31215E+00  8320   0.565E+00    0.128E+00
RMM:   3    -0.191992036792E+03    0.21450E-01   -0.11673E-01  8643   0.982E-01    0.987E-01
RMM:   4    -0.191978048557E+03    0.13988E-01   -0.58695E-02  8320   0.672E-01    0.263E-01
RMM:   5    -0.191977742533E+03    0.30602E-03   -0.37923E-03  8425   0.160E-01    0.125E-01
RMM:   6    -0.191977804334E+03   -0.61801E-04   -0.26350E-04  5596   0.431E-02
  25 F= -.19197780E+03 E0= -.19197853E+03  d E =-.560475E+00
 curvature:  -2.13 expect dE=-0.360E+01 dE for cont linesearch -0.171E+00
 ZBRENT: increasing intervall
 opt :   0.6815  next Energy=  -192.260339 (dE=-0.843E+00)
 bond charge predicted
       N       E                     dE             d eps       ncg     rms          rms(c)
DAV:   1    -0.190924374979E+03    0.10534E+01   -0.63086E+02  8320   0.979E+01    0.945E+00
RMM:   2    -0.192373282621E+03   -0.14489E+01   -0.18386E+01  8320   0.141E+01    0.347E+00
RMM:   3    -0.192252905271E+03    0.12038E+00   -0.57347E-01  8640   0.221E+00    0.302E+00
RMM:   4    -0.192177771441E+03    0.75134E-01   -0.32102E-01  8320   0.154E+00    0.111E+00
RMM:   5    -0.192173963854E+03    0.38076E-02   -0.31320E-02  8355   0.471E-01    0.591E-01
RMM:   6    -0.192173140295E+03    0.82356E-03   -0.51794E-03  8414   0.186E-01    0.161E-01
RMM:   7    -0.192173234105E+03   -0.93809E-04   -0.25130E-03  8334   0.122E-01    0.620E-02
RMM:   8    -0.192173132322E+03    0.10178E-03   -0.29534E-04  5478   0.487E-02    0.181E-02
RMM:   9    -0.192173136869E+03   -0.45477E-05   -0.32027E-05  5041   0.184E-02
  26 F= -.19217314E+03 E0= -.19217283E+03  d E =-.755808E+00
 curvature:  -3.51 expect dE=-0.665E+01 dE for cont linesearch -0.562E-01
 ZBRENT: bracketing found
 ZBRENT: interpolating
 opt :   0.5554  next Energy=  -192.215289 (dE=-0.798E+00)
 bond charge predicted
       N       E                     dE             d eps       ncg     rms          rms(c)
DAV:   1    -0.192135733410E+03    0.37399E-01   -0.62289E+01  8320   0.307E+01    0.143E+00
RMM:   2    -0.192220255104E+03   -0.84522E-01   -0.10157E+00  8320   0.317E+00    0.739E-01
RMM:   3    -0.192212721127E+03    0.75340E-02   -0.43684E-02  8689   0.589E-01    0.469E-01
RMM:   4    -0.192208680126E+03    0.40410E-02   -0.18951E-02  8323   0.393E-01    0.936E-02
RMM:   5    -0.192208675657E+03    0.44688E-05   -0.61223E-04  6627   0.604E-02
  27 F= -.19220868E+03 E0= -.19220828E+03  d E =-.791346E+00
 curvature:  -2.64 expect dE=-0.413E+01 dE for cont linesearch -0.834E-03
 trial: gam= 0.18173 g(F)=  0.143E+01 g(S)=  0.134E+00 ort = 0.940E-01 (trialstep = 0.166E+00)
 search vector abs. value=  0.252E+01
 bond charge predicted
       N       E                     dE             d eps       ncg     rms          rms(c)
DAV:   1    -0.192428942240E+03   -0.22026E+00   -0.48694E+00  8976   0.857E+00    0.743E-01
RMM:   2    -0.192437620644E+03   -0.86784E-02   -0.13588E-01  8320   0.119E+00    0.387E-01
RMM:   3    -0.192435803111E+03    0.18175E-02   -0.60680E-03  8432   0.234E-01    0.217E-01
RMM:   4    -0.192435250728E+03    0.55238E-03   -0.22141E-03  8320   0.133E-01    0.395E-02
RMM:   5    -0.192435240640E+03    0.10088E-04   -0.68031E-05  5042   0.239E-02
  28 F= -.19243524E+03 E0= -.19243489E+03  d E =-.226565E+00
 trial-energy change:   -0.226565  1 .order   -0.226731   -0.262113   -0.191349
 step:   0.6134(harm=  0.6134)  dis= 0.05155  next Energy=  -192.694114 (dE=-0.485E+00)
 bond charge predicted
       N       E                     dE             d eps       ncg     rms          rms(c)
DAV:   1    -0.192664708635E+03   -0.22946E+00   -0.35323E+01  8320   0.231E+01    0.195E+00
RMM:   2    -0.192733232883E+03   -0.68524E-01   -0.99797E-01  8320   0.321E+00    0.104E+00
RMM:   3    -0.192721170794E+03    0.12062E-01   -0.43415E-02  8438   0.621E-01    0.617E-01
RMM:   4    -0.192716938156E+03    0.42326E-02   -0.16363E-02  8321   0.363E-01    0.121E-01
RMM:   5    -0.192716912174E+03    0.25983E-04   -0.82471E-04  7424   0.717E-02
  29 F= -.19271691E+03 E0= -.19271655E+03  d E =-.508237E+00
 curvature:  -0.49 expect dE=-0.297E+00 dE for cont linesearch -0.301E-02
 ZBRENT: extrapolating
 opt :   0.6675  next Energy=  -192.720283 (dE=-0.512E+00)
 bond charge predicted
       N       E                     dE             d eps       ncg     rms          rms(c)
DAV:   1    -0.192719890598E+03   -0.29524E-02   -0.51846E-01  9176   0.280E+00    0.242E-01
RMM:   2    -0.192720925177E+03   -0.10346E-02   -0.14876E-02  8320   0.391E-01    0.118E-01
RMM:   3    -0.192720759815E+03    0.16536E-03   -0.65742E-04  7448   0.772E-02    0.638E-02
RMM:   4    -0.192720711728E+03    0.48087E-04   -0.19187E-04  5033   0.432E-02
  30 F= -.19272071E+03 E0= -.19272033E+03  d E =-.512036E+00
 curvature:  -0.55 expect dE=-0.373E+00 dE for cont linesearch -0.454E-04
 trial: gam= 0.40161 g(F)=  0.604E+00 g(S)=  0.758E-01 ort = 0.145E-01 (trialstep = 0.266E+00)
 search vector abs. value=  0.110E+01
 bond charge predicted
       N       E                     dE             d eps       ncg     rms          rms(c)
DAV:   1    -0.192884764687E+03   -0.16400E+00   -0.23060E+00  8432   0.594E+00    0.508E-01
RMM:   2    -0.192886747444E+03   -0.19828E-02   -0.56952E-02  8321   0.803E-01    0.244E-01
RMM:   3    -0.192886417416E+03    0.33003E-03   -0.26506E-03  8573   0.147E-01    0.146E-01
RMM:   4    -0.192886334885E+03    0.82530E-04   -0.91902E-04  8280   0.866E-02
  31 F= -.19288633E+03 E0= -.19288593E+03  d E =-.165623E+00
 ZBRENT: can't locate minimum, use default step
 trial-energy change:   -0.165623  1 .order   -0.165592   -0.182434   -0.148750
 step:   1.0639(harm=  1.4405)  dis= 0.08186  next Energy=  -193.214753 (dE=-0.494E+00)
 bond charge predicted
       N       E                     dE             d eps       ncg     rms          rms(c)
DAV:   1    -0.193142904086E+03   -0.25649E+00   -0.20835E+01  8320   0.179E+01    0.161E+00
RMM:   2    -0.193165488675E+03   -0.22585E-01   -0.55210E-01  8320   0.251E+00    0.758E-01
RMM:   3    -0.193161545082E+03    0.39436E-02   -0.24984E-02  8510   0.457E-01    0.442E-01
RMM:   4    -0.193160641756E+03    0.90333E-03   -0.90018E-03  8323   0.271E-01    0.122E-01
RMM:   5    -0.193160540586E+03    0.10117E-03   -0.80059E-04  7917   0.730E-02    0.455E-02
RMM:   6    -0.193160546296E+03   -0.57099E-05   -0.88704E-05  5045   0.277E-02
  32 F= -.19316055E+03 E0= -.19316050E+03  d E =-.439835E+00
 curvature:  -1.04 expect dE=-0.549E+00 dE for cont linesearch -0.117E-01
 ZBRENT: extrapolating
 opt :   1.2625  next Energy=  -193.171618 (dE=-0.451E+00)
 bond charge predicted
       N       E                     dE             d eps       ncg     rms          rms(c)
DAV:   1    -0.193169049998E+03   -0.85094E-02   -0.13030E+00  9152   0.448E+00    0.401E-01
RMM:   2    -0.193170619308E+03   -0.15693E-02   -0.34630E-02  8320   0.629E-01    0.203E-01
RMM:   3    -0.193170347834E+03    0.27147E-03   -0.16920E-03  8487   0.118E-01    0.121E-01
RMM:   4    -0.193170290185E+03    0.57650E-04   -0.51391E-04  7330   0.659E-02
  33 F= -.19317029E+03 E0= -.19317018E+03  d E =-.449578E+00
 curvature:  -0.98 expect dE=-0.708E+00 dE for cont linesearch -0.186E-03
 trial: gam= 1.02039 g(F)=  0.491E+00 g(S)=  0.233E+00 ort =-0.144E-01 (trialstep = 0.278E+00)
 search vector abs. value=  0.184E+01
 bond charge predicted
       N       E                     dE             d eps       ncg     rms          rms(c)
DAV:   1    -0.193347221156E+03   -0.17687E+00   -0.86349E+00  8320   0.115E+01    0.969E-01
RMM:   2    -0.193354199194E+03   -0.69780E-02   -0.21385E-01  8320   0.152E+00    0.434E-01
RMM:   3    -0.193350816153E+03    0.33830E-02   -0.12684E-02  8413   0.329E-01    0.221E-01
RMM:   4    -0.193350009255E+03    0.80690E-03   -0.25277E-03  8330   0.144E-01    0.747E-02
RMM:   5    -0.193350008856E+03    0.39845E-06   -0.28065E-04  5444   0.480E-02
  34 F= -.19335001E+03 E0= -.19334962E+03  d E =-.179719E+00
 ZBRENT: can't locate minimum, use default step
 trial-energy change:   -0.179719  1 .order   -0.179289   -0.197107   -0.161470
 step:   1.1127(harm=  1.5385)  dis= 0.08926  next Energy=  -193.644332 (dE=-0.474E+00)
 bond charge predicted
       N       E                     dE             d eps       ncg     rms          rms(c)
DAV:   1    -0.193630823709E+03   -0.28081E+00   -0.76957E+01  8320   0.342E+01    0.291E+00
RMM:   2    -0.193699982461E+03   -0.69159E-01   -0.18891E+00  8320   0.455E+00    0.135E+00
RMM:   3    -0.193667977968E+03    0.32004E-01   -0.12011E-01  8399   0.100E+00    0.682E-01
RMM:   4    -0.193660838681E+03    0.71393E-02   -0.20755E-02  8335   0.413E-01    0.249E-01
RMM:   5    -0.193660728147E+03    0.11053E-03   -0.35806E-03  8438   0.163E-01    0.873E-02
RMM:   6    -0.193660716927E+03    0.11220E-04   -0.24285E-04  5518   0.444E-02
  35 F= -.19366072E+03 E0= -.19366087E+03  d E =-.490427E+00
 curvature:  -1.77 expect dE=-0.161E+01 dE for cont linesearch -0.193E-01
 trial: gam= 0.83292 g(F)=  0.873E+00 g(S)=  0.387E-01 ort = 0.142E+00 (trialstep = 0.338E+00)
 search vector abs. value=  0.242E+01
 bond charge predicted
       N       E                     dE             d eps       ncg     rms          rms(c)
DAV:   1    -0.193994734606E+03   -0.33401E+00   -0.25548E+01  8624   0.198E+01    0.158E+00
RMM:   2    -0.194010357576E+03   -0.15623E-01   -0.56582E-01  8320   0.242E+00    0.685E-01
RMM:   3    -0.194001176284E+03    0.91813E-02   -0.33773E-02  8418   0.536E-01    0.347E-01
RMM:   4    -0.193998550429E+03    0.26259E-02   -0.70907E-03  8321   0.240E-01    0.108E-01
RMM:   5    -0.193998521669E+03    0.28760E-04   -0.93780E-04  8513   0.803E-02
  36 F= -.19399852E+03 E0= -.19399877E+03  d E =-.337805E+00
 ZBRENT: can't locate minimum, use default step
 trial-energy change:   -0.337805  1 .order   -0.336294   -0.347710   -0.324878
 step:   1.3503(harm=  5.1408)  dis= 0.09830  next Energy=  -196.308281 (dE=-0.265E+01)
 bond charge predicted
       N       E                     dE             d eps       ncg     rms          rms(c)
DAV:   1    -0.194757744547E+03   -0.75919E+00   -0.22692E+02  8320   0.588E+01    0.478E+00
RMM:   2    -0.194972116261E+03   -0.21437E+00   -0.50801E+00  8320   0.737E+00    0.226E+00
RMM:   3    -0.194884098612E+03    0.88018E-01   -0.30930E-01  8432   0.160E+00    0.124E+00
RMM:   4    -0.194857888363E+03    0.26210E-01   -0.67356E-02  8320   0.740E-01    0.409E-01
RMM:   5    -0.194856896009E+03    0.99235E-03   -0.10960E-02  8366   0.281E-01    0.127E-01
RMM:   6    -0.194856890373E+03    0.56354E-05   -0.75733E-04  6857   0.702E-02
  37 F= -.19485689E+03 E0= -.19485736E+03  d E =-.119617E+01
 curvature:  -2.28 expect dE=-0.263E+01 dE for cont linesearch -0.469E+00
 ZBRENT: increasing intervall
 opt :   3.3758  next Energy=  -195.768339 (dE=-0.211E+01)
 bond charge predicted
       N       E                     dE             d eps       ncg     rms          rms(c)
DAV:   1    -0.194584058474E+03    0.27284E+00   -0.87221E+02  8320   0.114E+02    0.114E+01
RMM:   2    -0.196219890637E+03   -0.16358E+01   -0.24616E+01  8320   0.166E+01    0.546E+00
RMM:   3    -0.195832120719E+03    0.38777E+00   -0.11570E+00  8534   0.302E+00    0.370E+00
RMM:   4    -0.195673699874E+03    0.15842E+00   -0.52684E-01  8320   0.200E+00    0.116E+00
RMM:   5    -0.195664644238E+03    0.90556E-02   -0.54444E-02  8325   0.628E-01    0.267E-01
RMM:   6    -0.195664987518E+03   -0.34328E-03   -0.40696E-03  8940   0.165E-01    0.144E-01
RMM:   7    -0.195664983076E+03    0.44420E-05   -0.12117E-03  8281   0.961E-02    0.371E-02
RMM:   8    -0.195664966300E+03    0.16776E-04   -0.19865E-04  5105   0.389E-02
  38 F= -.19566497E+03 E0= -.19566539E+03  d E =-.200425E+01
 curvature:  -4.43 expect dE=-0.175E+02 dE for cont linesearch -0.973E-03
 trial: gam= 4.34206 g(F)=  0.218E+01 g(S)=  0.177E+01 ort =-0.231E-01 (trialstep = 0.463E-01)
 search vector abs. value=  0.494E+02
 bond charge predicted
       N       E                     dE             d eps       ncg     rms          rms(c)
DAV:   1    -0.195826924229E+03   -0.16194E+00   -0.90085E+00  9152   0.118E+01    0.698E-01
RMM:   2    -0.195839787922E+03   -0.12864E-01   -0.17707E-01  8320   0.130E+00    0.309E-01
RMM:   3    -0.195838383073E+03    0.14048E-02   -0.86091E-03  8695   0.262E-01    0.195E-01
RMM:   4    -0.195837740619E+03    0.64245E-03   -0.33624E-03  8320   0.163E-01    0.431E-02
RMM:   5    -0.195837730595E+03    0.10024E-04   -0.93741E-05  5049   0.290E-02
  39 F= -.19583773E+03 E0= -.19583818E+03  d E =-.172764E+00
 ZBRENT: can't locate minimum, use default step
 trial-energy change:   -0.172764  1 .order   -0.172315   -0.178330   -0.166300
 step:   0.1853(harm=  0.6869)  dis= 0.06644  next Energy=  -196.986776 (dE=-0.132E+01)
 bond charge predicted
       N       E                     dE             d eps       ncg     rms          rms(c)
DAV:   1    -0.196185129866E+03   -0.34739E+00   -0.81004E+01  8320   0.353E+01    0.211E+00
RMM:   2    -0.196297774827E+03   -0.11264E+00   -0.15279E+00  8320   0.387E+00    0.930E-01
RMM:   3    -0.196284332821E+03    0.13442E-01   -0.74562E-02  8641   0.775E-01    0.570E-01
RMM:   4    -0.196278693690E+03    0.56391E-02   -0.29033E-02  8320   0.480E-01    0.128E-01
RMM:   5    -0.196278691661E+03    0.20284E-05   -0.10717E-03  8388   0.864E-02    0.632E-02
RMM:   6    -0.196278702424E+03   -0.10763E-04   -0.94853E-05  5049   0.330E-02
  40 F= -.19627870E+03 E0= -.19627922E+03  d E =-.613736E+00
 curvature:  -1.71 expect dE=-0.608E+01 dE for cont linesearch -0.249E+00
 ZBRENT: increasing intervall
 opt :   0.4633  next Energy=  -196.773354 (dE=-0.111E+01)
 bond charge predicted
       N       E                     dE             d eps       ncg     rms          rms(c)
DAV:   1    -0.196314341974E+03   -0.35650E-01   -0.32131E+02  8320   0.701E+01    0.474E+00
RMM:   2    -0.196814768352E+03   -0.50043E+00   -0.65503E+00  8320   0.817E+00    0.199E+00
RMM:   3    -0.196756366849E+03    0.58402E-01   -0.30080E-01  8667   0.155E+00    0.133E+00
RMM:   4    -0.196728164662E+03    0.28202E-01   -0.14108E-01  8320   0.105E+00    0.321E-01
RMM:   5    -0.196727776544E+03    0.38812E-03   -0.65174E-03  8428   0.220E-01    0.139E-01
RMM:   6    -0.196727908051E+03   -0.13151E-03   -0.55803E-04  6539   0.693E-02    0.549E-02
RMM:   7    -0.196727916005E+03   -0.79538E-05   -0.21385E-04  5161   0.440E-02
  41 F= -.19672792E+03 E0= -.19672853E+03  d E =-.106295E+01
 curvature:  -3.39 expect dE=-0.112E+02 dE for cont linesearch -0.117E-01
 trial: gam= 0.00878 g(F)=  0.184E+01 g(S)=  0.146E+01 ort = 0.413E+00 (trialstep = 0.130E+00)
 search vector abs. value=  0.330E+01
 bond charge predicted
       N       E                     dE             d eps       ncg     rms          rms(c)
DAV:   1    -0.197136607110E+03   -0.40870E+00   -0.37960E+00  9208   0.747E+00    0.107E+00
RMM:   2    -0.197126081646E+03    0.10525E-01   -0.14268E-01  8320   0.122E+00    0.470E-01
RMM:   3    -0.197122182589E+03    0.38991E-02   -0.14128E-02  8324   0.328E-01    0.206E-01
RMM:   4    -0.197121331261E+03    0.85133E-03   -0.17569E-03  8334   0.120E-01    0.710E-02
RMM:   5    -0.197121265843E+03    0.65418E-04   -0.28167E-04  5250   0.488E-02
  42 F= -.19712127E+03 E0= -.19712186E+03  d E =-.393350E+00
 ZBRENT: can't locate minimum, use default step
 trial-energy change:   -0.393350  1 .order   -0.393410   -0.427644   -0.359175
 step:   0.5189(harm=  0.8103)  dis= 0.03400  next Energy=  -198.063406 (dE=-0.134E+01)
 bond charge predicted
       N       E                     dE             d eps       ncg     rms          rms(c)
DAV:   1    -0.198004713971E+03   -0.88338E+00   -0.34629E+01  8536   0.227E+01    0.337E+00
RMM:   2    -0.197907479957E+03    0.97234E-01   -0.13361E+00  8320   0.374E+00    0.143E+00
RMM:   3    -0.197871203958E+03    0.36276E-01   -0.12546E-01  8323   0.992E-01    0.620E-01
RMM:   4    -0.197863246102E+03    0.79579E-02   -0.16710E-02  8329   0.372E-01    0.200E-01
RMM:   5    -0.197862727598E+03    0.51850E-03   -0.25793E-03  8466   0.139E-01    0.895E-02
RMM:   6    -0.197862709409E+03    0.18189E-04   -0.42424E-04  6632   0.556E-02
  43 F= -.19786271E+03 E0= -.19786326E+03  d E =-.113479E+01
 curvature:  -0.33 expect dE=-0.280E+00 dE for cont linesearch -0.987E-01
 ZBRENT: increasing intervall
 opt :   1.2973  next Energy=  -197.251475 (dE=-0.524E+00)
 bond charge predicted
       N       E                     dE             d eps       ncg     rms          rms(c)
DAV:   1    -0.197496829328E+03    0.36590E+00   -0.14222E+02  8704   0.464E+01    0.747E+00
RMM:   2    -0.197101011472E+03    0.39582E+00   -0.57780E+00  8320   0.784E+00    0.303E+00
RMM:   3    -0.196944036456E+03    0.15698E+00   -0.50112E-01  8321   0.203E+00    0.130E+00
RMM:   4    -0.196909909715E+03    0.34127E-01   -0.74264E-02  8324   0.793E-01    0.375E-01
RMM:   5    -0.196908197591E+03    0.17121E-02   -0.85260E-03  8486   0.254E-01    0.186E-01
RMM:   6    -0.196908090966E+03    0.10663E-03   -0.19836E-03  8324   0.118E-01    0.700E-02
RMM:   7    -0.196908064609E+03    0.26356E-04   -0.36627E-04  5955   0.538E-02
  44 F= -.19690806E+03 E0= -.19690888E+03  d E =-.180149E+00
 curvature:   2.05 expect dE= 0.168E+02 dE for cont linesearch  0.814E+01
 ZBRENT: bracketing found
 ZBRENT: interpolating
 opt :   0.6863  next Energy=  -197.945708 (dE=-0.122E+01)
 bond charge predicted
       N       E                     dE             d eps       ncg     rms          rms(c)
DAV:   1    -0.198278186266E+03   -0.13701E+01   -0.87139E+01  8360   0.359E+01    0.523E+00
RMM:   2    -0.198072458958E+03    0.20573E+00   -0.31532E+00  8320   0.580E+00    0.270E+00
RMM:   3    -0.197970081876E+03    0.10238E+00   -0.34548E-01  8322   0.164E+00    0.132E+00
RMM:   4    -0.197948664572E+03    0.21417E-01   -0.40260E-02  8329   0.581E-01    0.478E-01
RMM:   5    -0.197946761798E+03    0.19028E-02   -0.82290E-03  8400   0.252E-01    0.138E-01
RMM:   6    -0.197946640229E+03    0.12157E-03   -0.13448E-03  8369   0.953E-02    0.579E-02
RMM:   7    -0.197946614075E+03    0.26154E-04   -0.25038E-04  5301   0.447E-02
  45 F= -.19794661E+03 E0= -.19794717E+03  d E =-.121870E+01
 curvature:  -0.02 expect dE=-0.207E-01 dE for cont linesearch -0.161E-03
 trial: gam= 0.25331 g(F)=  0.602E+00 g(S)=  0.388E+00 ort = 0.159E+00 (trialstep = 0.241E+00)
 search vector abs. value=  0.128E+01
 bond charge predicted
       N       E                     dE             d eps       ncg     rms          rms(c)
DAV:   1    -0.198163509487E+03   -0.21687E+00   -0.92720E+00  8400   0.118E+01    0.113E+00
RMM:   2    -0.198165052075E+03   -0.15426E-02   -0.20084E-01  8320   0.143E+00    0.506E-01
RMM:   3    -0.198160469637E+03    0.45824E-02   -0.18613E-02  8330   0.394E-01    0.203E-01
RMM:   4    -0.198159767738E+03    0.70190E-03   -0.16979E-03  8355   0.113E-01    0.870E-02
RMM:   5    -0.198159670971E+03    0.96766E-04   -0.40757E-04  5888   0.550E-02
  46 F= -.19815967E+03 E0= -.19816025E+03  d E =-.213057E+00
 trial-energy change:   -0.213057  1 .order   -0.213312   -0.248524   -0.178099
 step:   0.8507(harm=  0.8507)  dis= 0.05003  next Energy=  -198.385126 (dE=-0.439E+00)
 bond charge predicted
       N       E                     dE             d eps       ncg     rms          rms(c)
DAV:   1    -0.198396529440E+03   -0.23676E+00   -0.58968E+01  8320   0.297E+01    0.284E+00
RMM:   2    -0.198416614167E+03   -0.20085E-01   -0.12833E+00  8320   0.363E+00    0.133E+00
RMM:   3    -0.198386183629E+03    0.30431E-01   -0.11865E-01  8332   0.990E-01    0.562E-01
RMM:   4    -0.198381619407E+03    0.45642E-02   -0.11273E-02  8362   0.294E-01    0.238E-01
RMM:   5    -0.198380987208E+03    0.63220E-03   -0.30315E-03  8323   0.145E-01    0.825E-02
RMM:   6    -0.198380964563E+03    0.22645E-04   -0.46529E-04  6703   0.584E-02
  47 F= -.19838096E+03 E0= -.19838167E+03  d E =-.434350E+00
 curvature:  -0.53 expect dE=-0.243E+00 dE for cont linesearch -0.153E-03
 trial: gam= 0.46458 g(F)=  0.400E+00 g(S)=  0.582E-01 ort =-0.193E-01 (trialstep = 0.363E+00)
 search vector abs. value=  0.717E+00
 bond charge predicted
       N       E                     dE             d eps       ncg     rms          rms(c)
DAV:   1    -0.198514497158E+03   -0.13351E+00   -0.14456E+01  8592   0.146E+01    0.729E-01
RMM:   2    -0.198530418081E+03   -0.15921E-01   -0.23020E-01  8320   0.148E+00    0.378E-01
RMM:   3    -0.198527453711E+03    0.29644E-02   -0.11005E-02  8459   0.311E-01    0.210E-01
RMM:   4    -0.198526535000E+03    0.91871E-03   -0.33847E-03  8320   0.162E-01    0.655E-02
RMM:   5    -0.198526545667E+03   -0.10667E-04   -0.29354E-04  5612   0.456E-02
  48 F= -.19852655E+03 E0= -.19852714E+03  d E =-.145581E+00
 ZBRENT: can't locate minimum, use default step
 trial-energy change:   -0.145581  1 .order   -0.145344   -0.163101   -0.127586
 step:   1.4519(harm=  1.6669)  dis= 0.08305  next Energy=  -198.755485 (dE=-0.375E+00)
 bond charge predicted
       N       E                     dE             d eps       ncg     rms          rms(c)
DAV:   1    -0.198615240935E+03   -0.88706E-01   -0.12905E+02  8320   0.435E+01    0.238E+00
RMM:   2    -0.198789913712E+03   -0.17467E+00   -0.22629E+00  8320   0.473E+00    0.124E+00
RMM:   3    -0.198761871262E+03    0.28042E-01   -0.92435E-02  8512   0.899E-01    0.791E-01
RMM:   4    -0.198750335313E+03    0.11536E-01   -0.46848E-02  8320   0.598E-01    0.212E-01
RMM:   5    -0.198750173504E+03    0.16181E-03   -0.31621E-03  8398   0.144E-01    0.902E-02
RMM:   6    -0.198750218585E+03   -0.45081E-04   -0.29606E-04  5725   0.433E-02
  49 F= -.19875022E+03 E0= -.19875088E+03  d E =-.369254E+00
 curvature:  -1.29 expect dE=-0.521E+00 dE for cont linesearch -0.678E-02
 trial: gam= 0.70321 g(F)=  0.368E+00 g(S)=  0.343E-01 ort = 0.613E-01 (trialstep = 0.494E+00)
 search vector abs. value=  0.843E+00
 bond charge predicted
       N       E                     dE             d eps       ncg     rms          rms(c)
DAV:   1    -0.198896388031E+03   -0.14621E+00   -0.25828E+01  8320   0.194E+01    0.101E+00
RMM:   2    -0.198928531441E+03   -0.32143E-01   -0.43219E-01  8320   0.203E+00    0.512E-01
RMM:   3    -0.198924882174E+03    0.36493E-02   -0.20013E-02  8520   0.416E-01    0.313E-01
RMM:   4    -0.198923600505E+03    0.12817E-02   -0.78106E-03  8320   0.242E-01    0.695E-02
RMM:   5    -0.198923641120E+03   -0.40615E-04   -0.24809E-04  5582   0.434E-02
  50 F= -.19892364E+03 E0= -.19892427E+03  d E =-.173423E+00
 trial-energy change:   -0.173423  1 .order   -0.172328   -0.220020   -0.124637
 step:   1.0570(harm=  1.1399)  dis= 0.05725  next Energy=  -198.996240 (dE=-0.246E+00)
 bond charge predicted
       N       E                     dE             d eps       ncg     rms          rms(c)
DAV:   1    -0.198968071895E+03   -0.44471E-01   -0.33522E+01  8336   0.221E+01    0.117E+00
RMM:   2    -0.199009378562E+03   -0.41307E-01   -0.56594E-01  8320   0.233E+00    0.587E-01
RMM:   3    -0.199004438529E+03    0.49400E-02   -0.25974E-02  8504   0.476E-01    0.366E-01
RMM:   4    -0.199002663692E+03    0.17748E-02   -0.10708E-02  8320   0.282E-01    0.815E-02
RMM:   5    -0.199002711110E+03   -0.47418E-04   -0.34487E-04  5900   0.505E-02
  51 F= -.19900271E+03 E0= -.19900325E+03  d E =-.252493E+00
 curvature:  -1.06 expect dE=-0.378E+00 dE for cont linesearch -0.724E-03
 trial: gam= 1.00331 g(F)=  0.289E+00 g(S)=  0.678E-01 ort = 0.240E-01 (trialstep = 0.408E+00)
 search vector abs. value=  0.125E+01
 bond charge predicted
       N       E                     dE             d eps       ncg     rms          rms(c)
DAV:   1    -0.199109964935E+03   -0.10730E+00   -0.26583E+01  8352   0.198E+01    0.109E+00
RMM:   2    -0.199139905481E+03   -0.29941E-01   -0.46267E-01  8320   0.213E+00    0.557E-01
RMM:   3    -0.199133346682E+03    0.65588E-02   -0.21915E-02  8475   0.428E-01    0.329E-01
RMM:   4    -0.199131228125E+03    0.21186E-02   -0.77285E-03  8320   0.245E-01    0.865E-02
RMM:   5    -0.199131270826E+03   -0.42701E-04   -0.45567E-04  6188   0.566E-02
  52 F= -.19913127E+03 E0= -.19913158E+03  d E =-.128560E+00
 trial-energy change:   -0.128560  1 .order   -0.128026   -0.155300   -0.100752
 step:   1.0622(harm=  1.1621)  dis= 0.06899  next Energy=  -199.214186 (dE=-0.211E+00)
 bond charge predicted
       N       E                     dE             d eps       ncg     rms          rms(c)
DAV:   1    -0.199160909125E+03   -0.29681E-01   -0.68053E+01  8320   0.317E+01    0.184E+00
RMM:   2    -0.199244003268E+03   -0.83094E-01   -0.12300E+00  8320   0.350E+00    0.911E-01
RMM:   3    -0.199227256941E+03    0.16746E-01   -0.56038E-02  8480   0.687E-01    0.572E-01
RMM:   4    -0.199221257169E+03    0.59998E-02   -0.20118E-02  8320   0.395E-01    0.161E-01
RMM:   5    -0.199221346508E+03   -0.89340E-04   -0.15090E-03  8506   0.102E-01    0.645E-02
RMM:   6    -0.199221352041E+03   -0.55323E-05   -0.16140E-04  5074   0.418E-02
  53 F= -.19922135E+03 E0= -.19922100E+03  d E =-.218641E+00
 curvature:  -1.88 expect dE=-0.425E+00 dE for cont linesearch -0.973E-03
 trial: gam= 0.56896 g(F)=  0.199E+00 g(S)=  0.270E-01 ort = 0.255E-01 (trialstep = 0.539E+00)
 search vector abs. value=  0.661E+00
 bond charge predicted
       N       E                     dE             d eps       ncg     rms          rms(c)
DAV:   1    -0.199300252239E+03   -0.78906E-01   -0.21390E+01  8496   0.181E+01    0.111E+00
RMM:   2    -0.199327904558E+03   -0.27652E-01   -0.38067E-01  8320   0.195E+00    0.498E-01
RMM:   3    -0.199323760444E+03    0.41441E-02   -0.18475E-02  8449   0.402E-01    0.285E-01
RMM:   4    -0.199322395462E+03    0.13650E-02   -0.56027E-03  8320   0.210E-01    0.773E-02
RMM:   5    -0.199322407199E+03   -0.11737E-04   -0.31298E-04  5770   0.477E-02
  54 F= -.19932241E+03 E0= -.19932187E+03  d E =-.101055E+00
 trial-energy change:   -0.101055  1 .order   -0.100744   -0.129558   -0.071929
 step:   1.2117(harm=  1.2117)  dis= 0.05012  next Energy=  -199.366986 (dE=-0.146E+00)
 bond charge predicted
       N       E                     dE             d eps       ncg     rms          rms(c)
DAV:   1    -0.199334566463E+03   -0.12171E-01   -0.33282E+01  8352   0.225E+01    0.141E+00
RMM:   2    -0.199379252217E+03   -0.44686E-01   -0.59973E-01  8320   0.244E+00    0.629E-01
RMM:   3    -0.199373079899E+03    0.61723E-02   -0.27163E-02  8432   0.477E-01    0.430E-01
RMM:   4    -0.199370468594E+03    0.26113E-02   -0.69864E-03  8320   0.224E-01    0.233E-01
RMM:   5    -0.199369623034E+03    0.84556E-03   -0.28637E-03  8320   0.140E-01    0.715E-02
RMM:   6    -0.199369635045E+03   -0.12011E-04   -0.14914E-04  5075   0.357E-02
  55 F= -.19936964E+03 E0= -.19936807E+03  d E =-.148283E+00
 curvature:  -1.66 expect dE=-0.333E+00 dE for cont linesearch -0.127E-03
 trial: gam= 0.90562 g(F)=  0.161E+00 g(S)=  0.394E-01 ort = 0.708E-02 (trialstep = 0.590E+00)
 search vector abs. value=  0.754E+00
 bond charge predicted
       N       E                     dE             d eps       ncg     rms          rms(c)
DAV:   1    -0.199434065758E+03   -0.64443E-01   -0.18165E+01  8432   0.168E+01    0.981E-01
RMM:   2    -0.199455905351E+03   -0.21840E-01   -0.30998E-01  8320   0.180E+00    0.510E-01
RMM:   3    -0.199454258542E+03    0.16468E-02   -0.15549E-02  8680   0.363E-01    0.322E-01
RMM:   4    -0.199453677467E+03    0.58108E-03   -0.36430E-03  8320   0.169E-01    0.158E-01
RMM:   5    -0.199453259037E+03    0.41843E-03   -0.96801E-04  8214   0.795E-02    0.475E-02
RMM:   6    -0.199453253743E+03    0.52938E-05   -0.57236E-05  5034   0.233E-02
  56 F= -.19945325E+03 E0= -.19945144E+03  d E =-.836187E-01
 trial-energy change:   -0.083619  1 .order   -0.083035   -0.121665   -0.044404
 step:   0.9065(harm=  0.9286)  dis= 0.03802  next Energy=  -199.465273 (dE=-0.956E-01)
 bond charge predicted
       N       E                     dE             d eps       ncg     rms          rms(c)
DAV:   1    -0.199460455085E+03   -0.71960E-02   -0.52623E+00  9040   0.904E+00    0.520E-01
RMM:   2    -0.199466961547E+03   -0.65065E-02   -0.89240E-02  8320   0.966E-01    0.281E-01
RMM:   3    -0.199466472263E+03    0.48928E-03   -0.45477E-03  8652   0.196E-01    0.179E-01
RMM:   4    -0.199466302246E+03    0.17002E-03   -0.95055E-04  8297   0.843E-02    0.999E-02
RMM:   5    -0.199466151204E+03    0.15104E-03   -0.35173E-04  6101   0.509E-02    0.253E-02
RMM:   6    -0.199466154584E+03   -0.33801E-05   -0.26860E-05  5023   0.178E-02
  57 F= -.19946615E+03 E0= -.19946422E+03  d E =-.965195E-01
 curvature:  -1.69 expect dE=-0.150E+00 dE for cont linesearch -0.568E-04
 trial: gam= 0.43459 g(F)=  0.773E-01 g(S)=  0.113E-01 ort = 0.504E-02 (trialstep = 0.653E+00)
 search vector abs. value=  0.235E+00
 bond charge predicted
       N       E                     dE             d eps       ncg     rms          rms(c)
DAV:   1    -0.199494054373E+03   -0.27903E-01   -0.96176E+00  8368   0.122E+01    0.927E-01
RMM:   2    -0.199506821333E+03   -0.12767E-01   -0.19592E-01  8320   0.140E+00    0.390E-01
RMM:   3    -0.199504431427E+03    0.23899E-02   -0.94506E-03  8368   0.267E-01    0.272E-01
RMM:   4    -0.199502855656E+03    0.15758E-02   -0.26779E-03  8320   0.131E-01    0.152E-01
RMM:   5    -0.199502573034E+03    0.28262E-03   -0.14088E-03  8215   0.100E-01    0.378E-02
RMM:   6    -0.199502568652E+03    0.43819E-05   -0.39354E-05  5024   0.199E-02
  58 F= -.19950257E+03 E0= -.19950070E+03  d E =-.364141E-01
 trial-energy change:   -0.036414  1 .order   -0.036342   -0.059301   -0.013383
 step:   0.8434(harm=  0.8434)  dis= 0.02370  next Energy=  -199.504447 (dE=-0.383E-01)
 bond charge predicted
       N       E                     dE             d eps       ncg     rms          rms(c)
DAV:   1    -0.199503876031E+03   -0.13030E-02   -0.81861E-01  9152   0.355E+00    0.268E-01
RMM:   2    -0.199504979083E+03   -0.11031E-02   -0.16876E-02  8320   0.409E-01    0.114E-01
RMM:   3    -0.199504777483E+03    0.20160E-03   -0.81507E-04  7704   0.785E-02    0.800E-02
RMM:   4    -0.199504633272E+03    0.14421E-03   -0.22356E-04  5074   0.408E-02    0.433E-02
RMM:   5    -0.199504612334E+03    0.20937E-04   -0.14144E-04  5011   0.348E-02
  59 F= -.19950461E+03 E0= -.19950277E+03  d E =-.384578E-01
 curvature:  -1.09 expect dE=-0.494E-01 dE for cont linesearch -0.620E-05
 trial: gam= 0.51236 g(F)=  0.426E-01 g(S)=  0.255E-02 ort = 0.116E-02 (trialstep = 0.691E+00)
 search vector abs. value=  0.108E+00
 bond charge predicted
       N       E                     dE             d eps       ncg     rms          rms(c)
DAV:   1    -0.199521517247E+03   -0.16884E-01   -0.20725E+00  8352   0.563E+00    0.511E-01
RMM:   2    -0.199524011214E+03   -0.24940E-02   -0.50722E-02  8320   0.719E-01    0.274E-01
RMM:   3    -0.199522724024E+03    0.12872E-02   -0.30768E-03  8451   0.142E-01    0.193E-01
RMM:   4    -0.199522340431E+03    0.38359E-03   -0.60637E-04  7668   0.677E-02    0.103E-01
RMM:   5    -0.199522305069E+03    0.35362E-04   -0.42826E-04  6938   0.592E-02
  60 F= -.19952231E+03 E0= -.19952024E+03  d E =-.176927E-01
 trial-energy change:   -0.017693  1 .order   -0.017760   -0.031633   -0.003887
 step:   0.7879(harm=  0.7879)  dis= 0.01521  next Energy=  -199.522644 (dE=-0.180E-01)
 bond charge predicted
       N       E                     dE             d eps       ncg     rms          rms(c)
DAV:   1    -0.199522520194E+03   -0.17976E-03   -0.40782E-02  9928   0.791E-01    0.757E-02
RMM:   2    -0.199522585874E+03   -0.65680E-04   -0.10979E-03  8314   0.105E-01    0.399E-02
RMM:   3    -0.199522557892E+03    0.27983E-04   -0.52602E-05  4695   0.208E-02
  61 F= -.19952256E+03 E0= -.19952046E+03  d E =-.179456E-01
 curvature:  -0.93 expect dE=-0.112E-01 dE for cont linesearch -0.769E-08
 trial: gam= 0.26238 g(F)=  0.840E-02 g(S)=  0.361E-02 ort =-0.299E-04 (trialstep = 0.710E+00)
 search vector abs. value=  0.194E-01
 bond charge predicted
       N       E                     dE             d eps       ncg     rms          rms(c)
DAV:   1    -0.199527068039E+03   -0.44822E-02   -0.70559E-01  8416   0.329E+00    0.315E-01
RMM:   2    -0.199527455145E+03   -0.38711E-03   -0.16852E-02  8320   0.417E-01    0.156E-01
RMM:   3    -0.199527101992E+03    0.35315E-03   -0.10933E-03  8391   0.932E-02    0.101E-01
RMM:   4    -0.199526895525E+03    0.20647E-03   -0.32295E-04  5658   0.483E-02    0.458E-02
RMM:   5    -0.199526871119E+03    0.24406E-04   -0.10988E-04  5023   0.323E-02
  62 F= -.19952687E+03 E0= -.19952465E+03  d E =-.431323E-02
 trial-energy change:   -0.004313  1 .order   -0.004390   -0.008529   -0.000251
 step:   0.7320(harm=  0.7320)  dis= 0.00504  next Energy=  -199.526952 (dE=-0.439E-02)
 bond charge predicted
       N       E                     dE             d eps       ncg     rms          rms(c)
DAV:   1    -0.199526873245E+03    0.22280E-04   -0.66171E-04  9168   0.100E-01    0.111E-02
RMM:   2    -0.199526875072E+03   -0.18269E-05   -0.18518E-05  4405   0.148E-02
  63 F= -.19952688E+03 E0= -.19952465E+03  d E =-.431718E-02
 curvature:  -0.59 expect dE=-0.245E-02 dE for cont linesearch -0.299E-06
 trial: gam= 0.33304 g(F)=  0.360E-02 g(S)=  0.525E-03 ort =-0.990E-04 (trialstep = 0.715E+00)
 search vector abs. value=  0.622E-02
 bond charge predicted
       N       E                     dE             d eps       ncg     rms          rms(c)
DAV:   1    -0.199528692159E+03   -0.18189E-02   -0.21175E-01  8400   0.178E+00    0.187E-01
RMM:   2    -0.199528638730E+03    0.53428E-04   -0.53878E-03  8320   0.239E-01    0.816E-02
RMM:   3    -0.199528466791E+03    0.17194E-03   -0.47832E-04  7253   0.614E-02    0.411E-02
RMM:   4    -0.199528441909E+03    0.24882E-04   -0.90025E-05  5018   0.271E-02
  64 F= -.19952844E+03 E0= -.19952623E+03  d E =-.156684E-02
 trial-energy change:   -0.001567  1 .order   -0.001612   -0.002926   -0.000298
 step:   0.7958(harm=  0.7958)  dis= 0.00283  next Energy=  -199.528504 (dE=-0.163E-02)
 bond charge predicted
       N       E                     dE             d eps       ncg     rms          rms(c)
DAV:   1    -0.199528440261E+03    0.26529E-04   -0.25854E-03  9568   0.196E-01    0.243E-02
RMM:   2    -0.199528437791E+03    0.24697E-05   -0.59842E-05  4475   0.272E-02
  65 F= -.19952844E+03 E0= -.19952622E+03  d E =-.156272E-02
 curvature:  -0.60 expect dE=-0.689E-03 dE for cont linesearch -0.349E-06
 trial: gam= 0.28854 g(F)=  0.813E-03 g(S)=  0.327E-03 ort =-0.599E-04 (trialstep = 0.731E+00)
 search vector abs. value=  0.162E-02
 bond charge predicted
       N       E                     dE             d eps       ncg     rms          rms(c)
DAV:   1    -0.199528875303E+03   -0.43504E-03   -0.25002E-02  8448   0.607E-01    0.741E-02
RMM:   2    -0.199528884228E+03   -0.89243E-05   -0.73380E-04  8176   0.908E-02
  66 F= -.19952888E+03 E0= -.19952666E+03  d E =-.446436E-03
 trial-energy change:   -0.000446  1 .order   -0.000438   -0.000821   -0.000056
 step:   0.7843(harm=  0.7843)  dis= 0.00151  next Energy=  -199.528878 (dE=-0.440E-03)
 bond charge predicted
       N       E                     dE             d eps       ncg     rms          rms(c)
DAV:   1    -0.199528876102E+03   -0.79921E-06   -0.22769E-04  6672   0.506E-02    0.306E-02
RMM:   2    -0.199528873218E+03    0.28846E-05   -0.33497E-05  4320   0.187E-02
  67 F= -.19952887E+03 E0= -.19952665E+03  d E =-.435426E-03
 curvature:  -0.57 expect dE=-0.360E-03 dE for cont linesearch -0.298E-06
 trial: gam= 0.52506 g(F)=  0.487E-03 g(S)=  0.147E-03 ort =-0.292E-04 (trialstep = 0.742E+00)
 search vector abs. value=  0.105E-02
 reached required accuracy - stopping structural energy minimisation
