<?xml version="1.0" encoding="ISO-8859-1"?>
<modeling>
 <generator>
  <i name="program" type="string">vasp </i>
  <i name="version" type="string">5.4.4.18Apr17-6-g9f103f2a35  </i>
  <i name="subversion" type="string">(build Nov 01 2019 12:17:22) complex            parallel </i>
  <i name="platform" type="string">LinuxIFC </i>
  <i name="date" type="string">2023 05 19 </i>
  <i name="time" type="string">11:19:52 </i>
 </generator>
 <incar>
  <i type="string" name="PREC">accurate</i>
  <i type="string" name="ALGO"> Fast</i>
  <i type="int" name="IBRION">     2</i>
  <i type="int" name="NSW">   100</i>
  <i type="int" name="ISIF">     3</i>
  <i type="string" name="LREAL"> Auto</i>
  <i type="int" name="ISMEAR">     2</i>
  <i name="SIGMA">      0.10000000</i>
  <i type="logical" name="LWAVE"> F  </i>
  <i type="logical" name="LCHARG"> F  </i>
  <v type="int" name="KPOINT_BSE">    -1     0     0     0</v>
 </incar>
 <structure name="primitive_cell" >
  <crystal>
   <varray name="basis" >
    <v>       3.87612210      -6.71364041       0.00000000 </v>
    <v>       3.87612210       6.71364041       0.00000000 </v>
    <v>       0.00000000       0.00000000       5.61885196 </v>
   </varray>
   <i name="volume">    292.43753257 </i>
   <varray name="rec_basis" >
    <v>       0.12899490      -0.07447524       0.00000000 </v>
    <v>       0.12899490       0.07447524       0.00000000 </v>
    <v>       0.00000000       0.00000000       0.17797230 </v>
   </varray>
  </crystal>
  <varray name="positions" >
   <v>       0.08183856      -0.43040644       0.19639718 </v>
   <v>       0.33333333      -0.33333333       0.14074727 </v>
   <v>      -0.04554867      -0.39000089      -0.03093112 </v>
   <v>       0.00362142       0.31835447       0.23484545 </v>
   <v>       0.04554867      -0.34445222       0.46906888 </v>
   <v>       0.31473305      -0.00362142       0.23484545 </v>
   <v>       0.16718716      -0.08623063       0.48847927 </v>
   <v>       0.43040644      -0.48775500       0.19639718 </v>
   <v>       0.48775500      -0.08183856       0.19639718 </v>
   <v>      -0.08623063       0.16718716      -0.01152073 </v>
   <v>       0.08623063       0.25341779       0.48847927 </v>
   <v>      -0.08183856       0.48775500      -0.30360282 </v>
   <v>      -0.16718716      -0.25341779      -0.01152073 </v>
   <v>      -0.00362142       0.31473305      -0.26515455 </v>
   <v>       0.34445222       0.39000089       0.46906888 </v>
   <v>      -0.31835447      -0.31473305       0.23484545 </v>
   <v>       0.25341779       0.08623063      -0.01152073 </v>
   <v>      -0.33333333       0.33333333      -0.35925273 </v>
   <v>       0.39000089       0.34445222      -0.03093112 </v>
   <v>       0.00000000       0.00000000      -0.01099193 </v>
   <v>       0.31835447       0.00362142      -0.26515455 </v>
   <v>      -0.34445222       0.04554867      -0.03093112 </v>
   <v>      -0.39000089      -0.04554867       0.46906888 </v>
   <v>       0.00000000       0.00000000       0.48900807 </v>
   <v>      -0.25341779      -0.16718716       0.48847927 </v>
   <v>      -0.31473305      -0.31835447      -0.26515455 </v>
   <v>      -0.43040644       0.08183856      -0.30360282 </v>
   <v>      -0.48775500       0.43040644      -0.30360282 </v>
  </varray>
 </structure>
 <varray name="primitive_index" >
  <v type="int" >        1 </v>
  <v type="int" >       24 </v>
  <v type="int" >       23 </v>
  <v type="int" >       25 </v>
  <v type="int" >       14 </v>
  <v type="int" >       28 </v>
  <v type="int" >        6 </v>
  <v type="int" >        7 </v>
  <v type="int" >        2 </v>
  <v type="int" >        3 </v>
  <v type="int" >        5 </v>
  <v type="int" >        9 </v>
  <v type="int" >       11 </v>
  <v type="int" >       18 </v>
  <v type="int" >       13 </v>
  <v type="int" >       21 </v>
  <v type="int" >       12 </v>
  <v type="int" >       20 </v>
  <v type="int" >       15 </v>
  <v type="int" >       17 </v>
  <v type="int" >       26 </v>
  <v type="int" >       22 </v>
  <v type="int" >       16 </v>
  <v type="int" >       19 </v>
  <v type="int" >        8 </v>
  <v type="int" >       27 </v>
  <v type="int" >        4 </v>
  <v type="int" >       10 </v>
 </varray>
 <kpoints>
  <generation param="Auto">
   <i name="subdivisionlength">     45.00000000 </i>
   <v type="int" name="divisions">       7        7        8 </v>
   <v name="usershift">      0.00000000       0.00000000       0.00000000 </v>
   <v name="genvec1">      0.14285714       0.00000000       0.00000000 </v>
   <v name="genvec2">      0.00000000       0.14285714       0.00000000 </v>
   <v name="genvec3">      0.00000000       0.00000000       0.12500000 </v>
   <v name="shift">      0.00000000       0.00000000       0.00000000 </v>
  </generation>
  <varray name="kpointlist" >
   <v>       0.00000000       0.00000000       0.00000000 </v>
   <v>       0.14285714       0.00000000       0.00000000 </v>
   <v>       0.28571429       0.00000000       0.00000000 </v>
   <v>       0.42857143       0.00000000       0.00000000 </v>
   <v>       0.14285714       0.14285714       0.00000000 </v>
   <v>       0.28571429       0.14285714       0.00000000 </v>
   <v>       0.42857143       0.14285714       0.00000000 </v>
   <v>       0.28571429       0.28571429       0.00000000 </v>
   <v>       0.00000000       0.00000000       0.12500000 </v>
   <v>       0.14285714       0.00000000       0.12500000 </v>
   <v>       0.28571429       0.00000000       0.12500000 </v>
   <v>       0.42857143       0.00000000       0.12500000 </v>
   <v>       0.14285714       0.14285714       0.12500000 </v>
   <v>       0.28571429       0.14285714       0.12500000 </v>
   <v>       0.42857143       0.14285714       0.12500000 </v>
   <v>       0.28571429       0.28571429       0.12500000 </v>
   <v>      -0.14285714       0.28571429       0.12500000 </v>
   <v>      -0.28571429       0.42857143       0.12500000 </v>
   <v>      -0.42857143      -0.42857143       0.12500000 </v>
   <v>      -0.28571429      -0.42857143       0.12500000 </v>
   <v>       0.00000000       0.00000000       0.25000000 </v>
   <v>       0.14285714       0.00000000       0.25000000 </v>
   <v>       0.28571429       0.00000000       0.25000000 </v>
   <v>       0.42857143       0.00000000       0.25000000 </v>
   <v>       0.14285714       0.14285714       0.25000000 </v>
   <v>       0.28571429       0.14285714       0.25000000 </v>
   <v>       0.42857143       0.14285714       0.25000000 </v>
   <v>       0.28571429       0.28571429       0.25000000 </v>
   <v>      -0.14285714       0.28571429       0.25000000 </v>
   <v>      -0.28571429       0.42857143       0.25000000 </v>
   <v>      -0.42857143      -0.42857143       0.25000000 </v>
   <v>      -0.28571429      -0.42857143       0.25000000 </v>
   <v>       0.00000000       0.00000000       0.37500000 </v>
   <v>       0.14285714       0.00000000       0.37500000 </v>
   <v>       0.28571429       0.00000000       0.37500000 </v>
   <v>       0.42857143       0.00000000       0.37500000 </v>
   <v>       0.14285714       0.14285714       0.37500000 </v>
   <v>       0.28571429       0.14285714       0.37500000 </v>
   <v>       0.42857143       0.14285714       0.37500000 </v>
   <v>       0.28571429       0.28571429       0.37500000 </v>
   <v>      -0.14285714       0.28571429       0.37500000 </v>
   <v>      -0.28571429       0.42857143       0.37500000 </v>
   <v>      -0.42857143      -0.42857143       0.37500000 </v>
   <v>      -0.28571429      -0.42857143       0.37500000 </v>
   <v>       0.00000000       0.00000000       0.50000000 </v>
   <v>       0.14285714       0.00000000       0.50000000 </v>
   <v>       0.28571429       0.00000000       0.50000000 </v>
   <v>       0.42857143       0.00000000       0.50000000 </v>
   <v>       0.14285714       0.14285714       0.50000000 </v>
   <v>       0.28571429       0.14285714       0.50000000 </v>
   <v>       0.42857143       0.14285714       0.50000000 </v>
   <v>       0.28571429       0.28571429       0.50000000 </v>
  </varray>
  <varray name="weights" >
   <v>       0.00255102 </v>
   <v>       0.01530612 </v>
   <v>       0.01530612 </v>
   <v>       0.01530612 </v>
   <v>       0.01530612 </v>
   <v>       0.03061224 </v>
   <v>       0.01530612 </v>
   <v>       0.01530612 </v>
   <v>       0.00510204 </v>
   <v>       0.03061224 </v>
   <v>       0.03061224 </v>
   <v>       0.03061224 </v>
   <v>       0.01530612 </v>
   <v>       0.03061224 </v>
   <v>       0.01530612 </v>
   <v>       0.01530612 </v>
   <v>       0.01530612 </v>
   <v>       0.03061224 </v>
   <v>       0.01530612 </v>
   <v>       0.01530612 </v>
   <v>       0.00510204 </v>
   <v>       0.03061224 </v>
   <v>       0.03061224 </v>
   <v>       0.03061224 </v>
   <v>       0.01530612 </v>
   <v>       0.03061224 </v>
   <v>       0.01530612 </v>
   <v>       0.01530612 </v>
   <v>       0.01530612 </v>
   <v>       0.03061224 </v>
   <v>       0.01530612 </v>
   <v>       0.01530612 </v>
   <v>       0.00510204 </v>
   <v>       0.03061224 </v>
   <v>       0.03061224 </v>
   <v>       0.03061224 </v>
   <v>       0.01530612 </v>
   <v>       0.03061224 </v>
   <v>       0.01530612 </v>
   <v>       0.01530612 </v>
   <v>       0.01530612 </v>
   <v>       0.03061224 </v>
   <v>       0.01530612 </v>
   <v>       0.01530612 </v>
   <v>       0.00255102 </v>
   <v>       0.01530612 </v>
   <v>       0.01530612 </v>
   <v>       0.01530612 </v>
   <v>       0.01530612 </v>
   <v>       0.03061224 </v>
   <v>       0.01530612 </v>
   <v>       0.01530612 </v>
  </varray>
 </kpoints>
 <parameters>
  <separator name="general" >
   <i type="string" name="SYSTEM">unknown system</i>
   <i type="logical" name="LCOMPAT"> F  </i>
  </separator>
  <separator name="electronic" >
   <i type="string" name="PREC">accura</i>
   <i name="ENMAX">    400.00000000</i>
   <i name="ENAUG">    627.11200000</i>
   <i name="EDIFF">      0.00010000</i>
   <i type="int" name="IALGO">    68</i>
   <i type="int" name="IWAVPR">    11</i>
   <i type="int" name="NBANDS">    80</i>
   <i name="NELECT">    124.00000000</i>
   <i type="int" name="TURBO">     0</i>
   <i type="int" name="IRESTART">     0</i>
   <i type="int" name="NREBOOT">     0</i>
   <i type="int" name="NMIN">     0</i>
   <i name="EREF">      0.00000000</i>
   <separator name="electronic smearing" >
    <i type="int" name="ISMEAR">     2</i>
    <i name="SIGMA">      0.10000000</i>
    <i name="KSPACING">      0.50000000</i>
    <i type="logical" name="KGAMMA"> T  </i>
   </separator>
   <separator name="electronic projectors" >
    <i type="logical" name="LREAL"> T  </i>
    <v name="ROPT">     -0.00025000     -0.00025000</v>
    <i type="int" name="LMAXPAW">  -100</i>
    <i type="int" name="LMAXMIX">     2</i>
    <i type="logical" name="NLSPLINE"> F  </i>
   </separator>
   <separator name="electronic startup" >
    <i type="int" name="ISTART">     0</i>
    <i type="int" name="ICHARG">     2</i>
    <i type="int" name="INIWAV">     1</i>
   </separator>
   <separator name="electronic spin" >
    <i type="int" name="ISPIN">     1</i>
    <i type="logical" name="LNONCOLLINEAR"> F  </i>
    <v name="MAGMOM">      1.00000000      1.00000000      1.00000000      1.00000000      1.00000000      1.00000000      1.00000000      1.00000000      1.00000000      1.00000000      1.00000000      1.00000000      1.00000000      1.00000000      1.00000000      1.00000000      1.00000000      1.00000000      1.00000000      1.00000000
      1.00000000      1.00000000      1.00000000      1.00000000      1.00000000      1.00000000      1.00000000      1.00000000</v>
    <i name="NUPDOWN">     -1.00000000</i>
    <i type="logical" name="LSORBIT"> F  </i>
    <v name="SAXIS">      0.00000000      0.00000000      1.00000000</v>
    <i type="logical" name="LSPIRAL"> F  </i>
    <v name="QSPIRAL">      0.00000000      0.00000000      0.00000000</v>
    <i type="logical" name="LZEROZ"> F  </i>
   </separator>
   <separator name="electronic exchange-correlation" >
    <i type="logical" name="LASPH"> F  </i>
    <i type="logical" name="LMETAGGA"> F  </i>
   </separator>
   <separator name="electronic convergence" >
    <i type="int" name="NELM">    60</i>
    <i type="int" name="NELMDL">    -5</i>
    <i type="int" name="NELMIN">     2</i>
    <i name="ENINI">    400.00000000</i>
    <separator name="electronic convergence detail" >
     <i type="logical" name="LDIAG"> T  </i>
     <i type="logical" name="LSUBROT"> F  </i>
     <i name="WEIMIN">      0.00100000</i>
     <i name="EBREAK">      0.00000031</i>
     <i name="DEPER">      0.30000000</i>
     <i type="int" name="NRMM">     4</i>
     <i name="TIME">      0.40000000</i>
    </separator>
   </separator>
   <separator name="electronic mixer" >
    <i name="AMIX">      0.40000000</i>
    <i name="BMIX">      1.00000000</i>
    <i name="AMIN">      0.10000000</i>
    <i name="AMIX_MAG">      1.60000000</i>
    <i name="BMIX_MAG">      1.00000000</i>
    <separator name="electronic mixer details" >
     <i type="int" name="IMIX">     4</i>
     <i type="logical" name="MIXFIRST"> F  </i>
     <i type="int" name="MAXMIX">   -45</i>
     <i name="WC">    100.00000000</i>
     <i type="int" name="INIMIX">     1</i>
     <i type="int" name="MIXPRE">     1</i>
     <i type="int" name="MREMOVE">     5</i>
    </separator>
   </separator>
   <separator name="electronic dipolcorrection" >
    <i type="logical" name="LDIPOL"> F  </i>
    <i type="logical" name="LMONO"> F  </i>
    <i type="int" name="IDIPOL">     0</i>
    <i name="EPSILON">      1.00000000</i>
    <v name="DIPOL">   -100.00000000   -100.00000000   -100.00000000</v>
    <i name="EFIELD">      0.00000000</i>
   </separator>
  </separator>
  <separator name="grids" >
   <i type="int" name="NGX">    54</i>
   <i type="int" name="NGY">    54</i>
   <i type="int" name="NGZ">    40</i>
   <i type="int" name="NGXF">   108</i>
   <i type="int" name="NGYF">   108</i>
   <i type="int" name="NGZF">    80</i>
   <i type="logical" name="ADDGRID"> F  </i>
  </separator>
  <separator name="ionic" >
   <i type="int" name="NSW">   100</i>
   <i type="int" name="IBRION">     2</i>
   <i type="int" name="MDALGO">     0</i>
   <i type="int" name="ISIF">     3</i>
   <i name="PSTRESS">      0.00000000</i>
   <i name="EDIFFG">      0.00100000</i>
   <i type="int" name="NFREE">     1</i>
   <i name="POTIM">      0.50000000</i>
   <i name="SMASS">     -3.00000000</i>
   <i name="SCALEE">      1.00000000</i>
  </separator>
  <separator name="ionic md" >
   <i name="TEBEG">      0.00010000</i>
   <i name="TEEND">      0.00010000</i>
   <i type="int" name="NBLOCK">     1</i>
   <i type="int" name="KBLOCK">   100</i>
   <i type="int" name="NPACO">   256</i>
   <i name="APACO">     16.00000000</i>
  </separator>
  <separator name="symmetry" >
   <i type="int" name="ISYM">     2</i>
   <i name="SYMPREC">      0.00001000</i>
  </separator>
  <separator name="dos" >
   <i type="int" name="LORBIT">     0</i>
   <v name="RWIGS">     -1.00000000     -1.00000000</v>
   <i type="int" name="NEDOS">   301</i>
   <i name="EMIN">     10.00000000</i>
   <i name="EMAX">    -10.00000000</i>
   <i name="EFERMI">      0.00000000</i>
  </separator>
  <separator name="writing" >
   <i type="int" name="NWRITE">     2</i>
   <i type="logical" name="LWAVE"> F  </i>
   <i type="logical" name="LDOWNSAMPLE"> F  </i>
   <i type="logical" name="LCHARG"> F  </i>
   <i type="logical" name="LPARD"> F  </i>
   <i type="logical" name="LVTOT"> F  </i>
   <i type="logical" name="LVHAR"> F  </i>
   <i type="logical" name="LELF"> F  </i>
   <i type="logical" name="LOPTICS"> F  </i>
   <v name="STM">      0.00000000      0.00000000      0.00000000      0.00000000      0.00000000      0.00000000      0.00000000</v>
  </separator>
  <separator name="performance" >
   <i type="int" name="NPAR">     4</i>
   <i type="int" name="NSIM">     4</i>
   <i type="int" name="NBLK">    -1</i>
   <i type="logical" name="LPLANE"> T  </i>
   <i type="logical" name="LSCALAPACK"> F  </i>
   <i type="logical" name="LSCAAWARE"> F  </i>
   <i type="logical" name="LSCALU"> F  </i>
   <i type="logical" name="LASYNC"> F  </i>
   <i type="logical" name="LORBITALREAL"> F  </i>
  </separator>
  <separator name="miscellaneous" >
   <i type="int" name="IDIOT">     3</i>
   <i type="int" name="ISPECIAL">     0</i>
   <i type="logical" name="LMUSIC"> F  </i>
   <v name="POMASS">     14.00100000     28.08500000</v>
   <v name="DARWINR">      0.00000000      0.00000000</v>
   <v name="DARWINV">      1.00000000      1.00000000</v>
   <i type="logical" name="LCORR"> T  </i>
  </separator>
  <i type="logical" name="GGA_COMPAT"> T  </i>
  <i type="logical" name="LBERRY"> F  </i>
  <i type="int" name="ICORELEVEL">     0</i>
  <i type="logical" name="LDAU"> F  </i>
  <i type="int" name="I_CONSTRAINED_M">     0</i>
  <separator name="electronic exchange-correlation" >
   <i type="string" name="GGA">--</i>
   <i type="int" name="VOSKOWN">     0</i>
   <i type="logical" name="LHFCALC"> F  </i>
   <i type="string" name="PRECFOCK"></i>
   <i type="logical" name="LSYMGRAD"> F  </i>
   <i type="logical" name="LHFONE"> F  </i>
   <i type="logical" name="LRHFCALC"> F  </i>
   <i type="logical" name="LTHOMAS"> F  </i>
   <i type="logical" name="LMODELHF"> F  </i>
   <i name="ENCUT4O">     -1.00000000</i>
   <i type="int" name="EXXOEP">     0</i>
   <i type="int" name="FOURORBIT">     0</i>
   <i name="AEXX">      0.00000000</i>
   <i name="HFALPHA">      0.00000000</i>
   <i name="MCALPHA">      0.00000000</i>
   <i name="ALDAX">      1.00000000</i>
   <i name="AGGAX">      1.00000000</i>
   <i name="ALDAC">      1.00000000</i>
   <i name="AGGAC">      1.00000000</i>
   <i type="int" name="NKREDX">     1</i>
   <i type="int" name="NKREDY">     1</i>
   <i type="int" name="NKREDZ">     1</i>
   <i type="logical" name="SHIFTRED"> F  </i>
   <i type="logical" name="ODDONLY"> F  </i>
   <i type="logical" name="EVENONLY"> F  </i>
   <i type="int" name="LMAXFOCK">     0</i>
   <i type="int" name="NMAXFOCKAE">     0</i>
   <i type="logical" name="LFOCKAEDFT"> F  </i>
   <i name="HFSCREEN">      0.00000000</i>
   <i name="HFSCREENC">      0.00000000</i>
   <i type="int" name="NBANDSGWLOW">     0</i>
  </separator>
  <separator name="vdW DFT" >
   <i type="logical" name="LUSE_VDW"> F  </i>
   <i name="Zab_VDW">     -0.84910000</i>
   <i name="PARAM1">      0.12340000</i>
   <i name="PARAM2">      1.00000000</i>
   <i name="PARAM3">      0.00000000</i>
  </separator>
  <separator name="model GW" >
   <i type="int" name="MODEL_GW">     0</i>
   <i name="MODEL_EPS0">      6.26651856</i>
   <i name="MODEL_ALPHA">      1.00000000</i>
  </separator>
  <separator name="linear response parameters" >
   <i type="logical" name="LEPSILON"> F  </i>
   <i type="logical" name="LRPA"> F  </i>
   <i type="logical" name="LNABLA"> F  </i>
   <i type="logical" name="LVEL"> F  </i>
   <i type="int" name="KINTER">     0</i>
   <i name="CSHIFT">      0.10000000</i>
   <i name="OMEGAMAX">     -1.00000000</i>
   <i name="DEG_THRESHOLD">      0.00200000</i>
   <i name="RTIME">     -0.10000000</i>
   <i name="WPLASMAI">      0.00000000</i>
   <v name="DFIELD">      0.00000000      0.00000000      0.00000000</v>
   <v name="WPLASMA">      0.00000000      0.00000000      0.00000000      0.00000000      0.00000000      0.00000000      0.00000000      0.00000000      0.00000000</v>
  </separator>
  <separator name="orbital magnetization" >
   <i type="logical" name="NUCIND"> F  </i>
   <v name="MAGPOS">      0.00000000      0.00000000      0.00000000</v>
   <i type="logical" name="LNICSALL"> T  </i>
   <i type="logical" name="ORBITALMAG"> F  </i>
   <i type="logical" name="LMAGBLOCH"> F  </i>
   <i type="logical" name="LCHIMAG"> F  </i>
   <i type="logical" name="LGAUGE"> T  </i>
   <i type="int" name="MAGATOM">     0</i>
   <v name="MAGDIPOL">      0.00000000      0.00000000      0.00000000</v>
   <v name="AVECCONST">      0.00000000      0.00000000      0.00000000</v>
  </separator>
  <separator name="response functions" >
   <i type="logical" name="LADDER"> F  </i>
   <i type="logical" name="LRPAFORCE"> F  </i>
   <i type="logical" name="LFXC"> F  </i>
   <i type="logical" name="LHARTREE"> T  </i>
   <i type="int" name="IBSE">     0</i>
   <v type="int" name="KPOINT">    -1     0     0     0</v>
   <i type="logical" name="LTCTE"> F  </i>
   <i type="logical" name="LTETE"> F  </i>
   <i type="logical" name="LTRIPLET"> F  </i>
   <i type="logical" name="LFXCEPS"> F  </i>
   <i type="logical" name="LFXHEG"> F  </i>
   <i type="int" name="NATURALO">     2</i>
   <i type="logical" name="L2ORDER"> F  </i>
   <i type="logical" name="LMP2LT"> F  </i>
   <i type="logical" name="LUSEW"> F  </i>
   <i name="ENCUTGW">     -2.00000000</i>
   <i name="ENCUTGWSOFT">     -2.00000000</i>
   <i name="ENCUTLF">     -1.00000000</i>
   <i type="int" name="LMAXMP2">    -1</i>
   <i name="SCISSOR">      0.00000000</i>
   <i type="int" name="NOMEGA">     0</i>
   <i type="int" name="NOMEGAR">     0</i>
   <i type="int" name="NBANDSGW">    -1</i>
   <i type="int" name="NBANDSO">    -1</i>
   <i type="int" name="NBANDSV">    -1</i>
   <i type="int" name="NELM">     1</i>
   <i type="int" name="NELMHF">     1</i>
   <i type="int" name="DIM">     3</i>
   <i type="int" name="ANTIRES">     0</i>
   <i name="OMEGAMAX">    -30.00000000</i>
   <i name="OMEGAMIN">    -30.00000000</i>
   <i name="OMEGATL">   -200.00000000</i>
   <i type="int" name="OMEGAGRID">   140</i>
   <i name="CSHIFT">     -0.10000000</i>
   <i type="logical" name="SELFENERGY"> F  </i>
   <i type="logical" name="LSPECTRAL"> F  </i>
   <i type="logical" name="LSPECTRALGW"> F  </i>
   <i type="logical" name="LSINGLES"> F  </i>
   <i type="logical" name="LFERMIGW"> F  </i>
   <i type="logical" name="ODDONLYGW"> F  </i>
   <i type="logical" name="EVENONLYGW"> F  </i>
   <i type="int" name="NKREDLFX">     1</i>
   <i type="int" name="NKREDLFY">     1</i>
   <i type="int" name="NKREDLFZ">     1</i>
   <i type="int" name="MAXMEM">  2800</i>
   <i type="int" name="TELESCOPE">     0</i>
   <i type="int" name="TAUPAR">     1</i>
   <i type="int" name="OMEGAPAR">    -1</i>
   <i name="LAMBDA">      1.00000000</i>
  </separator>
  <separator name="External order field" >
   <i name="OFIELD_KAPPA">      0.00000000</i>
   <v name="OFIELD_K">      0.00000000      0.00000000      0.00000000</v>
   <i name="OFIELD_Q6_NEAR">      0.00000000</i>
   <i name="OFIELD_Q6_FAR">      0.00000000</i>
   <i name="OFIELD_A">      0.00000000</i>
  </separator>
 </parameters>
 <atominfo>
  <atoms>      28 </atoms>
  <types>       2 </types>
  <array name="atoms" >
   <dimension dim="1">ion</dimension>
   <field type="string">element</field>
   <field type="int">atomtype</field>
   <set>
    <rc><c>N </c><c>   1</c></rc>
    <rc><c>N </c><c>   1</c></rc>
    <rc><c>N </c><c>   1</c></rc>
    <rc><c>N </c><c>   1</c></rc>
    <rc><c>N </c><c>   1</c></rc>
    <rc><c>N </c><c>   1</c></rc>
    <rc><c>N </c><c>   1</c></rc>
    <rc><c>N </c><c>   1</c></rc>
    <rc><c>N </c><c>   1</c></rc>
    <rc><c>N </c><c>   1</c></rc>
    <rc><c>N </c><c>   1</c></rc>
    <rc><c>N </c><c>   1</c></rc>
    <rc><c>Si</c><c>   2</c></rc>
    <rc><c>Si</c><c>   2</c></rc>
    <rc><c>Si</c><c>   2</c></rc>
    <rc><c>Si</c><c>   2</c></rc>
    <rc><c>Si</c><c>   2</c></rc>
    <rc><c>Si</c><c>   2</c></rc>
    <rc><c>Si</c><c>   2</c></rc>
    <rc><c>Si</c><c>   2</c></rc>
    <rc><c>Si</c><c>   2</c></rc>
    <rc><c>Si</c><c>   2</c></rc>
    <rc><c>Si</c><c>   2</c></rc>
    <rc><c>Si</c><c>   2</c></rc>
    <rc><c>Si</c><c>   2</c></rc>
    <rc><c>Si</c><c>   2</c></rc>
    <rc><c>Si</c><c>   2</c></rc>
    <rc><c>Si</c><c>   2</c></rc>
   </set>
  </array>
  <array name="atomtypes" >
   <dimension dim="1">type</dimension>
   <field type="int">atomspertype</field>
   <field type="string">element</field>
   <field>mass</field>
   <field>valence</field>
   <field type="string">pseudopotential</field>
   <set>
    <rc><c>  12</c><c>N </c><c>     14.00100000</c><c>      5.00000000</c><c>  PAW_PBE N 08Apr2002                   </c></rc>
    <rc><c>  16</c><c>Si</c><c>     28.08500000</c><c>      4.00000000</c><c>  PAW_PBE Si 05Jan2001                  </c></rc>
   </set>
  </array>
 </atominfo>
 <structure name="initialpos" >
  <crystal>
   <varray name="basis" >
    <v>       3.87612210      -6.71364041       0.00000000 </v>
    <v>       3.87612210       6.71364041       0.00000000 </v>
    <v>       0.00000000       0.00000000       5.61885196 </v>
   </varray>
   <i name="volume">    292.43753257 </i>
   <varray name="rec_basis" >
    <v>       0.12899490      -0.07447524       0.00000000 </v>
    <v>       0.12899490       0.07447524       0.00000000 </v>
    <v>       0.00000000       0.00000000       0.17797230 </v>
   </varray>
  </crystal>
  <varray name="positions" >
   <v>       0.08183856       0.56959356       0.19639718 </v>
   <v>       0.48775500       0.91816144       0.19639718 </v>
   <v>       0.91376937       0.16718716       0.98847927 </v>
   <v>       0.56959356       0.08183856       0.69639718 </v>
   <v>       0.08623063       0.25341779       0.48847927 </v>
   <v>       0.16718716       0.91376937       0.48847927 </v>
   <v>       0.43040644       0.51224500       0.19639718 </v>
   <v>       0.74658221       0.83281284       0.48847927 </v>
   <v>       0.91816144       0.48775500       0.69639718 </v>
   <v>       0.51224500       0.43040644       0.69639718 </v>
   <v>       0.83281284       0.74658221       0.98847927 </v>
   <v>       0.25341779       0.08623063       0.98847927 </v>
   <v>       0.34445222       0.39000089       0.46906888 </v>
   <v>       0.04554867       0.65554778       0.46906888 </v>
   <v>       0.39000089       0.34445222       0.96906888 </v>
   <v>       0.60999911       0.95445133       0.46906888 </v>
   <v>       0.00000000       0.00000000       0.98900807 </v>
   <v>       0.99637858       0.31473305       0.73484545 </v>
   <v>       0.00000000       0.00000000       0.48900807 </v>
   <v>       0.66666667       0.33333333       0.64074727 </v>
   <v>       0.68164553       0.68526695       0.23484545 </v>
   <v>       0.65554778       0.04554867       0.96906888 </v>
   <v>       0.95445133       0.60999911       0.96906888 </v>
   <v>       0.33333333       0.66666667       0.14074727 </v>
   <v>       0.00362142       0.31835447       0.23484545 </v>
   <v>       0.31835447       0.00362142       0.73484545 </v>
   <v>       0.68526695       0.68164553       0.73484545 </v>
   <v>       0.31473305       0.99637858       0.23484545 </v>
  </varray>
 </structure>
 <calculation>
  <scstep>
   <time name="dav">    9.36    9.36</time>
   <time name="total">    9.40    9.41</time>
   <energy>
    <i name="alphaZ">    166.74370111 </i>
    <i name="ewald">  -4442.89778445 </i>
    <i name="hartreedc">  -1048.62272693 </i>
    <i name="XCdc">    112.71054226 </i>
    <i name="pawpsdc">   3869.17357318 </i>
    <i name="pawaedc">  -3601.97287308 </i>
    <i name="eentropy">      0.00021491 </i>
    <i name="bandstr">    626.90129429 </i>
    <i name="atom">   4822.75196862 </i>
    <i name="e_fr_energy">    504.78790991 </i>
    <i name="e_wo_entrp">    504.78769500 </i>
    <i name="e_0_energy">    504.78785618 </i>
   </energy>
  </scstep>
  <scstep>
   <time name="dav">   11.43   11.43</time>
   <time name="total">   11.43   11.44</time>
   <energy>
    <i name="e_fr_energy">   -132.58061460 </i>
    <i name="e_wo_entrp">   -132.57997397 </i>
    <i name="e_0_energy">   -132.58045444 </i>
   </energy>
  </scstep>
  <scstep>
   <time name="dav">   11.39   11.40</time>
   <time name="total">   11.39   11.41</time>
   <energy>
    <i name="e_fr_energy">   -182.63775160 </i>
    <i name="e_wo_entrp">   -182.64034029 </i>
    <i name="e_0_energy">   -182.63839878 </i>
   </energy>
  </scstep>
  <scstep>
   <time name="dav">   11.36   11.37</time>
   <time name="total">   11.36   11.37</time>
   <energy>
    <i name="e_fr_energy">   -184.09452147 </i>
    <i name="e_wo_entrp">   -184.09625697 </i>
    <i name="e_0_energy">   -184.09495534 </i>
   </energy>
  </scstep>
  <scstep>
   <time name="dav">   11.34   11.36</time>
   <time name="total">   11.73   11.74</time>
   <energy>
    <i name="e_fr_energy">   -184.13750365 </i>
    <i name="e_wo_entrp">   -184.13923792 </i>
    <i name="e_0_energy">   -184.13793722 </i>
   </energy>
  </scstep>
  <scstep>
   <time name="diag">    1.13    1.13</time>
   <time name="diis">    5.82    5.82</time>
   <time name="orth">    0.19    0.19</time>
   <time name="total">    7.56    7.57</time>
   <energy>
    <i name="e_fr_energy">   -162.13795453 </i>
    <i name="e_wo_entrp">   -162.13949782 </i>
    <i name="e_0_energy">   -162.13834036 </i>
   </energy>
  </scstep>
  <scstep>
   <time name="diag">    1.11    1.11</time>
   <time name="diis">    6.10    6.10</time>
   <time name="orth">    0.19    0.19</time>
   <time name="total">    7.81    7.82</time>
   <energy>
    <i name="e_fr_energy">   -161.95749692 </i>
    <i name="e_wo_entrp">   -161.95908085 </i>
    <i name="e_0_energy">   -161.95789290 </i>
   </energy>
  </scstep>
  <scstep>
   <time name="diag">    1.11    1.11</time>
   <time name="diis">    5.83    5.83</time>
   <time name="orth">    0.18    0.18</time>
   <time name="total">    7.52    7.53</time>
   <energy>
    <i name="e_fr_energy">   -161.82549305 </i>
    <i name="e_wo_entrp">   -161.82715872 </i>
    <i name="e_0_energy">   -161.82590947 </i>
   </energy>
  </scstep>
  <scstep>
   <time name="diag">    1.09    1.09</time>
   <time name="diis">    6.36    6.36</time>
   <time name="orth">    0.19    0.19</time>
   <time name="total">    8.04    8.05</time>
   <energy>
    <i name="e_fr_energy">   -161.79806806 </i>
    <i name="e_wo_entrp">   -161.79969632 </i>
    <i name="e_0_energy">   -161.79847513 </i>
   </energy>
  </scstep>
  <scstep>
   <time name="diag">    1.08    1.08</time>
   <time name="diis">    6.54    6.54</time>
   <time name="orth">    0.19    0.19</time>
   <time name="total">    8.22    8.22</time>
   <energy>
    <i name="e_fr_energy">   -161.79912685 </i>
    <i name="e_wo_entrp">   -161.80076606 </i>
    <i name="e_0_energy">   -161.79953665 </i>
   </energy>
  </scstep>
  <scstep>
   <time name="diag">    1.12    1.12</time>
   <time name="diis">    6.24    6.24</time>
   <time name="orth">    0.19    0.19</time>
   <time name="total">    7.95    7.96</time>
   <energy>
    <i name="e_fr_energy">   -161.79834924 </i>
    <i name="e_wo_entrp">   -161.79998358 </i>
    <i name="e_0_energy">   -161.79875782 </i>
   </energy>
  </scstep>
  <scstep>
   <time name="diag">    1.10    1.10</time>
   <time name="diis">    4.44    4.44</time>
   <time name="orth">    0.18    0.18</time>
   <time name="total">    5.76    5.78</time>
   <energy>
    <i name="alphaZ">    166.74370111 </i>
    <i name="ewald">  -4442.89778445 </i>
    <i name="hartreedc">  -1229.01650488 </i>
    <i name="XCdc">    126.64479183 </i>
    <i name="pawpsdc">  20903.16637036 </i>
    <i name="pawaedc"> -20640.28355739 </i>
    <i name="eentropy">      0.00163027 </i>
    <i name="bandstr">    131.09102978 </i>
    <i name="atom">   4822.75196862 </i>
    <i name="e_fr_energy">   -161.79835474 </i>
    <i name="e_wo_entrp">   -161.79998501 </i>
    <i name="e_0_energy">   -161.79876231 </i>
   </energy>
  </scstep>
  <structure>
   <crystal>
    <varray name="basis" >
     <v>       3.87612210      -6.71364041       0.00000000 </v>
     <v>       3.87612210       6.71364041       0.00000000 </v>
     <v>       0.00000000       0.00000000       5.61885196 </v>
    </varray>
    <i name="volume">    292.43753257 </i>
    <varray name="rec_basis" >
     <v>       0.12899490      -0.07447524       0.00000000 </v>
     <v>       0.12899490       0.07447524       0.00000000 </v>
     <v>       0.00000000       0.00000000       0.17797230 </v>
    </varray>
   </crystal>
   <varray name="positions" >
    <v>       0.08183856       0.56959356       0.19639718 </v>
    <v>       0.48775500       0.91816144       0.19639718 </v>
    <v>       0.91376937       0.16718716       0.98847927 </v>
    <v>       0.56959356       0.08183856       0.69639718 </v>
    <v>       0.08623063       0.25341779       0.48847927 </v>
    <v>       0.16718716       0.91376937       0.48847927 </v>
    <v>       0.43040644       0.51224500       0.19639718 </v>
    <v>       0.74658221       0.83281284       0.48847927 </v>
    <v>       0.91816144       0.48775500       0.69639718 </v>
    <v>       0.51224500       0.43040644       0.69639718 </v>
    <v>       0.83281284       0.74658221       0.98847927 </v>
    <v>       0.25341779       0.08623063       0.98847927 </v>
    <v>       0.34445222       0.39000089       0.46906888 </v>
    <v>       0.04554867       0.65554778       0.46906888 </v>
    <v>       0.39000089       0.34445222       0.96906888 </v>
    <v>       0.60999911       0.95445133       0.46906888 </v>
    <v>       0.00000000       0.00000000       0.98900807 </v>
    <v>       0.99637858       0.31473305       0.73484545 </v>
    <v>       0.00000000       0.00000000       0.48900807 </v>
    <v>       0.66666667       0.33333333       0.64074727 </v>
    <v>       0.68164553       0.68526695       0.23484545 </v>
    <v>       0.65554778       0.04554867       0.96906888 </v>
    <v>       0.95445133       0.60999911       0.96906888 </v>
    <v>       0.33333333       0.66666667       0.14074727 </v>
    <v>       0.00362142       0.31835447       0.23484545 </v>
    <v>       0.31835447       0.00362142       0.73484545 </v>
    <v>       0.68526695       0.68164553       0.73484545 </v>
    <v>       0.31473305       0.99637858       0.23484545 </v>
   </varray>
  </structure>
  <varray name="forces" >
   <v>      -1.35281851      -0.61711286       0.76888768 </v>
   <v>       0.14197384       1.48013162       0.76888768 </v>
   <v>       0.11485919       1.56884010      -0.37912254 </v>
   <v>      -1.35281851       0.61711286       0.76888768 </v>
   <v>       1.30122578       0.88389103      -0.37912254 </v>
   <v>       0.11485919      -1.56884010      -0.37912254 </v>
   <v>       1.21084467      -0.86301877       0.76888768 </v>
   <v>      -1.41608497       0.68494907      -0.37912254 </v>
   <v>       0.14197384      -1.48013162       0.76888768 </v>
   <v>       1.21084467       0.86301877       0.76888768 </v>
   <v>      -1.41608497      -0.68494907      -0.37912254 </v>
   <v>       1.30122578      -0.88389103      -0.37912254 </v>
   <v>      -1.09524521      -1.34703665       0.03159246 </v>
   <v>      -0.61894536       1.62202850       0.03159246 </v>
   <v>      -1.09524521       1.34703665       0.03159246 </v>
   <v>       1.71419057      -0.27499185       0.03159246 </v>
   <v>      -0.00000000      -0.00000000       0.09041111 </v>
   <v>       1.78701371      -2.49145368       0.73946804 </v>
   <v>      -0.00000000      -0.00000000       0.09041111 </v>
   <v>      -0.00000000      -0.00000000      -3.57288804 </v>
   <v>       1.26415532      -2.79332611       0.73946804 </v>
   <v>      -0.61894536      -1.62202850       0.03159246 </v>
   <v>       1.71419057       0.27499185       0.03159246 </v>
   <v>      -0.00000000      -0.00000000      -3.57288804 </v>
   <v>      -3.05116904       0.30187243       0.73946804 </v>
   <v>      -3.05116904      -0.30187243       0.73946804 </v>
   <v>       1.26415532       2.79332611       0.73946804 </v>
   <v>       1.78701371       2.49145368       0.73946804 </v>
  </varray>
  <varray name="stress" >
   <v>     396.24642918       0.00000000      -0.00000000 </v>
   <v>       0.00000000     396.24642918       0.00000000 </v>
   <v>       0.00000000       0.00000000     397.96010408 </v>
  </varray>
  <energy>
   <i name="e_fr_energy">   -161.79835474 </i>
   <i name="e_wo_entrp">   -161.79876231 </i>
   <i name="e_0_energy">      0.00163027 </i>
  </energy>
  <time name="totalsc">  120.42  120.57</time>
 </calculation>
 <calculation>
  <scstep>
   <time name="dav">    8.30    8.30</time>
   <time name="total">    8.71    8.72</time>
   <energy>
    <i name="alphaZ">    117.17442663 </i>
    <i name="ewald">  -4000.44265032 </i>
    <i name="hartreedc">  -1058.31571711 </i>
    <i name="XCdc">     83.72128012 </i>
    <i name="pawpsdc">  20902.82194420 </i>
    <i name="pawaedc"> -20639.94025816 </i>
    <i name="eentropy">      0.00382575 </i>
    <i name="bandstr">   -426.16872351 </i>
    <i name="atom">   4822.75196862 </i>
    <i name="e_fr_energy">   -198.39390379 </i>
    <i name="e_wo_entrp">   -198.39772954 </i>
    <i name="e_0_energy">   -198.39486022 </i>
   </energy>
  </scstep>
  <scstep>
   <time name="diag">    1.10    1.10</time>
   <time name="diis">    5.28    5.28</time>
   <time name="orth">    0.19    0.19</time>
   <time name="total">    6.99    7.00</time>
   <energy>
    <i name="e_fr_energy">   -169.66080868 </i>
    <i name="e_wo_entrp">   -169.66851626 </i>
    <i name="e_0_energy">   -169.66273557 </i>
   </energy>
  </scstep>
  <scstep>
   <time name="diag">    1.11    1.11</time>
   <time name="diis">    5.34    5.34</time>
   <time name="orth">    0.19    0.19</time>
   <time name="total">    7.06    7.07</time>
   <energy>
    <i name="e_fr_energy">   -167.74111952 </i>
    <i name="e_wo_entrp">   -167.74181970 </i>
    <i name="e_0_energy">   -167.74129457 </i>
   </energy>
  </scstep>
  <scstep>
   <time name="diag">    1.10    1.10</time>
   <time name="diis">    5.14    5.14</time>
   <time name="orth">    0.19    0.19</time>
   <time name="total">    6.85    6.86</time>
   <energy>
    <i name="e_fr_energy">   -167.07125675 </i>
    <i name="e_wo_entrp">   -167.07301811 </i>
    <i name="e_0_energy">   -167.07169709 </i>
   </energy>
  </scstep>
  <scstep>
   <time name="diag">    1.11    1.11</time>
   <time name="diis">    5.32    5.32</time>
   <time name="orth">    0.19    0.19</time>
   <time name="total">    7.04    7.05</time>
   <energy>
    <i name="e_fr_energy">   -166.95505923 </i>
    <i name="e_wo_entrp">   -166.95562313 </i>
    <i name="e_0_energy">   -166.95520020 </i>
   </energy>
  </scstep>
  <scstep>
   <time name="diag">    1.11    1.11</time>
   <time name="diis">    5.71    5.71</time>
   <time name="orth">    0.19    0.19</time>
   <time name="total">    7.44    7.45</time>
   <energy>
    <i name="e_fr_energy">   -166.94753381 </i>
    <i name="e_wo_entrp">   -166.94793949 </i>
    <i name="e_0_energy">   -166.94763523 </i>
   </energy>
  </scstep>
  <scstep>
   <time name="diag">    1.12    1.12</time>
   <time name="diis">    5.51    5.51</time>
   <time name="orth">    0.19    0.19</time>
   <time name="total">    7.25    7.26</time>
   <energy>
    <i name="e_fr_energy">   -166.94798313 </i>
    <i name="e_wo_entrp">   -166.94844886 </i>
    <i name="e_0_energy">   -166.94809956 </i>
   </energy>
  </scstep>
  <scstep>
   <time name="diag">    1.12    1.12</time>
   <time name="diis">    5.34    5.34</time>
   <time name="orth">    0.19    0.19</time>
   <time name="total">    7.08    7.09</time>
   <energy>
    <i name="e_fr_energy">   -166.94654781 </i>
    <i name="e_wo_entrp">   -166.94699401 </i>
    <i name="e_0_energy">   -166.94665936 </i>
   </energy>
  </scstep>
  <scstep>
   <time name="diag">    1.10    1.10</time>
   <time name="diis">    3.93    3.93</time>
   <time name="orth">    0.19    0.19</time>
   <time name="total">    5.27    5.27</time>
   <energy>
    <i name="alphaZ">    117.17442663 </i>
    <i name="ewald">  -4000.44265032 </i>
    <i name="hartreedc">  -1304.25020544 </i>
    <i name="XCdc">     96.63505375 </i>
    <i name="pawpsdc">   9986.80846407 </i>
    <i name="pawaedc">  -9720.73375089 </i>
    <i name="eentropy">      0.00045841 </i>
    <i name="bandstr">   -164.89024071 </i>
    <i name="atom">   4822.75196862 </i>
    <i name="e_fr_energy">   -166.94647590 </i>
    <i name="e_wo_entrp">   -166.94693430 </i>
    <i name="e_0_energy">   -166.94659050 </i>
   </energy>
  </scstep>
  <structure>
   <crystal>
    <varray name="basis" >
     <v>       4.35913474      -7.55024285      -0.00000000 </v>
     <v>       4.35913474       7.55024285      -0.00000000 </v>
     <v>       0.00000000       0.00000000       6.32205836 </v>
    </varray>
    <i name="volume">    416.14981977 </i>
    <varray name="rec_basis" >
     <v>       0.11470166      -0.06622304      -0.00000000 </v>
     <v>       0.11470166       0.06622304      -0.00000000 </v>
     <v>       0.00000000       0.00000000       0.15817633 </v>
    </varray>
   </crystal>
   <varray name="positions" >
    <v>       0.07563711       0.55895768       0.20299874 </v>
    <v>       0.48332057       0.92436289       0.20299874 </v>
    <v>       0.90884749       0.17353859       0.98522418 </v>
    <v>       0.55895768       0.07563711       0.70299874 </v>
    <v>       0.09115251       0.26469111       0.48522418 </v>
    <v>       0.17353859       0.90884749       0.48522418 </v>
    <v>       0.44104232       0.51667943       0.20299874 </v>
    <v>       0.73530889       0.82646141       0.48522418 </v>
    <v>       0.92436289       0.48332057       0.70299874 </v>
    <v>       0.51667943       0.44104232       0.70299874 </v>
    <v>       0.82646141       0.73530889       0.98522418 </v>
    <v>       0.26469111       0.09115251       0.98522418 </v>
    <v>       0.34247619       0.37834537       0.46934013 </v>
    <v>       0.03586918       0.65752381       0.46934013 </v>
    <v>       0.37834537       0.34247619       0.96934013 </v>
    <v>       0.62165463       0.96413082       0.46934013 </v>
    <v>      -0.00000000      -0.00000000       0.98978433 </v>
    <v>       0.01645077       0.31690223       0.74119442 </v>
    <v>      -0.00000000      -0.00000000       0.48978433 </v>
    <v>       0.66666667       0.33333333       0.61007097 </v>
    <v>       0.69954854       0.68309777       0.24119442 </v>
    <v>       0.65752381       0.03586918       0.96934013 </v>
    <v>       0.96413082       0.62165463       0.96934013 </v>
    <v>       0.33333333       0.66666667       0.11007097 </v>
    <v>      -0.01645077       0.30045146       0.24119442 </v>
    <v>       0.30045146      -0.01645077       0.74119442 </v>
    <v>       0.68309777       0.69954854       0.74119442 </v>
    <v>       0.31690223       0.01645077       0.24119442 </v>
   </varray>
  </structure>
  <varray name="forces" >
   <v>      -0.56796997      -0.44670632       0.69100632 </v>
   <v>      -0.10287404       0.71522958       0.69100632 </v>
   <v>       0.08099445       0.59673271      -0.43574801 </v>
   <v>      -0.56796997       0.44670632       0.69100632 </v>
   <v>       0.47628846       0.36850960      -0.43574801 </v>
   <v>       0.08099445      -0.59673271      -0.43574801 </v>
   <v>       0.67084400      -0.26852326       0.69100632 </v>
   <v>      -0.55728291       0.22822311      -0.43574801 </v>
   <v>      -0.10287404      -0.71522958       0.69100632 </v>
   <v>       0.67084400       0.26852326       0.69100632 </v>
   <v>      -0.55728291      -0.22822311      -0.43574801 </v>
   <v>       0.47628846      -0.36850960      -0.43574801 </v>
   <v>       0.12060097      -1.30505672      -0.46266753 </v>
   <v>      -1.19051275       0.54808485      -0.46266753 </v>
   <v>       0.12060097       1.30505672      -0.46266753 </v>
   <v>       1.06991178       0.75697186      -0.46266753 </v>
   <v>      -0.00000000      -0.00000000      -0.03931620 </v>
   <v>       1.35445829      -0.09104223       0.66493902 </v>
   <v>      -0.00000000      -0.00000000      -0.03931620 </v>
   <v>      -0.00000000      -0.00000000      -1.33327317 </v>
   <v>      -0.59838426      -1.21851640       0.66493902 </v>
   <v>      -1.19051275      -0.54808485      -0.46266753 </v>
   <v>       1.06991178      -0.75697186      -0.46266753 </v>
   <v>      -0.00000000      -0.00000000      -1.33327317 </v>
   <v>      -0.75607403       1.12747417       0.66493902 </v>
   <v>      -0.75607403      -1.12747417       0.66493902 </v>
   <v>      -0.59838426       1.21851640       0.66493902 </v>
   <v>       1.35445829       0.09104223       0.66493902 </v>
  </varray>
  <varray name="stress" >
   <v>    -193.87733218       0.00000000       0.00000000 </v>
   <v>       0.00000000    -193.87733218       0.00000000 </v>
   <v>      -0.00000000       0.00000000    -210.48054913 </v>
  </varray>
  <energy>
   <i name="e_fr_energy">   -166.94647590 </i>
   <i name="e_wo_entrp">   -166.94659050 </i>
   <i name="e_0_energy">      0.00045841 </i>
  </energy>
  <time name="totalsc">   73.88   73.99</time>
 </calculation>
 <calculation>
  <scstep>
   <time name="dav">    8.49    8.49</time>
   <time name="total">    8.90    8.91</time>
   <energy>
    <i name="alphaZ">    135.61658859 </i>
    <i name="ewald">  -4179.18906253 </i>
    <i name="hartreedc">  -1384.42863419 </i>
    <i name="XCdc">    114.21035891 </i>
    <i name="pawpsdc">   9999.29908363 </i>
    <i name="pawaedc">  -9733.22703288 </i>
    <i name="eentropy">      0.00396053 </i>
    <i name="bandstr">     48.17058568 </i>
    <i name="atom">   4822.75196862 </i>
    <i name="e_fr_energy">   -176.79218365 </i>
    <i name="e_wo_entrp">   -176.79614418 </i>
    <i name="e_0_energy">   -176.79317378 </i>
   </energy>
  </scstep>
  <scstep>
   <time name="diag">    1.11    1.11</time>
   <time name="diis">    5.49    5.49</time>
   <time name="orth">    0.19    0.19</time>
   <time name="total">    7.21    7.22</time>
   <energy>
    <i name="e_fr_energy">   -171.04159705 </i>
    <i name="e_wo_entrp">   -171.04409424 </i>
    <i name="e_0_energy">   -171.04222135 </i>
   </energy>
  </scstep>
  <scstep>
   <time name="diag">    1.11    1.11</time>
   <time name="diis">    5.54    5.54</time>
   <time name="orth">    0.19    0.19</time>
   <time name="total">    7.26    7.26</time>
   <energy>
    <i name="e_fr_energy">   -170.71093902 </i>
    <i name="e_wo_entrp">   -170.71406341 </i>
    <i name="e_0_energy">   -170.71172012 </i>
   </energy>
  </scstep>
  <scstep>
   <time name="diag">    1.12    1.12</time>
   <time name="diis">    5.31    5.31</time>
   <time name="orth">    0.18    0.18</time>
   <time name="total">    7.03    7.03</time>
   <energy>
    <i name="e_fr_energy">   -170.55912051 </i>
    <i name="e_wo_entrp">   -170.56283708 </i>
    <i name="e_0_energy">   -170.56004965 </i>
   </energy>
  </scstep>
  <scstep>
   <time name="diag">    1.09    1.09</time>
   <time name="diis">    5.71    5.71</time>
   <time name="orth">    0.18    0.18</time>
   <time name="total">    7.40    7.41</time>
   <energy>
    <i name="e_fr_energy">   -170.53739122 </i>
    <i name="e_wo_entrp">   -170.54107714 </i>
    <i name="e_0_energy">   -170.53831270 </i>
   </energy>
  </scstep>
  <scstep>
   <time name="diag">    1.11    1.11</time>
   <time name="diis">    5.90    5.90</time>
   <time name="orth">    0.18    0.18</time>
   <time name="total">    7.61    7.62</time>
   <energy>
    <i name="e_fr_energy">   -170.53930627 </i>
    <i name="e_wo_entrp">   -170.54286465 </i>
    <i name="e_0_energy">   -170.54019586 </i>
   </energy>
  </scstep>
  <scstep>
   <time name="diag">    1.09    1.09</time>
   <time name="diis">    5.41    5.41</time>
   <time name="orth">    0.18    0.18</time>
   <time name="total">    7.10    7.10</time>
   <energy>
    <i name="e_fr_energy">   -170.53536589 </i>
    <i name="e_wo_entrp">   -170.53902563 </i>
    <i name="e_0_energy">   -170.53628083 </i>
   </energy>
  </scstep>
  <scstep>
   <time name="diag">    1.09    1.10</time>
   <time name="diis">    5.38    5.38</time>
   <time name="orth">    0.18    0.18</time>
   <time name="total">    6.69    6.70</time>
   <energy>
    <i name="alphaZ">    135.61658859 </i>
    <i name="ewald">  -4179.18906253 </i>
    <i name="hartreedc">  -1266.48336788 </i>
    <i name="XCdc">    108.18838936 </i>
    <i name="pawpsdc">  13093.40377361 </i>
    <i name="pawaedc"> -12828.39497072 </i>
    <i name="eentropy">      0.00366787 </i>
    <i name="bandstr">    -56.43240045 </i>
    <i name="atom">   4822.75196862 </i>
    <i name="e_fr_energy">   -170.53541353 </i>
    <i name="e_wo_entrp">   -170.53908140 </i>
    <i name="e_0_energy">   -170.53633050 </i>
   </energy>
  </scstep>
  <structure>
   <crystal>
    <varray name="basis" >
     <v>       4.15210233      -7.19165220      -0.00000000 </v>
     <v>       4.15210233       7.19165220      -0.00000000 </v>
     <v>       0.00000000       0.00000000       6.02064489 </v>
    </varray>
    <i name="volume">    359.55864274 </i>
    <varray name="rec_basis" >
     <v>       0.12042092      -0.06952505      -0.00000000 </v>
     <v>       0.12042092       0.06952505      -0.00000000 </v>
     <v>       0.00000000       0.00000000       0.16609516 </v>
    </varray>
   </crystal>
   <varray name="positions" >
    <v>       0.07800069       0.56301137       0.20048387 </v>
    <v>       0.48501068       0.92199931       0.20048387 </v>
    <v>       0.91072338       0.17111785       0.98646421 </v>
    <v>       0.56301137       0.07800069       0.70048387 </v>
    <v>       0.08927662       0.26039447       0.48646421 </v>
    <v>       0.17111785       0.91072338       0.48646421 </v>
    <v>       0.43698863       0.51498932       0.20048387 </v>
    <v>       0.73960553       0.82888215       0.48646421 </v>
    <v>       0.92199931       0.48501068       0.70048387 </v>
    <v>       0.51498932       0.43698863       0.70048387 </v>
    <v>       0.82888215       0.73960553       0.98646421 </v>
    <v>       0.26039447       0.08927662       0.98646421 </v>
    <v>       0.34322932       0.38278768       0.46923680 </v>
    <v>       0.03955836       0.65677068       0.46923680 </v>
    <v>       0.38278768       0.34322932       0.96923680 </v>
    <v>       0.61721232       0.96044164       0.46923680 </v>
    <v>      -0.00000000      -0.00000000       0.98948861 </v>
    <v>       0.00880059       0.31607549       0.73877577 </v>
    <v>      -0.00000000      -0.00000000       0.48948861 </v>
    <v>       0.66666667       0.33333333       0.62175713 </v>
    <v>       0.69272510       0.68392451       0.23877577 </v>
    <v>       0.65677068       0.03955836       0.96923680 </v>
    <v>       0.96044164       0.61721232       0.96923680 </v>
    <v>       0.33333333       0.66666667       0.12175713 </v>
    <v>      -0.00880059       0.30727490       0.23877577 </v>
    <v>       0.30727490      -0.00880059       0.73877577 </v>
    <v>       0.68392451       0.69272510       0.73877577 </v>
    <v>       0.31607549       0.00880059       0.23877577 </v>
   </varray>
  </structure>
  <varray name="forces" >
   <v>      -0.87826999      -0.69886555       0.82859159 </v>
   <v>      -0.16610032       1.11003690       0.82859159 </v>
   <v>       0.15306157       0.50127209      -0.52624012 </v>
   <v>      -0.87826999       0.69886555       0.82859159 </v>
   <v>       0.35758358       0.38319125      -0.52624012 </v>
   <v>       0.15306157      -0.50127209      -0.52624012 </v>
   <v>       1.04437032      -0.41117135       0.82859159 </v>
   <v>      -0.51064515       0.11808084      -0.52624012 </v>
   <v>      -0.16610032      -1.11003690       0.82859159 </v>
   <v>       1.04437032       0.41117135       0.82859159 </v>
   <v>      -0.51064515      -0.11808084      -0.52624012 </v>
   <v>       0.35758358      -0.38319125      -0.52624012 </v>
   <v>      -0.16303179      -1.47300056      -0.30311046 </v>
   <v>      -1.19414001       0.87768996      -0.30311046 </v>
   <v>      -0.16303179       1.47300056      -0.30311046 </v>
   <v>       1.35717180       0.59531061      -0.30311046 </v>
   <v>       0.00000000       0.00000000       0.00361460 </v>
   <v>       1.50250551      -0.80444406       0.76136172 </v>
   <v>       0.00000000      -0.00000000       0.00361460 </v>
   <v>       0.00000000      -0.00000000      -2.28542278 </v>
   <v>      -0.05458376      -1.70342997       0.76136172 </v>
   <v>      -1.19414001      -0.87768996      -0.30311046 </v>
   <v>       1.35717180      -0.59531061      -0.30311046 </v>
   <v>       0.00000000       0.00000000      -2.28542278 </v>
   <v>      -1.44792175       0.89898591       0.76136172 </v>
   <v>      -1.44792175      -0.89898591       0.76136172 </v>
   <v>      -0.05458376       1.70342997       0.76136172 </v>
   <v>       1.50250551       0.80444406       0.76136172 </v>
  </varray>
  <varray name="stress" >
   <v>     -64.08715574       0.00000000      -0.00000000 </v>
   <v>       0.00000000     -64.08715574       0.00000000 </v>
   <v>      -0.00000000       0.00000000     -49.85043194 </v>
  </varray>
  <energy>
   <i name="e_fr_energy">   -170.53541353 </i>
   <i name="e_wo_entrp">   -170.53633050 </i>
   <i name="e_0_energy">      0.00366787 </i>
  </energy>
  <time name="totalsc">   70.39   70.45</time>
 </calculation>
 <calculation>
  <scstep>
   <time name="dav">    9.65    9.65</time>
   <time name="total">   10.06   10.06</time>
   <energy>
    <i name="alphaZ">    136.48411831 </i>
    <i name="ewald">  -4187.16582361 </i>
    <i name="hartreedc">  -1269.61750700 </i>
    <i name="XCdc">    108.95339732 </i>
    <i name="pawpsdc">  13088.56651160 </i>
    <i name="pawaedc"> -12823.55494532 </i>
    <i name="eentropy">      0.00324781 </i>
    <i name="bandstr">    -46.97370914 </i>
    <i name="atom">   4822.75196862 </i>
    <i name="e_fr_energy">   -170.55274142 </i>
    <i name="e_wo_entrp">   -170.55598922 </i>
    <i name="e_0_energy">   -170.55355337 </i>
   </energy>
  </scstep>
  <scstep>
   <time name="diag">    1.11    1.11</time>
   <time name="diis">    5.60    5.60</time>
   <time name="orth">    0.19    0.19</time>
   <time name="total">    7.30    7.31</time>
   <energy>
    <i name="e_fr_energy">   -170.54288035 </i>
    <i name="e_wo_entrp">   -170.54604117 </i>
    <i name="e_0_energy">   -170.54367055 </i>
   </energy>
  </scstep>
  <scstep>
   <time name="diag">    1.12    1.12</time>
   <time name="diis">    5.62    5.62</time>
   <time name="orth">    0.18    0.18</time>
   <time name="total">    7.35    7.35</time>
   <energy>
    <i name="e_fr_energy">   -170.54228237 </i>
    <i name="e_wo_entrp">   -170.54546707 </i>
    <i name="e_0_energy">   -170.54307854 </i>
   </energy>
  </scstep>
  <scstep>
   <time name="diag">    1.12    1.12</time>
   <time name="diis">    5.12    5.12</time>
   <time name="orth">    0.19    0.19</time>
   <time name="total">    6.84    6.84</time>
   <energy>
    <i name="e_fr_energy">   -170.54203280 </i>
    <i name="e_wo_entrp">   -170.54523627 </i>
    <i name="e_0_energy">   -170.54283367 </i>
   </energy>
  </scstep>
  <scstep>
   <time name="diag">    1.11    1.11</time>
   <time name="diis">    3.48    3.48</time>
   <time name="orth">    0.18    0.18</time>
   <time name="total">    4.82    4.82</time>
   <energy>
    <i name="alphaZ">    136.48411831 </i>
    <i name="ewald">  -4187.16582361 </i>
    <i name="hartreedc">  -1264.95748251 </i>
    <i name="XCdc">    108.71282830 </i>
    <i name="pawpsdc">  13276.22775466 </i>
    <i name="pawaedc"> -13011.26166442 </i>
    <i name="eentropy">      0.00320752 </i>
    <i name="bandstr">    -51.33691925 </i>
    <i name="atom">   4822.75196862 </i>
    <i name="e_fr_energy">   -170.54201239 </i>
    <i name="e_wo_entrp">   -170.54521991 </i>
    <i name="e_0_energy">   -170.54281427 </i>
   </energy>
  </scstep>
  <structure>
   <crystal>
    <varray name="basis" >
     <v>       4.14329818      -7.17640296      -0.00000000 </v>
     <v>       4.14329818       7.17640296      -0.00000000 </v>
     <v>       0.00000000       0.00000000       6.00782714 </v>
    </varray>
    <i name="volume">    357.27319141 </i>
    <varray name="rec_basis" >
     <v>       0.12067681      -0.06967279      -0.00000000 </v>
     <v>       0.12067681       0.06967279      -0.00000000 </v>
     <v>       0.00000000       0.00000000       0.16644953 </v>
    </varray>
   </crystal>
   <varray name="positions" >
    <v>       0.07810621       0.56319235       0.20037157 </v>
    <v>       0.48508614       0.92189379       0.20037157 </v>
    <v>       0.91080713       0.17100977       0.98651958 </v>
    <v>       0.56319235       0.07810621       0.70037157 </v>
    <v>       0.08919287       0.26020264       0.48651958 </v>
    <v>       0.17100977       0.91080713       0.48651958 </v>
    <v>       0.43680765       0.51491386       0.20037157 </v>
    <v>       0.73979736       0.82899023       0.48651958 </v>
    <v>       0.92189379       0.48508614       0.70037157 </v>
    <v>       0.51491386       0.43680765       0.70037157 </v>
    <v>       0.82899023       0.73979736       0.98651958 </v>
    <v>       0.26020264       0.08919287       0.98651958 </v>
    <v>       0.34326295       0.38298601       0.46923218 </v>
    <v>       0.03972306       0.65673705       0.46923218 </v>
    <v>       0.38298601       0.34326295       0.96923218 </v>
    <v>       0.61701399       0.96027694       0.46923218 </v>
    <v>      -0.00000000      -0.00000000       0.98947541 </v>
    <v>       0.00845904       0.31603858       0.73866777 </v>
    <v>      -0.00000000      -0.00000000       0.48947541 </v>
    <v>       0.66666667       0.33333333       0.62227897 </v>
    <v>       0.69242046       0.68396142       0.23866777 </v>
    <v>       0.65673705       0.03972306       0.96923218 </v>
    <v>       0.96027694       0.61701399       0.96923218 </v>
    <v>       0.33333333       0.66666667       0.12227897 </v>
    <v>      -0.00845904       0.30757954       0.23866777 </v>
    <v>       0.30757954      -0.00845904       0.73866777 </v>
    <v>       0.68396142       0.69242046       0.73866777 </v>
    <v>       0.31603858       0.00845904       0.23866777 </v>
   </varray>
  </structure>
  <varray name="forces" >
   <v>      -0.89224807      -0.71114327       0.83179005 </v>
   <v>      -0.16974410       1.12828113       0.83179005 </v>
   <v>       0.15646512       0.51711914      -0.52572750 </v>
   <v>      -0.89224807       0.71114327       0.83179005 </v>
   <v>       0.36960575       0.39406234      -0.52572750 </v>
   <v>       0.15646512      -0.51711914      -0.52572750 </v>
   <v>       1.06199217      -0.41713786       0.83179005 </v>
   <v>      -0.52607087       0.12305680      -0.52572750 </v>
   <v>      -0.16974410      -1.12828113       0.83179005 </v>
   <v>       1.06199217       0.41713786       0.83179005 </v>
   <v>      -0.52607087      -0.12305680      -0.52572750 </v>
   <v>       0.36960575      -0.39406234      -0.52572750 </v>
   <v>      -0.18698289      -1.48159848      -0.29580666 </v>
   <v>      -1.18961048       0.90273117      -0.29580666 </v>
   <v>      -0.18698289       1.48159848      -0.29580666 </v>
   <v>       1.37659337       0.57886731      -0.29580666 </v>
   <v>      -0.00000000      -0.00000000       0.00827339 </v>
   <v>       1.50688378      -0.84356953       0.76384369 </v>
   <v>      -0.00000000       0.00000000       0.00827339 </v>
   <v>      -0.00000000      -0.00000000      -2.33057211 </v>
   <v>      -0.02288924      -1.72678440       0.76384369 </v>
   <v>      -1.18961048      -0.90273117      -0.29580666 </v>
   <v>       1.37659337      -0.57886731      -0.29580666 </v>
   <v>      -0.00000000       0.00000000      -2.33057211 </v>
   <v>      -1.48399453       0.88321486       0.76384369 </v>
   <v>      -1.48399453      -0.88321486       0.76384369 </v>
   <v>      -0.02288924       1.72678440       0.76384369 </v>
   <v>       1.50688378       0.84356953       0.76384369 </v>
  </varray>
  <varray name="stress" >
   <v>     -55.43345575       0.00000000       0.00000000 </v>
   <v>       0.00000000     -55.43345575       0.00000000 </v>
   <v>       0.00000000       0.00000000     -40.38736405 </v>
  </varray>
  <energy>
   <i name="e_fr_energy">   -170.54201239 </i>
   <i name="e_wo_entrp">   -170.54281427 </i>
   <i name="e_0_energy">      0.00320752 </i>
  </energy>
  <time name="totalsc">   47.59   47.65</time>
 </calculation>
 <calculation>
  <scstep>
   <time name="dav">    8.51    8.51</time>
   <time name="total">    8.94    8.94</time>
   <energy>
    <i name="alphaZ">    138.34275001 </i>
    <i name="ewald">  -4248.97961868 </i>
    <i name="hartreedc">  -1241.23961526 </i>
    <i name="XCdc">    109.52694378 </i>
    <i name="pawpsdc">  13268.15268413 </i>
    <i name="pawaedc"> -13003.19035298 </i>
    <i name="eentropy">     -0.00035380 </i>
    <i name="bandstr">    -18.86336439 </i>
    <i name="atom">   4822.75196862 </i>
    <i name="e_fr_energy">   -173.49895857 </i>
    <i name="e_wo_entrp">   -173.49860477 </i>
    <i name="e_0_energy">   -173.49887012 </i>
   </energy>
  </scstep>
  <scstep>
   <time name="diag">    1.10    1.10</time>
   <time name="diis">    5.63    5.63</time>
   <time name="orth">    0.20    0.20</time>
   <time name="total">    7.36    7.36</time>
   <energy>
    <i name="e_fr_energy">   -173.83251255 </i>
    <i name="e_wo_entrp">   -173.83216592 </i>
    <i name="e_0_energy">   -173.83242589 </i>
   </energy>
  </scstep>
  <scstep>
   <time name="diag">    1.10    1.09</time>
   <time name="diis">    5.96    5.96</time>
   <time name="orth">    0.19    0.19</time>
   <time name="total">    7.67    7.68</time>
   <energy>
    <i name="e_fr_energy">   -173.83897584 </i>
    <i name="e_wo_entrp">   -173.83868052 </i>
    <i name="e_0_energy">   -173.83890201 </i>
   </energy>
  </scstep>
  <scstep>
   <time name="diag">    1.13    1.13</time>
   <time name="diis">    5.80    5.80</time>
   <time name="orth">    0.19    0.19</time>
   <time name="total">    7.55    7.55</time>
   <energy>
    <i name="e_fr_energy">   -173.82761266 </i>
    <i name="e_wo_entrp">   -173.82742067 </i>
    <i name="e_0_energy">   -173.82756466 </i>
   </energy>
  </scstep>
  <scstep>
   <time name="diag">    1.11    1.11</time>
   <time name="diis">    6.16    6.16</time>
   <time name="orth">    0.19    0.19</time>
   <time name="total">    7.88    7.88</time>
   <energy>
    <i name="e_fr_energy">   -173.82760490 </i>
    <i name="e_wo_entrp">   -173.82745379 </i>
    <i name="e_0_energy">   -173.82756713 </i>
   </energy>
  </scstep>
  <scstep>
   <time name="diag">    1.11    1.11</time>
   <time name="diis">    5.84    5.84</time>
   <time name="orth">    0.18    0.18</time>
   <time name="total">    7.57    7.57</time>
   <energy>
    <i name="e_fr_energy">   -173.82759648 </i>
    <i name="e_wo_entrp">   -173.82743991 </i>
    <i name="e_0_energy">   -173.82755734 </i>
   </energy>
  </scstep>
  <scstep>
   <time name="diag">    1.10    1.10</time>
   <time name="diis">    3.66    3.66</time>
   <time name="orth">    0.18    0.18</time>
   <time name="total">    4.99    4.99</time>
   <energy>
    <i name="alphaZ">    138.34275001 </i>
    <i name="ewald">  -4248.97961868 </i>
    <i name="hartreedc">  -1233.48314312 </i>
    <i name="XCdc">    109.20503535 </i>
    <i name="pawpsdc">  13237.08786584 </i>
    <i name="pawaedc"> -12972.19630528 </i>
    <i name="eentropy">     -0.00015867 </i>
    <i name="bandstr">    -26.55595856 </i>
    <i name="atom">   4822.75196862 </i>
    <i name="e_fr_energy">   -173.82756449 </i>
    <i name="e_wo_entrp">   -173.82740582 </i>
    <i name="e_0_energy">   -173.82752482 </i>
   </energy>
  </scstep>
  <structure>
   <crystal>
    <varray name="basis" >
     <v>       4.11732379      -7.13141399      -0.00000000 </v>
     <v>       4.11732379       7.13141399      -0.00000000 </v>
     <v>       0.00000000       0.00000000       6.00213111 </v>
    </varray>
    <i name="volume">    352.47323421 </i>
    <varray name="rec_basis" >
     <v>       0.12143811      -0.07011232      -0.00000000 </v>
     <v>       0.12143811       0.07011232      -0.00000000 </v>
     <v>       0.00000000       0.00000000       0.16660749 </v>
    </varray>
   </crystal>
   <varray name="positions" >
    <v>       0.07494158       0.55523741       0.20710421 </v>
    <v>       0.48029583       0.92505842       0.20710421 </v>
    <v>       0.90956883       0.17404793       0.98235463 </v>
    <v>       0.55523741       0.07494158       0.70710421 </v>
    <v>       0.09043117       0.26447909       0.48235463 </v>
    <v>       0.17404793       0.90956883       0.48235463 </v>
    <v>       0.44476259       0.51970417       0.20710421 </v>
    <v>       0.73552091       0.82595207       0.48235463 </v>
    <v>       0.92505842       0.48029583       0.70710421 </v>
    <v>       0.51970417       0.44476259       0.70710421 </v>
    <v>       0.82595207       0.73552091       0.98235463 </v>
    <v>       0.26447909       0.09043117       0.98235463 </v>
    <v>       0.34661184       0.37631133       0.46709587 </v>
    <v>       0.02969950       0.65338816       0.46709587 </v>
    <v>       0.37631133       0.34661184       0.96709587 </v>
    <v>       0.62368867       0.97030050       0.46709587 </v>
    <v>      -0.00000000      -0.00000000       0.98961237 </v>
    <v>       0.02100761       0.32165902       0.74487868 </v>
    <v>      -0.00000000      -0.00000000       0.48961237 </v>
    <v>       0.66666667       0.33333333       0.60221515 </v>
    <v>       0.69934859       0.67834098       0.24487868 </v>
    <v>       0.65338816       0.02969950       0.96709587 </v>
    <v>       0.97030050       0.62368867       0.96709587 </v>
    <v>       0.33333333       0.66666667       0.10221515 </v>
    <v>      -0.02100761       0.30065141       0.24487868 </v>
    <v>       0.30065141      -0.02100761       0.74487868 </v>
    <v>       0.67834098       0.69934859       0.74487868 </v>
    <v>       0.32165902       0.02100761       0.24487868 </v>
   </varray>
  </structure>
  <varray name="forces" >
   <v>      -0.47766389      -0.51665839       0.53505749 </v>
   <v>      -0.20860735       0.67199825       0.53505749 </v>
   <v>       0.10653614       0.44515752      -0.25853928 </v>
   <v>      -0.47766389       0.51665839       0.53505749 </v>
   <v>       0.33224965       0.31484176      -0.25853928 </v>
   <v>       0.10653614      -0.44515752      -0.25853928 </v>
   <v>       0.68627123      -0.15533986       0.53505749 </v>
   <v>      -0.43878579       0.13031576      -0.25853928 </v>
   <v>      -0.20860735      -0.67199825       0.53505749 </v>
   <v>       0.68627123       0.15533986       0.53505749 </v>
   <v>      -0.43878579      -0.13031576      -0.25853928 </v>
   <v>       0.33224965      -0.31484176      -0.25853928 </v>
   <v>      -0.34191508      -1.65656541      -0.24989105 </v>
   <v>      -1.26367019       1.12438985      -0.24989105 </v>
   <v>      -0.34191508       1.65656541      -0.24989105 </v>
   <v>       1.60558527       0.53217556      -0.24989105 </v>
   <v>       0.00000000      -0.00000000       0.03973697 </v>
   <v>       1.86225292      -1.03938695       0.62138846 </v>
   <v>       0.00000000      -0.00000000       0.03973697 </v>
   <v>      -0.00000000      -0.00000000      -1.98378381 </v>
   <v>      -0.03099096      -2.13245181       0.62138846 </v>
   <v>      -1.26367019      -1.12438985      -0.24989105 </v>
   <v>       1.60558527      -0.53217556      -0.24989105 </v>
   <v>      -0.00000000      -0.00000000      -1.98378381 </v>
   <v>      -1.83126196       1.09306486       0.62138846 </v>
   <v>      -1.83126196      -1.09306486       0.62138846 </v>
   <v>      -0.03099096       2.13245181       0.62138846 </v>
   <v>       1.86225292       1.03938695       0.62138846 </v>
  </varray>
  <varray name="stress" >
   <v>     -62.56423584       0.00000000      -0.00000000 </v>
   <v>      -0.00000000     -62.56423584       0.00000000 </v>
   <v>       0.00000000       0.00000000     -50.77656408 </v>
  </varray>
  <energy>
   <i name="e_fr_energy">   -173.82756449 </i>
   <i name="e_wo_entrp">   -173.82752482 </i>
   <i name="e_0_energy">     -0.00015867 </i>
  </energy>
  <time name="totalsc">   63.32   63.36</time>
 </calculation>
 <calculation>
  <scstep>
   <time name="dav">    8.62    8.62</time>
   <time name="total">    9.02    9.02</time>
   <energy>
    <i name="alphaZ">    144.14208313 </i>
    <i name="ewald">  -4453.84655674 </i>
    <i name="hartreedc">  -1149.97852902 </i>
    <i name="XCdc">    111.05803912 </i>
    <i name="pawpsdc">  13232.19853819 </i>
    <i name="pawaedc"> -12967.30762769 </i>
    <i name="eentropy">     -0.00105133 </i>
    <i name="bandstr">     84.60444261 </i>
    <i name="atom">   4822.75196862 </i>
    <i name="e_fr_energy">   -176.37869311 </i>
    <i name="e_wo_entrp">   -176.37764179 </i>
    <i name="e_0_energy">   -176.37843028 </i>
   </energy>
  </scstep>
  <scstep>
   <time name="diag">    1.10    1.10</time>
   <time name="diis">    5.62    5.62</time>
   <time name="orth">    0.19    0.19</time>
   <time name="total">    7.31    7.32</time>
   <energy>
    <i name="e_fr_energy">   -181.04979559 </i>
    <i name="e_wo_entrp">   -181.04844526 </i>
    <i name="e_0_energy">   -181.04945801 </i>
   </energy>
  </scstep>
  <scstep>
   <time name="diag">    1.11    1.11</time>
   <time name="diis">    6.01    6.01</time>
   <time name="orth">    0.18    0.18</time>
   <time name="total">    7.71    7.72</time>
   <energy>
    <i name="e_fr_energy">   -181.05031550 </i>
    <i name="e_wo_entrp">   -181.04887459 </i>
    <i name="e_0_energy">   -181.04995527 </i>
   </energy>
  </scstep>
  <scstep>
   <time name="diag">    1.11    1.11</time>
   <time name="diis">    5.81    5.81</time>
   <time name="orth">    0.18    0.18</time>
   <time name="total">    7.51    7.51</time>
   <energy>
    <i name="e_fr_energy">   -180.89428921 </i>
    <i name="e_wo_entrp">   -180.89407668 </i>
    <i name="e_0_energy">   -180.89423608 </i>
   </energy>
  </scstep>
  <scstep>
   <time name="diag">    1.11    1.11</time>
   <time name="diis">    5.94    5.94</time>
   <time name="orth">    0.19    0.19</time>
   <time name="total">    7.64    7.65</time>
   <energy>
    <i name="e_fr_energy">   -180.88197768 </i>
    <i name="e_wo_entrp">   -180.88149221 </i>
    <i name="e_0_energy">   -180.88185631 </i>
   </energy>
  </scstep>
  <scstep>
   <time name="diag">    1.12    1.12</time>
   <time name="diis">    5.92    5.92</time>
   <time name="orth">    0.19    0.19</time>
   <time name="total">    7.63    7.64</time>
   <energy>
    <i name="e_fr_energy">   -180.88626187 </i>
    <i name="e_wo_entrp">   -180.88588579 </i>
    <i name="e_0_energy">   -180.88616785 </i>
   </energy>
  </scstep>
  <scstep>
   <time name="diag">    1.11    1.11</time>
   <time name="diis">    5.97    5.97</time>
   <time name="orth">    0.19    0.19</time>
   <time name="total">    7.69    7.69</time>
   <energy>
    <i name="e_fr_energy">   -180.88669849 </i>
    <i name="e_wo_entrp">   -180.88628889 </i>
    <i name="e_0_energy">   -180.88659609 </i>
   </energy>
  </scstep>
  <scstep>
   <time name="diag">    1.13    1.13</time>
   <time name="diis">    4.89    4.89</time>
   <time name="orth">    0.19    0.19</time>
   <time name="total">    6.62    6.63</time>
   <energy>
    <i name="e_fr_energy">   -180.88699631 </i>
    <i name="e_wo_entrp">   -180.88657840 </i>
    <i name="e_0_energy">   -180.88689183 </i>
   </energy>
  </scstep>
  <scstep>
   <time name="diag">    1.12    1.12</time>
   <time name="diis">    3.92    3.92</time>
   <time name="orth">    0.18    0.18</time>
   <time name="total">    5.27    5.27</time>
   <energy>
    <i name="alphaZ">    144.14208313 </i>
    <i name="ewald">  -4453.84655674 </i>
    <i name="hartreedc">  -1133.69379316 </i>
    <i name="XCdc">    110.26572253 </i>
    <i name="pawpsdc">  13054.16691775 </i>
    <i name="pawaedc"> -12789.31955602 </i>
    <i name="eentropy">     -0.00040338 </i>
    <i name="bandstr">     64.64655509 </i>
    <i name="atom">   4822.75196862 </i>
    <i name="e_fr_energy">   -180.88706217 </i>
    <i name="e_wo_entrp">   -180.88665879 </i>
    <i name="e_0_energy">   -180.88696133 </i>
   </energy>
  </scstep>
  <structure>
   <crystal>
    <varray name="basis" >
     <v>       4.03940060      -6.99644708      -0.00000000 </v>
     <v>       4.03940060       6.99644708      -0.00000000 </v>
     <v>       0.00000000       0.00000000       5.98504305 </v>
    </varray>
    <i name="volume">    338.29202039 </i>
    <varray name="rec_basis" >
     <v>       0.12378074      -0.07146484      -0.00000000 </v>
     <v>       0.12378074       0.07146484      -0.00000000 </v>
     <v>       0.00000000       0.00000000       0.16708318 </v>
    </varray>
   </crystal>
   <varray name="positions" >
    <v>       0.06538779       0.53122205       0.22732129 </v>
    <v>       0.46583427       0.93461221       0.22732129 </v>
    <v>       0.90583051       0.18321989       0.96984793 </v>
    <v>       0.53122205       0.06538779       0.72732129 </v>
    <v>       0.09416949       0.27738938       0.46984793 </v>
    <v>       0.18321989       0.90583051       0.46984793 </v>
    <v>       0.46877795       0.53416573       0.22732129 </v>
    <v>       0.72261062       0.81678011       0.46984793 </v>
    <v>       0.93461221       0.46583427       0.72732129 </v>
    <v>       0.53416573       0.46877795       0.72732129 </v>
    <v>       0.81678011       0.72261062       0.96984793 </v>
    <v>       0.27738938       0.09416949       0.96984793 </v>
    <v>       0.35672188       0.35616097       0.46068085 </v>
    <v>      -0.00056091       0.64327812       0.46068085 </v>
    <v>       0.35616097       0.35672188       0.96068085 </v>
    <v>       0.64383903       0.00056091       0.46068085 </v>
    <v>      -0.00000000      -0.00000000       0.99002366 </v>
    <v>       0.05889082       0.33862673       0.76352909 </v>
    <v>      -0.00000000      -0.00000000       0.49002366 </v>
    <v>       0.66666667       0.33333333       0.54196656 </v>
    <v>       0.72026409       0.66137327       0.26352909 </v>
    <v>       0.64327812      -0.00056091       0.96068085 </v>
    <v>       0.00056091       0.64383903       0.96068085 </v>
    <v>       0.33333333       0.66666667       0.04196656 </v>
    <v>      -0.05889082       0.27973591       0.26352909 </v>
    <v>       0.27973591      -0.05889082       0.76352909 </v>
    <v>       0.66137327       0.72026409       0.76352909 </v>
    <v>       0.33862673       0.05889082       0.26352909 </v>
   </varray>
  </structure>
  <varray name="forces" >
   <v>       0.50372536       1.74004953      -0.52701148 </v>
   <v>       1.25506442      -1.30626372      -0.52701148 </v>
   <v>      -1.03134921       0.05477240       1.38264664 </v>
   <v>       0.50372536      -1.74004953      -0.52701148 </v>
   <v>       0.56310889      -0.86578842       1.38264664 </v>
   <v>      -1.03134921      -0.05477240       1.38264664 </v>
   <v>      -1.75878978      -0.43378581      -0.52701148 </v>
   <v>       0.46824032       0.92056081       1.38264664 </v>
   <v>       1.25506442       1.30626372      -0.52701148 </v>
   <v>      -1.75878978       0.43378581      -0.52701148 </v>
   <v>       0.46824032      -0.92056081       1.38264664 </v>
   <v>       0.56310889       0.86578842       1.38264664 </v>
   <v>       0.03839488      -1.17169773      -0.61541419 </v>
   <v>      -1.03391744       0.55259792      -0.61541419 </v>
   <v>       0.03839488       1.17169773      -0.61541419 </v>
   <v>       0.99552256       0.61909981      -0.61541419 </v>
   <v>      -0.00000000       0.00000000       0.03496815 </v>
   <v>       1.58422514      -0.87952248      -0.20902592 </v>
   <v>      -0.00000000       0.00000000       0.03496815 </v>
   <v>      -0.00000000       0.00000000      -0.12855328 </v>
   <v>      -0.03042376      -1.81174046      -0.20902592 </v>
   <v>      -1.03391744      -0.55259792      -0.61541419 </v>
   <v>       0.99552256      -0.61909981      -0.61541419 </v>
   <v>      -0.00000000       0.00000000      -0.12855328 </v>
   <v>      -1.55380138       0.93221798      -0.20902592 </v>
   <v>      -1.55380138      -0.93221798      -0.20902592 </v>
   <v>      -0.03042376       1.81174046      -0.20902592 </v>
   <v>       1.58422514       0.87952248      -0.20902592 </v>
  </varray>
  <varray name="stress" >
   <v>     -47.02259723       0.00000000       0.00000000 </v>
   <v>       0.00000000     -47.02259723       0.00000000 </v>
   <v>      -0.00000000       0.00000000    -142.03086338 </v>
  </varray>
  <energy>
   <i name="e_fr_energy">   -180.88706217 </i>
   <i name="e_wo_entrp">   -180.88696133 </i>
   <i name="e_0_energy">     -0.00040338 </i>
  </energy>
  <time name="totalsc">   78.04   78.15</time>
 </calculation>
 <calculation>
  <scstep>
   <time name="dav">    9.71    9.71</time>
   <time name="total">   10.12   10.12</time>
   <energy>
    <i name="alphaZ">    151.90327267 </i>
    <i name="ewald">  -4581.66785806 </i>
    <i name="hartreedc">  -1120.25633398 </i>
    <i name="XCdc">    115.87228842 </i>
    <i name="pawpsdc">  13060.08712168 </i>
    <i name="pawaedc"> -12795.23994953 </i>
    <i name="eentropy">      0.00034717 </i>
    <i name="bandstr">    162.69787265 </i>
    <i name="atom">   4822.75196862 </i>
    <i name="e_fr_energy">   -183.85127036 </i>
    <i name="e_wo_entrp">   -183.85161753 </i>
    <i name="e_0_energy">   -183.85135715 </i>
   </energy>
  </scstep>
  <scstep>
   <time name="diag">    1.11    1.11</time>
   <time name="diis">    5.68    5.68</time>
   <time name="orth">    0.19    0.19</time>
   <time name="total">    7.38    7.39</time>
   <energy>
    <i name="e_fr_energy">   -183.36895317 </i>
    <i name="e_wo_entrp">   -183.36989213 </i>
    <i name="e_0_energy">   -183.36918791 </i>
   </energy>
  </scstep>
  <scstep>
   <time name="diag">    1.13    1.13</time>
   <time name="diis">    5.95    5.95</time>
   <time name="orth">    0.19    0.19</time>
   <time name="total">    7.67    7.67</time>
   <energy>
    <i name="e_fr_energy">   -183.29192323 </i>
    <i name="e_wo_entrp">   -183.29329434 </i>
    <i name="e_0_energy">   -183.29226601 </i>
   </energy>
  </scstep>
  <scstep>
   <time name="diag">    1.10    1.10</time>
   <time name="diis">    6.00    6.00</time>
   <time name="orth">    0.18    0.18</time>
   <time name="total">    7.69    7.69</time>
   <energy>
    <i name="e_fr_energy">   -183.26867664 </i>
    <i name="e_wo_entrp">   -183.27004637 </i>
    <i name="e_0_energy">   -183.26901907 </i>
   </energy>
  </scstep>
  <scstep>
   <time name="diag">    1.11    1.11</time>
   <time name="diis">    6.01    6.01</time>
   <time name="orth">    0.19    0.19</time>
   <time name="total">    7.70    7.71</time>
   <energy>
    <i name="e_fr_energy">   -183.26496069 </i>
    <i name="e_wo_entrp">   -183.26639915 </i>
    <i name="e_0_energy">   -183.26532031 </i>
   </energy>
  </scstep>
  <scstep>
   <time name="diag">    1.11    1.11</time>
   <time name="diis">    5.75    5.75</time>
   <time name="orth">    0.18    0.18</time>
   <time name="total">    7.44    7.45</time>
   <energy>
    <i name="e_fr_energy">   -183.26455772 </i>
    <i name="e_wo_entrp">   -183.26604548 </i>
    <i name="e_0_energy">   -183.26492966 </i>
   </energy>
  </scstep>
  <scstep>
   <time name="diag">    1.10    1.10</time>
   <time name="diis">    5.80    5.80</time>
   <time name="orth">    0.19    0.19</time>
   <time name="total">    7.49    7.50</time>
   <energy>
[...]
       <r>   -2.1014    1.0000 </r>
       <r>   -1.3569    1.0000 </r>
       <r>   -1.3208    1.0000 </r>
       <r>   -0.9557    1.0000 </r>
       <r>   -0.9518    1.0000 </r>
       <r>   -0.2159    1.0000 </r>
       <r>   -0.0383    1.0000 </r>
       <r>    0.0696    1.0000 </r>
       <r>    0.2109    1.0000 </r>
       <r>    0.2450    1.0000 </r>
       <r>    0.2700    1.0000 </r>
       <r>    0.5833    1.0000 </r>
       <r>    0.6800    1.0000 </r>
       <r>    1.0872    1.0000 </r>
       <r>    1.1008    1.0000 </r>
       <r>    1.1757    1.0000 </r>
       <r>    1.3903    1.0000 </r>
       <r>    1.4996    1.0000 </r>
       <r>    1.5358    1.0000 </r>
       <r>    1.6722    1.0000 </r>
       <r>    2.2842    1.0000 </r>
       <r>    2.3650    1.0000 </r>
       <r>    2.5986    1.0000 </r>
       <r>    2.8692    1.0000 </r>
       <r>    2.8931    1.0000 </r>
       <r>    3.0417    1.0000 </r>
       <r>    3.2368    1.0000 </r>
       <r>    3.3749    1.0000 </r>
       <r>    3.5715    1.0000 </r>
       <r>    4.1205    1.0000 </r>
       <r>    4.2400    1.0000 </r>
       <r>    4.3622    1.0000 </r>
       <r>    4.4849    1.0000 </r>
       <r>    4.5841    1.0000 </r>
       <r>    4.6663    1.0000 </r>
       <r>    4.9474    1.0000 </r>
       <r>    4.9842    1.0000 </r>
       <r>    5.4081    1.0000 </r>
       <r>    5.4127    1.0000 </r>
       <r>    5.8151    1.0000 </r>
       <r>    5.8396    1.0000 </r>
       <r>    6.0567    1.0000 </r>
       <r>    6.1025    1.0000 </r>
       <r>    7.6738    0.3952 </r>
       <r>    7.6860    0.2738 </r>
       <r>    7.7835   -0.0381 </r>
       <r>    7.7858   -0.0358 </r>
       <r>   10.1153    0.0000 </r>
       <r>   10.1682    0.0000 </r>
       <r>   10.4561    0.0000 </r>
       <r>   10.4877    0.0000 </r>
       <r>   10.7996    0.0000 </r>
       <r>   11.1129    0.0000 </r>
       <r>   11.4139    0.0000 </r>
       <r>   11.5196    0.0000 </r>
       <r>   11.9110    0.0000 </r>
       <r>   12.1463    0.0000 </r>
       <r>   12.1791    0.0000 </r>
       <r>   12.2435    0.0000 </r>
       <r>   12.3115    0.0000 </r>
       <r>   12.3810    0.0000 </r>
       <r>   12.5082    0.0000 </r>
       <r>   12.6187    0.0000 </r>
      </set>
     </set>
    </set>
   </array>
  </eigenvalues>
  <separator name="orbital magnetization" >
   <v name="MAGDIPOLOUT">      0.00000000      0.00000000      0.00000000</v>
  </separator>
  <dos>
   <i name="efermi">      7.66377436 </i>
   <total>
    <array>
     <dimension dim="1">gridpoints</dimension>
     <dimension dim="2">spin</dimension>
     <field>energy</field>
     <field>total</field>
     <field>integrated</field>
     <set>
      <set comment="spin 1">
       <r>   -12.3070     0.0000     0.0000 </r>
       <r>   -12.2192     0.0000     0.0000 </r>
       <r>   -12.1313     0.0000     0.0000 </r>
       <r>   -12.0434     0.0000     0.0000 </r>
       <r>   -11.9556     0.0000     0.0000 </r>
       <r>   -11.8677     0.0000     0.0000 </r>
       <r>   -11.7799     0.0000     0.0000 </r>
       <r>   -11.6920     0.0000     0.0000 </r>
       <r>   -11.6042     0.0000     0.0000 </r>
       <r>   -11.5163     0.0000     0.0000 </r>
       <r>   -11.4285     0.0000     0.0000 </r>
       <r>   -11.3406     0.0012     0.0001 </r>
       <r>   -11.2528     0.0056     0.0006 </r>
       <r>   -11.1649    -0.0487    -0.0037 </r>
       <r>   -11.0770     0.3894     0.0305 </r>
       <r>   -10.9892     1.9759     0.2041 </r>
       <r>   -10.9013     3.3913     0.5021 </r>
       <r>   -10.8135     4.2020     0.8712 </r>
       <r>   -10.7256     4.1019     1.2316 </r>
       <r>   -10.6378     4.9502     1.6665 </r>
       <r>   -10.5499     6.6077     2.2470 </r>
       <r>   -10.4621    10.3118     3.1529 </r>
       <r>   -10.3742     7.3602     3.7996 </r>
       <r>   -10.2864     9.2846     4.6153 </r>
       <r>   -10.1985     6.0810     5.1495 </r>
       <r>   -10.1106     3.6074     5.4664 </r>
       <r>   -10.0228     3.1106     5.7397 </r>
       <r>    -9.9349     0.5048     5.7840 </r>
       <r>    -9.8471     6.6038     6.3642 </r>
       <r>    -9.7592     8.4896     7.1101 </r>
       <r>    -9.6714     1.6174     7.2522 </r>
       <r>    -9.5835     4.6928     7.6645 </r>
       <r>    -9.4957    14.7926     8.9640 </r>
       <r>    -9.4078    10.8080     9.9136 </r>
       <r>    -9.3200     6.4107    10.4768 </r>
       <r>    -9.2321     5.2379    10.9370 </r>
       <r>    -9.1442     4.0582    11.2935 </r>
       <r>    -9.0564     5.2078    11.7510 </r>
       <r>    -8.9685    10.3350    12.6590 </r>
       <r>    -8.8807    15.8923    14.0552 </r>
       <r>    -8.7928    15.5849    15.4244 </r>
       <r>    -8.7050    14.4295    16.6921 </r>
       <r>    -8.6171    12.8706    17.8228 </r>
       <r>    -8.5293     9.2556    18.6360 </r>
       <r>    -8.4414     9.2149    19.4456 </r>
       <r>    -8.3536    13.1559    20.6014 </r>
       <r>    -8.2657    24.6257    22.7648 </r>
       <r>    -8.1778    13.8547    23.9820 </r>
       <r>    -8.0900     0.3537    24.0131 </r>
       <r>    -8.0021    -0.2026    23.9953 </r>
       <r>    -7.9143     0.0507    23.9998 </r>
       <r>    -7.8264     0.0026    24.0000 </r>
       <r>    -7.7386     0.0000    24.0000 </r>
       <r>    -7.6507     0.0000    24.0000 </r>
       <r>    -7.5629     0.0000    24.0000 </r>
       <r>    -7.4750     0.0000    24.0000 </r>
       <r>    -7.3872     0.0000    24.0000 </r>
       <r>    -7.2993     0.0000    24.0000 </r>
       <r>    -7.2114     0.0000    24.0000 </r>
       <r>    -7.1236     0.0000    24.0000 </r>
       <r>    -7.0357     0.0000    24.0000 </r>
       <r>    -6.9479     0.0000    24.0000 </r>
       <r>    -6.8600     0.0000    24.0000 </r>
       <r>    -6.7722     0.0000    24.0000 </r>
       <r>    -6.6843     0.0000    24.0000 </r>
       <r>    -6.5965     0.0000    24.0000 </r>
       <r>    -6.5086     0.0000    24.0000 </r>
       <r>    -6.4208     0.0000    24.0000 </r>
       <r>    -6.3329     0.0000    24.0000 </r>
       <r>    -6.2450     0.0000    24.0000 </r>
       <r>    -6.1572     0.0000    24.0000 </r>
       <r>    -6.0693     0.0000    24.0000 </r>
       <r>    -5.9815     0.0000    24.0000 </r>
       <r>    -5.8936     0.0000    24.0000 </r>
       <r>    -5.8058     0.0000    24.0000 </r>
       <r>    -5.7179     0.0000    24.0000 </r>
       <r>    -5.6301     0.0000    24.0000 </r>
       <r>    -5.5422     0.0000    24.0000 </r>
       <r>    -5.4544     0.0000    24.0000 </r>
       <r>    -5.3665     0.0000    24.0000 </r>
       <r>    -5.2787     0.0000    24.0000 </r>
       <r>    -5.1908     0.0000    24.0000 </r>
       <r>    -5.1029     0.0000    24.0000 </r>
       <r>    -5.0151     0.0000    24.0000 </r>
       <r>    -4.9272     0.0000    24.0000 </r>
       <r>    -4.8394     0.0000    24.0000 </r>
       <r>    -4.7515     0.0000    24.0000 </r>
       <r>    -4.6637     0.0000    24.0000 </r>
       <r>    -4.5758     0.0000    24.0000 </r>
       <r>    -4.4880     0.0000    24.0000 </r>
       <r>    -4.4001     0.0000    24.0000 </r>
       <r>    -4.3123     0.0000    24.0000 </r>
       <r>    -4.2244     0.0007    24.0001 </r>
       <r>    -4.1365     0.0011    24.0002 </r>
       <r>    -4.0487    -0.0202    23.9984 </r>
       <r>    -3.9608     0.2460    24.0200 </r>
       <r>    -3.8730     0.7728    24.0879 </r>
       <r>    -3.7851     1.0655    24.1815 </r>
       <r>    -3.6973     1.6862    24.3296 </r>
       <r>    -3.6094     1.1053    24.4267 </r>
       <r>    -3.5216     2.7926    24.6721 </r>
       <r>    -3.4337     1.8889    24.8380 </r>
       <r>    -3.3459     3.0476    25.1058 </r>
       <r>    -3.2580     2.6556    25.3391 </r>
       <r>    -3.1701     2.0192    25.5165 </r>
       <r>    -3.0823     4.8134    25.9394 </r>
       <r>    -2.9944     5.1547    26.3922 </r>
       <r>    -2.9066     7.0628    27.0127 </r>
       <r>    -2.8187     8.3393    27.7454 </r>
       <r>    -2.7309     9.2150    28.5549 </r>
       <r>    -2.6430     8.6195    29.3122 </r>
       <r>    -2.5552     7.5354    29.9742 </r>
       <r>    -2.4673     6.5081    30.5460 </r>
       <r>    -2.3795     5.4514    31.0249 </r>
       <r>    -2.2916     5.5999    31.5169 </r>
       <r>    -2.2037     6.9609    32.1284 </r>
       <r>    -2.1159     9.8380    32.9927 </r>
       <r>    -2.0280    12.4494    34.0865 </r>
       <r>    -1.9402    10.4488    35.0045 </r>
       <r>    -1.8523    10.9541    35.9668 </r>
       <r>    -1.7645    12.3220    37.0494 </r>
       <r>    -1.6766    10.6363    37.9838 </r>
       <r>    -1.5888     9.4939    38.8179 </r>
       <r>    -1.5009    11.1678    39.7990 </r>
       <r>    -1.4131     6.7298    40.3903 </r>
       <r>    -1.3252     3.4830    40.6963 </r>
       <r>    -1.2373     2.6967    40.9332 </r>
       <r>    -1.1495     1.5642    41.0706 </r>
       <r>    -1.0616     2.8316    41.3194 </r>
       <r>    -0.9738     4.0092    41.6716 </r>
       <r>    -0.8859     3.8222    42.0074 </r>
       <r>    -0.7981     6.7448    42.6000 </r>
       <r>    -0.7102    10.4094    43.5145 </r>
       <r>    -0.6224     8.8266    44.2900 </r>
       <r>    -0.5345     8.7068    45.0549 </r>
       <r>    -0.4467     8.8828    45.8353 </r>
       <r>    -0.3588     7.3517    46.4812 </r>
       <r>    -0.2709    11.4522    47.4873 </r>
       <r>    -0.1831     8.0174    48.1917 </r>
       <r>    -0.0952     7.6873    48.8670 </r>
       <r>    -0.0074     6.2289    49.4143 </r>
       <r>     0.0805     6.3069    49.9684 </r>
       <r>     0.1683     8.5054    50.7156 </r>
       <r>     0.2562     9.5394    51.5537 </r>
       <r>     0.3440    11.2356    52.5408 </r>
       <r>     0.4319    10.4169    53.4559 </r>
       <r>     0.5197     8.1793    54.1745 </r>
       <r>     0.6076    12.6996    55.2902 </r>
       <r>     0.6955    12.2649    56.3678 </r>
       <r>     0.7833    10.2073    57.2645 </r>
       <r>     0.8712    11.7637    58.2980 </r>
       <r>     0.9590     9.3362    59.1182 </r>
       <r>     1.0469    14.4584    60.3885 </r>
       <r>     1.1347    15.2589    61.7290 </r>
       <r>     1.2226     8.7443    62.4973 </r>
       <r>     1.3104    12.0128    63.5526 </r>
       <r>     1.3983    11.8434    64.5931 </r>
       <r>     1.4861    11.5944    65.6118 </r>
       <r>     1.5740    10.1572    66.5041 </r>
       <r>     1.6619    14.9344    67.8162 </r>
       <r>     1.7497    16.5789    69.2727 </r>
       <r>     1.8376    14.3008    70.5291 </r>
       <r>     1.9254    10.6318    71.4631 </r>
       <r>     2.0133    10.9850    72.4282 </r>
       <r>     2.1011    11.2623    73.4177 </r>
       <r>     2.1890    12.1981    74.4893 </r>
       <r>     2.2768    11.7668    75.5231 </r>
       <r>     2.3647    12.1732    76.5926 </r>
       <r>     2.4525    11.5226    77.6049 </r>
       <r>     2.5404    11.8169    78.6430 </r>
       <r>     2.6283    11.7506    79.6754 </r>
       <r>     2.7161    13.3095    80.8447 </r>
       <r>     2.8040    10.0774    81.7300 </r>
       <r>     2.8918    10.9944    82.6959 </r>
       <r>     2.9797    11.7352    83.7269 </r>
       <r>     3.0675    10.2907    84.6310 </r>
       <r>     3.1554     8.6814    85.3937 </r>
       <r>     3.2432    10.5000    86.3162 </r>
       <r>     3.3311     8.9888    87.1059 </r>
       <r>     3.4189    10.3535    88.0155 </r>
       <r>     3.5068     9.2013    88.8238 </r>
       <r>     3.5947    14.3901    90.0881 </r>
       <r>     3.6825    11.0366    91.0577 </r>
       <r>     3.7704     8.0846    91.7680 </r>
       <r>     3.8582     8.4427    92.5097 </r>
       <r>     3.9461    10.9288    93.4698 </r>
       <r>     4.0339    12.4916    94.5673 </r>
       <r>     4.1218    12.7087    95.6838 </r>
       <r>     4.2096    12.9232    96.8192 </r>
       <r>     4.2975    11.5648    97.8352 </r>
       <r>     4.3853     7.9376    98.5325 </r>
       <r>     4.4732     9.1677    99.3380 </r>
       <r>     4.5611    12.1789   100.4079 </r>
       <r>     4.6489    19.1006   102.0860 </r>
       <r>     4.7368    16.7491   103.5575 </r>
       <r>     4.8246     7.9522   104.2561 </r>
       <r>     4.9125     7.1311   104.8826 </r>
       <r>     5.0003     7.5833   105.5489 </r>
       <r>     5.0882     7.2923   106.1895 </r>
       <r>     5.1760     7.7068   106.8666 </r>
       <r>     5.2639    12.7260   107.9846 </r>
       <r>     5.3517    16.6288   109.4455 </r>
       <r>     5.4396    16.6062   110.9045 </r>
       <r>     5.5274    13.8964   112.1253 </r>
       <r>     5.6153    10.5035   113.0481 </r>
       <r>     5.7032     5.0688   113.4934 </r>
       <r>     5.7910     6.3269   114.0493 </r>
       <r>     5.8789     6.2524   114.5986 </r>
       <r>     5.9667     8.0480   115.3056 </r>
       <r>     6.0546    10.6225   116.2388 </r>
       <r>     6.1424    12.0503   117.2975 </r>
       <r>     6.2303    11.3389   118.2937 </r>
       <r>     6.3181     9.3296   119.1133 </r>
       <r>     6.4060     5.6627   119.6108 </r>
       <r>     6.4938     2.5679   119.8364 </r>
       <r>     6.5817     5.3901   120.3100 </r>
       <r>     6.6696    10.6671   121.2471 </r>
       <r>     6.7574     5.6744   121.7457 </r>
       <r>     6.8453     0.0977   121.7542 </r>
       <r>     6.9331    -0.0687   121.7482 </r>
       <r>     7.0210     0.0196   121.7499 </r>
       <r>     7.1088     0.0048   121.7504 </r>
       <r>     7.1967    -0.0141   121.7491 </r>
       <r>     7.2845     0.0789   121.7561 </r>
       <r>     7.3724     1.0322   121.8467 </r>
       <r>     7.4602     3.0909   122.1183 </r>
       <r>     7.5481     5.0580   122.5627 </r>
       <r>     7.6360    10.5748   123.4917 </r>
       <r>     7.7238    18.3058   125.0999 </r>
       <r>     7.8117     9.3732   125.9234 </r>
       <r>     7.8995     3.3200   126.2151 </r>
       <r>     7.9874     0.4404   126.2538 </r>
       <r>     8.0752    -0.0553   126.2489 </r>
       <r>     8.1631     0.0105   126.2499 </r>
       <r>     8.2509     0.0016   126.2500 </r>
       <r>     8.3388     0.0000   126.2500 </r>
       <r>     8.4266     0.0000   126.2500 </r>
       <r>     8.5145     0.0000   126.2500 </r>
       <r>     8.6024     0.0000   126.2500 </r>
       <r>     8.6902     0.0001   126.2500 </r>
       <r>     8.7781     0.0076   126.2507 </r>
       <r>     8.8659    -0.0012   126.2506 </r>
       <r>     8.9538    -0.2576   126.2279 </r>
       <r>     9.0416     3.0300   126.4941 </r>
       <r>     9.1295     3.1444   126.7704 </r>
       <r>     9.2173    -0.2328   126.7499 </r>
       <r>     9.3052    -0.0094   126.7491 </r>
       <r>     9.3930     0.0390   126.7525 </r>
       <r>     9.4809     0.3181   126.7805 </r>
       <r>     9.5688     0.9798   126.8666 </r>
       <r>     9.6566     1.3206   126.9826 </r>
       <r>     9.7445     1.4703   127.1118 </r>
       <r>     9.8323     2.3192   127.3155 </r>
       <r>     9.9202     4.4461   127.7061 </r>
       <r>    10.0080     7.3735   128.3539 </r>
       <r>    10.0959    11.9963   129.4078 </r>
       <r>    10.1837    18.3863   131.0232 </r>
       <r>    10.2716    13.4939   132.2087 </r>
       <r>    10.3594     8.5837   132.9628 </r>
       <r>    10.4473     9.6445   133.8101 </r>
       <r>    10.5352    10.0106   134.6896 </r>
       <r>    10.6230     6.9163   135.2972 </r>
       <r>    10.7109     5.9360   135.8187 </r>
       <r>    10.7987     4.9453   136.2532 </r>
       <r>    10.8866     5.3603   136.7241 </r>
       <r>    10.9744     7.3532   137.3701 </r>
       <r>    11.0623     9.1098   138.1704 </r>
       <r>    11.1501    13.4700   139.3538 </r>
       <r>    11.2380    10.5097   140.2771 </r>
       <r>    11.3258     7.9389   140.9746 </r>
       <r>    11.4137     9.8988   141.8443 </r>
       <r>    11.5016    12.1793   142.9143 </r>
       <r>    11.5894    10.0103   143.7937 </r>
       <r>    11.6773     9.7949   144.6543 </r>
       <r>    11.7651    10.1531   145.5463 </r>
       <r>    11.8530    12.5135   146.6456 </r>
       <r>    11.9408    13.8945   147.8663 </r>
       <r>    12.0287    13.8025   149.0789 </r>
       <r>    12.1165    14.1542   150.3224 </r>
       <r>    12.2044    17.1348   151.8278 </r>
       <r>    12.2922    18.9197   153.4900 </r>
       <r>    12.3801    17.9178   155.0641 </r>
       <r>    12.4680    16.7500   156.5357 </r>
       <r>    12.5558    17.0132   158.0304 </r>
       <r>    12.6437    12.6359   159.1405 </r>
       <r>    12.7315     7.4164   159.7921 </r>
       <r>    12.8194     2.1092   159.9774 </r>
       <r>    12.9072     0.2501   159.9994 </r>
       <r>    12.9951     0.0044   159.9997 </r>
       <r>    13.0829     0.0014   159.9999 </r>
       <r>    13.1708     0.0014   160.0000 </r>
       <r>    13.2586     0.0000   160.0000 </r>
       <r>    13.3465     0.0000   160.0000 </r>
       <r>    13.4344     0.0000   160.0000 </r>
       <r>    13.5222     0.0000   160.0000 </r>
       <r>    13.6101     0.0000   160.0000 </r>
       <r>    13.6979     0.0000   160.0000 </r>
       <r>    13.7858     0.0000   160.0000 </r>
       <r>    13.8736     0.0000   160.0000 </r>
       <r>    13.9615     0.0000   160.0000 </r>
       <r>    14.0493     0.0000   160.0000 </r>
      </set>
     </set>
    </array>
   </total>
  </dos>
 </calculation>
 <structure name="finalpos" >
  <crystal>
   <varray name="basis" >
    <v>       4.27151656      -7.39848370       0.00000000 </v>
    <v>       4.27151656       7.39848370       0.00000000 </v>
    <v>      -0.00000000      -0.00000000       5.47394832 </v>
   </varray>
   <i name="volume">    345.98359300 </i>
   <varray name="rec_basis" >
    <v>       0.11705445      -0.06758142       0.00000000 </v>
    <v>       0.11705445       0.06758142       0.00000000 </v>
    <v>      -0.00000000      -0.00000000       0.18268349 </v>
   </varray>
  </crystal>
  <varray name="positions" >
   <v>       0.00847736       0.64712623       0.21326215 </v>
   <v>       0.63864887       0.99152264       0.21326215 </v>
   <v>       0.91417805       0.32157747      -0.00812732 </v>
   <v>       0.64712623       0.00847736       0.71326215 </v>
   <v>       0.08582195       0.40739942       0.49187268 </v>
   <v>       0.32157747       0.91417805       0.49187268 </v>
   <v>       0.35287377       0.36135113       0.21326215 </v>
   <v>       0.59260058       0.67842253       0.49187268 </v>
   <v>       0.99152264       0.63864887       0.71326215 </v>
   <v>       0.36135113       0.35287377       0.71326215 </v>
   <v>       0.67842253       0.59260058      -0.00812732 </v>
   <v>       0.40739942       0.08582195      -0.00812732 </v>
   <v>       0.21311138       0.30040483       0.46674092 </v>
   <v>       0.08729345       0.78688862       0.46674092 </v>
   <v>       0.30040483       0.21311138       0.96674092 </v>
   <v>       0.69959517      -0.08729345       0.46674092 </v>
   <v>       0.00000000      -0.00000000       0.95692726 </v>
   <v>       0.06686359       0.48449764       0.78259872 </v>
   <v>       0.00000000      -0.00000000       0.45692726 </v>
   <v>       0.66666667       0.33333333       0.47577702 </v>
   <v>       0.58236595       0.51550236       0.28259872 </v>
   <v>       0.78688862       0.08729345       0.96674092 </v>
   <v>      -0.08729345       0.69959517       0.96674092 </v>
   <v>       0.33333333       0.66666667      -0.02422298 </v>
   <v>      -0.06686359       0.41763405       0.28259872 </v>
   <v>       0.41763405      -0.06686359       0.78259872 </v>
   <v>       0.51550236       0.58236595       0.78259872 </v>
   <v>       0.48449764       0.06686359       0.28259872 </v>
  </varray>
 </structure>
</modeling>
