unknown system                          
           1
     3.876122   -6.713640    0.000000
     3.876122    6.713640    0.000000
     0.000000    0.000000    5.618852
   Si   N 
  12  16
Direct configuration=     1
   0.08183856  0.56959356  0.19639718
   0.48775500  0.91816144  0.19639718
   0.91376937  0.16718716  0.98847927
   0.56959356  0.08183856  0.69639718
   0.08623063  0.25341779  0.48847927
   0.16718716  0.91376937  0.48847927
   0.43040644  0.51224500  0.19639718
   0.74658221  0.83281284  0.48847927
   0.91816144  0.48775500  0.69639718
   0.51224500  0.43040644  0.69639718
   0.83281284  0.74658221  0.98847927
   0.25341779  0.08623063  0.98847927
   0.34445222  0.39000089  0.46906888
   0.04554867  0.65554778  0.46906888
   0.39000089  0.34445222  0.96906888
   0.60999911  0.95445133  0.46906888
   0.00000000  0.00000000  0.98900807
   0.99637858  0.31473305  0.73484545
   0.00000000  0.00000000  0.48900807
   0.66666667  0.33333333  0.64074727
   0.68164553  0.68526695  0.23484545
   0.65554778  0.04554867  0.96906888
   0.95445133  0.60999911  0.96906888
   0.33333333  0.66666667  0.14074727
   0.00362142  0.31835447  0.23484545
   0.31835447  0.00362142  0.73484545
   0.68526695  0.68164553  0.73484545
   0.31473305  0.99637858  0.23484545
unknown system                          
           1
     4.359135   -7.550243   -0.000000
     4.359135    7.550243   -0.000000
     0.000000    0.000000    6.322058
   Si   N 
  12  16
Direct configuration=     2
   0.07563711  0.55895768  0.20299874
   0.48332057  0.92436289  0.20299874
   0.90884749  0.17353859  0.98522418
   0.55895768  0.07563711  0.70299874
   0.09115251  0.26469111  0.48522418
   0.17353859  0.90884749  0.48522418
   0.44104232  0.51667943  0.20299874
   0.73530889  0.82646141  0.48522418
   0.92436289  0.48332057  0.70299874
   0.51667943  0.44104232  0.70299874
   0.82646141  0.73530889  0.98522418
   0.26469111  0.09115251  0.98522418
   0.34247619  0.37834537  0.46934013
   0.03586918  0.65752381  0.46934013
   0.37834537  0.34247619  0.96934013
   0.62165463  0.96413082  0.46934013
  -0.00000000 -0.00000000  0.98978433
   0.01645077  0.31690223  0.74119442
  -0.00000000 -0.00000000  0.48978433
   0.66666667  0.33333333  0.61007097
   0.69954854  0.68309777  0.24119442
   0.65752381  0.03586918  0.96934013
   0.96413082  0.62165463  0.96934013
   0.33333333  0.66666667  0.11007097
  -0.01645077  0.30045146  0.24119442
   0.30045146 -0.01645077  0.74119442
   0.68309777  0.69954854  0.74119442
   0.31690223  0.01645077  0.24119442
unknown system                          
           1
     4.152102   -7.191652   -0.000000
     4.152102    7.191652   -0.000000
     0.000000    0.000000    6.020645
   Si   N 
  12  16
Direct configuration=     3
   0.07800069  0.56301137  0.20048387
   0.48501068  0.92199931  0.20048387
   0.91072338  0.17111785  0.98646421
   0.56301137  0.07800069  0.70048387
   0.08927662  0.26039447  0.48646421
   0.17111785  0.91072338  0.48646421
   0.43698863  0.51498932  0.20048387
   0.73960553  0.82888215  0.48646421
   0.92199931  0.48501068  0.70048387
   0.51498932  0.43698863  0.70048387
   0.82888215  0.73960553  0.98646421
   0.26039447  0.08927662  0.98646421
   0.34322932  0.38278768  0.46923680
   0.03955836  0.65677068  0.46923680
   0.38278768  0.34322932  0.96923680
   0.61721232  0.96044164  0.46923680
  -0.00000000 -0.00000000  0.98948861
   0.00880059  0.31607549  0.73877577
  -0.00000000 -0.00000000  0.48948861
   0.66666667  0.33333333  0.62175713
   0.69272510  0.68392451  0.23877577
   0.65677068  0.03955836  0.96923680
   0.96044164  0.61721232  0.96923680
   0.33333333  0.66666667  0.12175713
  -0.00880059  0.30727490  0.23877577
   0.30727490 -0.00880059  0.73877577
   0.68392451  0.69272510  0.73877577
   0.31607549  0.00880059  0.23877577
unknown system                          
           1
     4.143298   -7.176403   -0.000000
     4.143298    7.176403   -0.000000
     0.000000    0.000000    6.007827
   Si   N 
  12  16
Direct configuration=     4
   0.07810621  0.56319235  0.20037157
   0.48508614  0.92189379  0.20037157
   0.91080713  0.17100977  0.98651958
   0.56319235  0.07810621  0.70037157
   0.08919287  0.26020264  0.48651958
   0.17100977  0.91080713  0.48651958
   0.43680765  0.51491386  0.20037157
   0.73979736  0.82899023  0.48651958
   0.92189379  0.48508614  0.70037157
   0.51491386  0.43680765  0.70037157
   0.82899023  0.73979736  0.98651958
   0.26020264  0.08919287  0.98651958
   0.34326295  0.38298601  0.46923218
   0.03972306  0.65673705  0.46923218
   0.38298601  0.34326295  0.96923218
   0.61701399  0.96027694  0.46923218
  -0.00000000 -0.00000000  0.98947541
   0.00845904  0.31603858  0.73866777
  -0.00000000 -0.00000000  0.48947541
   0.66666667  0.33333333  0.62227897
   0.69242046  0.68396142  0.23866777
   0.65673705  0.03972306  0.96923218
   0.96027694  0.61701399  0.96923218
   0.33333333  0.66666667  0.12227897
  -0.00845904  0.30757954  0.23866777
   0.30757954 -0.00845904  0.73866777
   0.68396142  0.69242046  0.73866777
   0.31603858  0.00845904  0.23866777
unknown system                          
           1
     4.117324   -7.131414   -0.000000
     4.117324    7.131414   -0.000000
     0.000000    0.000000    6.002131
   Si   N 
  12  16
Direct configuration=     5
   0.07494158  0.55523741  0.20710421
   0.48029583  0.92505842  0.20710421
   0.90956883  0.17404793  0.98235463
   0.55523741  0.07494158  0.70710421
   0.09043117  0.26447909  0.48235463
   0.17404793  0.90956883  0.48235463
   0.44476259  0.51970417  0.20710421
   0.73552091  0.82595207  0.48235463
   0.92505842  0.48029583  0.70710421
   0.51970417  0.44476259  0.70710421
   0.82595207  0.73552091  0.98235463
   0.26447909  0.09043117  0.98235463
   0.34661184  0.37631133  0.46709587
   0.02969950  0.65338816  0.46709587
   0.37631133  0.34661184  0.96709587
   0.62368867  0.97030050  0.46709587
  -0.00000000 -0.00000000  0.98961237
   0.02100761  0.32165902  0.74487868
  -0.00000000 -0.00000000  0.48961237
   0.66666667  0.33333333  0.60221515
   0.69934859  0.67834098  0.24487868
   0.65338816  0.02969950  0.96709587
   0.97030050  0.62368867  0.96709587
   0.33333333  0.66666667  0.10221515
  -0.02100761  0.30065141  0.24487868
   0.30065141 -0.02100761  0.74487868
   0.67834098  0.69934859  0.74487868
   0.32165902  0.02100761  0.24487868
unknown system                          
           1
     4.039401   -6.996447   -0.000000
     4.039401    6.996447   -0.000000
     0.000000    0.000000    5.985043
   Si   N 
  12  16
Direct configuration=     6
   0.06538779  0.53122205  0.22732129
   0.46583427  0.93461221  0.22732129
   0.90583051  0.18321989  0.96984793
   0.53122205  0.06538779  0.72732129
   0.09416949  0.27738938  0.46984793
   0.18321989  0.90583051  0.46984793
   0.46877795  0.53416573  0.22732129
   0.72261062  0.81678011  0.46984793
   0.93461221  0.46583427  0.72732129
   0.53416573  0.46877795  0.72732129
   0.81678011  0.72261062  0.96984793
   0.27738938  0.09416949  0.96984793
   0.35672188  0.35616097  0.46068085
  -0.00056091  0.64327812  0.46068085
   0.35616097  0.35672188  0.96068085
   0.64383903  0.00056091  0.46068085
  -0.00000000 -0.00000000  0.99002366
   0.05889082  0.33862673  0.76352909
  -0.00000000 -0.00000000  0.49002366
   0.66666667  0.33333333  0.54196656
   0.72026409  0.66137327  0.26352909
   0.64327812 -0.00056091  0.96068085
   0.00056091  0.64383903  0.96068085
   0.33333333  0.66666667  0.04196656
  -0.05889082  0.27973591  0.26352909
   0.27973591 -0.05889082  0.76352909
   0.66137327  0.72026409  0.76352909
   0.33862673  0.05889082  0.26352909
unknown system                          
           1
     3.989143   -6.909398   -0.000000
     3.989143    6.909398    0.000000
     0.000000    0.000000    5.823252
   Si   N 
  12  16
Direct configuration=     7
   0.06195161  0.53105265  0.22910762
   0.46910104  0.93804839  0.22910762
   0.90183308  0.18198823  0.97310712
   0.53105265  0.06195161  0.72910762
   0.09816692  0.28015514  0.47310712
   0.18198823  0.90183308  0.47310712
   0.46894735  0.53089896  0.22910762
   0.71984486  0.81801177  0.47310712
   0.93804839  0.46910104  0.72910762
   0.53089896  0.46894735  0.72910762
   0.81801177  0.71984486  0.97310712
   0.28015514  0.09816692  0.97310712
   0.36092365  0.35019374  0.45688145
  -0.01072991  0.63907635  0.45688145
   0.35019374  0.36092365  0.95688145
   0.64980626  0.01072991  0.45688145
  -0.00000000 -0.00000000  0.99024872
   0.07284004  0.34530115  0.76632171
  -0.00000000 -0.00000000  0.49024872
   0.66666667  0.33333333  0.52962526
   0.72753888  0.65469885  0.26632171
   0.63907635 -0.01072991  0.95688145
   0.01072991  0.64980626  0.95688145
   0.33333333  0.66666667  0.02962526
  -0.07284004  0.27246112  0.26632171
   0.27246112 -0.07284004  0.76632171
   0.65469885  0.72753888  0.76632171
   0.34530115  0.07284004  0.26632171
unknown system                          
           1
     3.960649   -6.860045   -0.000000
     3.960649    6.860045    0.000000
     0.000000    0.000000    5.731523
   Si   N 
  12  16
Direct configuration=     8
   0.05997889  0.53095539  0.23014854
   0.47097650  0.94002111  0.23014854
   0.89953815  0.18128113  0.97500629
   0.53095539  0.05997889  0.73014854
   0.10046185  0.28174297  0.47500629
   0.18128113  0.89953815  0.47500629
   0.46904461  0.52902350  0.23014854
   0.71825703  0.81871887  0.47500629
   0.94002111  0.47097650  0.73014854
   0.52902350  0.46904461  0.73014854
   0.81871887  0.71825703  0.97500629
   0.28174297  0.10046185  0.97500629
   0.36333590  0.34676794  0.45466749
  -0.01656796  0.63666410  0.45466749
   0.34676794  0.36333590  0.95466749
   0.65323206  0.01656796  0.45466749
  -0.00000000 -0.00000000  0.99037986
   0.08084831  0.34913296  0.76794900
  -0.00000000 -0.00000000  0.49037986
   0.66666667  0.33333333  0.52243384
   0.73171536  0.65086704  0.26794900
   0.63666410 -0.01656796  0.95466749
   0.01656796  0.65323206  0.95466749
   0.33333333  0.66666667  0.02243384
  -0.08084831  0.26828464  0.26794900
   0.26828464 -0.08084831  0.76794900
   0.65086704  0.73171536  0.76794900
   0.34913296  0.08084831  0.26794900
unknown system                          
           1
     3.985275   -6.902699    0.000000
     3.985275    6.902699    0.000000
     0.000000    0.000000    5.645458
   Si   N 
  12  16
Direct configuration=     9
   0.05703270  0.53537215  0.22438997
   0.47833946  0.94296730  0.22438997
   0.89761009  0.17953363  0.97952211
   0.53537215  0.05703270  0.72438997
   0.10238991  0.28192354  0.47952211
   0.17953363  0.89761009  0.47952211
   0.46462785  0.52166054  0.22438997
   0.71807646  0.82046637  0.47952211
   0.94296730  0.47833946  0.72438997
   0.52166054  0.46462785  0.72438997
   0.82046637  0.71807646  0.97952211
   0.28192354  0.10238991  0.97952211
   0.36537576  0.34793571  0.45346729
  -0.01744005  0.63462424  0.45346729
   0.34793571  0.36537576  0.95346729
   0.65206429  0.01744005  0.45346729
  -0.00000000 -0.00000000  0.98933132
   0.08302350  0.35307177  0.77172387
  -0.00000000 -0.00000000  0.48933132
   0.66666667  0.33333333  0.51948666
   0.72995174  0.64692823  0.27172387
   0.63462424 -0.01744005  0.95346729
   0.01744005  0.65206429  0.95346729
   0.33333333  0.66666667  0.01948666
  -0.08302350  0.27004826  0.27172387
   0.27004826 -0.08302350  0.77172387
   0.64692823  0.72995174  0.77172387
   0.35307177  0.08302350  0.27172387
unknown system                          
           1
     4.026872   -6.974748    0.000000
     4.026872    6.974748    0.000000
     0.000000   -0.000000    5.500084
   Si   N 
  12  16
Direct configuration=    10
   0.05208700  0.54278647  0.21451480
   0.49069947  0.94791300  0.21451480
   0.89437349  0.17660014  0.98726612
   0.54278647  0.05208700  0.71451480
   0.10562651  0.28222665  0.48726612
   0.17660014  0.89437349  0.48726612
   0.45721353  0.50930053  0.21451480
   0.71777335  0.82339986  0.48726612
   0.94791300  0.49069947  0.71451480
   0.50930053  0.45721353  0.71451480
   0.82339986  0.71777335  0.98726612
   0.28222665  0.10562651  0.98726612
   0.36880002  0.34989600  0.45140910
  -0.01890402  0.63119998  0.45140910
   0.34989600  0.36880002  0.95140910
   0.65010400  0.01890402  0.45140910
  -0.00000000 -0.00000000  0.98753321
   0.08667494  0.35968375  0.77819724
  -0.00000000 -0.00000000  0.48753321
   0.66666667  0.33333333  0.51443267
   0.72699119  0.64031625  0.27819724
   0.63119998 -0.01890402  0.95140910
   0.01890402  0.65010400  0.95140910
   0.33333333  0.66666667  0.01443267
  -0.08667494  0.27300881  0.27819724
   0.27300881 -0.08667494  0.77819724
   0.64031625  0.72699119  0.77819724
   0.35968375  0.08667494  0.27819724
unknown system                          
           1
     4.064423   -7.039787    0.000000
     4.064423    7.039787    0.000000
     0.000000   -0.000000    5.495735
   Si   N 
  12  16
Direct configuration=    11
   0.05074855  0.54505689  0.20833288
   0.49430834  0.94925145  0.20833288
   0.89363309  0.17697040  0.98946049
   0.54505689  0.05074855  0.70833288
   0.10636691  0.28333731  0.48946049
   0.17697040  0.89363309  0.48946049
   0.45494311  0.50569166  0.20833288
   0.71666269  0.82302960  0.48946049
   0.94925145  0.49430834  0.70833288
   0.50569166  0.45494311  0.70833288
   0.82302960  0.71666269  0.98946049
   0.28333731  0.10636691  0.98946049
   0.36638873  0.34849744  0.45134492
  -0.01789129  0.63361127  0.45134492
   0.34849744  0.36638873  0.95134492
   0.65150256  0.01789129  0.45134492
  -0.00000000 -0.00000000  0.98659492
   0.08675537  0.36319143  0.78430377
  -0.00000000 -0.00000000  0.48659492
   0.66666667  0.33333333  0.50920659
   0.72356394  0.63680857  0.28430377
   0.63361127 -0.01789129  0.95134492
   0.01789129  0.65150256  0.95134492
   0.33333333  0.66666667  0.00920659
  -0.08675537  0.27643606  0.28430377
   0.27643606 -0.08675537  0.78430377
   0.63680857  0.72356394  0.78430377
   0.36319143  0.08675537  0.28430377
unknown system                          
           1
     4.098549   -7.098895    0.000000
     4.098549    7.098895    0.000000
     0.000000   -0.000000    5.491783
   Si   N 
  12  16
Direct configuration=    12
   0.04954340  0.54710120  0.20271028
   0.49755780  0.95045660  0.20271028
   0.89296642  0.17730379  0.99145632
   0.54710120  0.04954340  0.70271028
   0.10703358  0.28433737  0.49145632
   0.17730379  0.89296642  0.49145632
   0.45289880  0.50244220  0.20271028
   0.71566263  0.82269621  0.49145632
   0.95045660  0.49755780  0.70271028
   0.50244220  0.45289880  0.70271028
   0.82269621  0.71566263  0.99145632
   0.28433737  0.10703358  0.99145632
   0.36421758  0.34723816  0.45128655
  -0.01697942  0.63578242  0.45128655
   0.34723816  0.36421758  0.95128655
   0.65276184  0.01697942  0.45128655
  -0.00000000 -0.00000000  0.98574152
   0.08682780  0.36634978  0.78985779
  -0.00000000 -0.00000000  0.48574152
   0.66666667  0.33333333  0.50445334
   0.72047802  0.63365022  0.28985779
   0.63578242 -0.01697942  0.95128655
   0.01697942  0.65276184  0.95128655
   0.33333333  0.66666667  0.00445334
  -0.08682780  0.27952198  0.28985779
   0.27952198 -0.08682780  0.78985779
   0.63365022  0.72047802  0.78985779
   0.36634978  0.08682780  0.28985779
unknown system                          
           1
     4.102525   -7.105781    0.000000
     4.102525    7.105781    0.000000
     0.000000   -0.000000    5.516071
   Si   N 
  12  16
Direct configuration=    13
   0.04956379  0.54670760  0.20308388
   0.49714381  0.95043621  0.20308388
   0.89383919  0.18007284  0.99247239
   0.54670760  0.04956379  0.70308388
   0.10616081  0.28623366  0.49247239
   0.18007284  0.89383919  0.49247239
   0.45329240  0.50285619  0.20308388
   0.71376634  0.81992716  0.49247239
   0.95043621  0.49714381  0.70308388
   0.50285619  0.45329240  0.70308388
   0.81992716  0.71376634  0.99247239
   0.28623366  0.10616081  0.99247239
   0.35794520  0.34447068  0.44870254
  -0.01347452  0.64205480  0.44870254
   0.34447068  0.35794520  0.94870254
   0.65552932  0.01347452  0.44870254
  -0.00000000 -0.00000000  0.98578665
   0.08553684  0.36730430  0.79291233
  -0.00000000 -0.00000000  0.48578665
   0.66666667  0.33333333  0.49882761
   0.71823254  0.63269570  0.29291233
   0.64205480 -0.01347452  0.94870254
   0.01347452  0.65552932  0.94870254
   0.33333333  0.66666667 -0.00117239
  -0.08553684  0.28176746  0.29291233
   0.28176746 -0.08553684  0.79291233
   0.63269570  0.71823254  0.79291233
   0.36730430  0.08553684  0.29291233
unknown system                          
           1
     4.111549   -7.121412    0.000000
     4.111549    7.121412    0.000000
     0.000000   -0.000000    5.571204
   Si   N 
  12  16
Direct configuration=    14
   0.04961003  0.54581501  0.20392822
   0.49620498  0.95038997  0.20392822
   0.89581842  0.18635244  0.99476868
   0.54581501  0.04961003  0.70392822
   0.10418158  0.29053402  0.49476868
   0.18635244  0.89581842  0.49476868
   0.45418499  0.50379502  0.20392822
   0.70946598  0.81364756  0.49476868
   0.95038997  0.49620498  0.70392822
   0.50379502  0.45418499  0.70392822
   0.81364756  0.70946598  0.99476868
   0.29053402  0.10418158  0.99476868
   0.34372085  0.33819465  0.44286273
  -0.00552619  0.65627915  0.44286273
   0.33819465  0.34372085  0.94286273
   0.66180535  0.00552619  0.44286273
  -0.00000000 -0.00000000  0.98588865
   0.08260922  0.36946893  0.79981553
  -0.00000000 -0.00000000  0.48588865
   0.66666667  0.33333333  0.48611357
   0.71314029  0.63053107  0.29981553
   0.65627915 -0.00552619  0.94286273
   0.00552619  0.66180535  0.94286273
   0.33333333  0.66666667 -0.01388643
  -0.08260922  0.28685971  0.29981553
   0.28685971 -0.08260922  0.79981553
   0.63053107  0.71314029  0.79981553
   0.36946893  0.08260922  0.29981553
unknown system                          
           1
     4.086159   -7.077435    0.000000
     4.086159    7.077435    0.000000
     0.000000   -0.000000    5.528497
   Si   N 
  12  16
Direct configuration=    15
   0.04961945  0.54789870  0.20315411
   0.49827925  0.95038055  0.20315411
   0.89792267  0.19144378  0.99734066
   0.54789870  0.04961945  0.70315411
   0.10207733  0.29352111  0.49734066
   0.19144378  0.89792267  0.49734066
   0.45210130  0.50172075  0.20315411
   0.70647889  0.80855622  0.49734066
   0.95038055  0.49827925  0.70315411
   0.50172075  0.45210130  0.70315411
   0.80855622  0.70647889  0.99734066
   0.29352111  0.10207733  0.99734066
   0.33823211  0.33776528  0.44179645
  -0.00046683  0.66176789  0.44179645
   0.33776528  0.33823211  0.94179645
   0.66223472  0.00046683  0.44179645
  -0.00000000 -0.00000000  0.98600648
   0.08108940  0.37049956  0.80099622
  -0.00000000 -0.00000000  0.48600648
   0.66666667  0.33333333  0.48025887
   0.71058984  0.62950044  0.30099622
   0.66176789 -0.00046683  0.94179645
   0.00046683  0.66223472  0.94179645
   0.33333333  0.66666667 -0.01974113
  -0.08108940  0.28941016  0.30099622
   0.28941016 -0.08108940  0.80099622
   0.62950044  0.71058984  0.80099622
   0.37049956  0.08108940  0.30099622
unknown system                          
           1
     4.047209   -7.009972    0.000000
     4.047209    7.009972    0.000000
    -0.000000   -0.000000    5.462983
   Si   N 
  12  16
Direct configuration=    16
   0.04963399  0.55111507  0.20195742
   0.50148108  0.95036601  0.20195742
   0.90117079  0.19930275  0.00131672
   0.55111507  0.04963399  0.70195742
   0.09882921  0.29813196  0.50131672
   0.19930275  0.90117079  0.50131672
   0.44888493  0.49851892  0.20195742
   0.70186804  0.80069725  0.50131672
   0.95036601  0.50148108  0.70195742
   0.49851892  0.44888493  0.70195742
   0.80069725  0.70186804  0.00131672
   0.29813196  0.09882921  0.00131672
   0.32975973  0.33710250  0.44014807
   0.00734277  0.67024027  0.44014807
   0.33710250  0.32975973  0.94014807
   0.66289750 -0.00734277  0.44014807
  -0.00000000 -0.00000000  0.98618864
   0.07874341  0.37209043  0.80282147
  -0.00000000 -0.00000000  0.48618864
   0.66666667  0.33333333  0.47120801
   0.70665298  0.62790957  0.30282147
   0.67024027  0.00734277  0.94014807
  -0.00734277  0.66289750  0.94014807
   0.33333333  0.66666667 -0.02879199
  -0.07874341  0.29334702  0.30282147
   0.29334702 -0.07874341  0.80282147
   0.62790957  0.70665298  0.80282147
   0.37209043  0.07874341  0.30282147
unknown system                          
           1
     4.061069   -7.033977    0.000000
     4.061069    7.033977    0.000000
     0.000000   -0.000000    5.458443
   Si   N 
  12  16
Direct configuration=    17
   0.05073536  0.55548207  0.19873671
   0.50474671  0.94926464  0.19873671
   0.90294712  0.20534133  0.00383690
   0.55548207  0.05073536  0.69873671
   0.09705288  0.30239421  0.50383690
   0.20534133  0.90294712  0.50383690
   0.44451793  0.49525329  0.19873671
   0.69760579  0.79465867  0.50383690
   0.94926464  0.50474671  0.69873671
   0.49525329  0.44451793  0.69873671
   0.79465867  0.69760579  0.00383690
   0.30239421  0.09705288  0.00383690
   0.32786241  0.33772580  0.44233122
   0.00986339  0.67213759  0.44233122
   0.33772580  0.32786241  0.94233122
   0.66227420 -0.00986339  0.44233122
  -0.00000000 -0.00000000  0.98588800
   0.07974739  0.37491378  0.80246484
  -0.00000000 -0.00000000  0.48588800
   0.66666667  0.33333333  0.46813067
   0.70483360  0.62508622  0.30246484
   0.67213759  0.00986339  0.94233122
  -0.00986339  0.66227420  0.94233122
   0.33333333  0.66666667 -0.03186933
  -0.07974739  0.29516640  0.30246484
   0.29516640 -0.07974739  0.80246484
   0.62508622  0.70483360  0.80246484
   0.37491378  0.07974739  0.30246484
unknown system                          
           1
     4.081592   -7.069524    0.000000
     4.081592    7.069524    0.000000
     0.000000   -0.000000    5.451721
   Si   N 
  12  16
Direct configuration=    18
   0.05236065  0.56192644  0.19396367
   0.50956578  0.94763935  0.19396367
   0.90556843  0.21425245  0.00757177
   0.56192644  0.05236065  0.69396367
   0.09443157  0.30868401  0.50757177
   0.21425245  0.90556843  0.50757177
   0.43807356  0.49043422  0.19396367
   0.69131599  0.78574755  0.50757177
   0.94763935  0.50956578  0.69396367
   0.49043422  0.43807356  0.69396367
   0.78574755  0.69131599  0.00757177
   0.30868401  0.09443157  0.00757177
   0.32506254  0.33864561  0.44556662
   0.01358307  0.67493746  0.44556662
   0.33864561  0.32506254  0.94556662
   0.66135439 -0.01358307  0.44556662
  -0.00000000 -0.00000000  0.98544246
   0.08122895  0.37908019  0.80193633
  -0.00000000 -0.00000000  0.48544246
   0.66666667  0.33333333  0.46357009
   0.70214876  0.62091981  0.30193633
   0.67493746  0.01358307  0.94556662
  -0.01358307  0.66135439  0.94556662
   0.33333333  0.66666667 -0.03642991
  -0.08122895  0.29785124  0.30193633
   0.29785124 -0.08122895  0.80193633
   0.62091981  0.70214876  0.80193633
   0.37908019  0.08122895  0.30193633
unknown system                          
           1
     4.093633   -7.090381    0.000000
     4.093633    7.090381    0.000000
     0.000000   -0.000000    5.516683
   Si   N 
  12  16
Direct configuration=    19
   0.05389193  0.56631104  0.19328268
   0.51241911  0.94610807  0.19328268
   0.90406558  0.21809363  0.00511239
   0.56631104  0.05389193  0.69328268
   0.09593442  0.31402805  0.50511239
   0.21809363  0.90406558  0.50511239
   0.43368896  0.48758089  0.19328268
   0.68597195  0.78190637  0.50511239
   0.94610807  0.51241911  0.69328268
   0.48758089  0.43368896  0.69328268
   0.78190637  0.68597195  0.00511239
   0.31402805  0.09593442  0.00511239
   0.32144896  0.33722714  0.44700493
   0.01577819  0.67855104  0.44700493
   0.33722714  0.32144896  0.94700493
   0.66277286 -0.01577819  0.44700493
   0.00000000 -0.00000000  0.98445897
   0.08239108  0.38286328  0.80382511
   0.00000000 -0.00000000  0.48445897
   0.66666667  0.33333333  0.46399342
   0.69952780  0.61713672  0.30382511
   0.67855104  0.01577819  0.94700493
  -0.01577819  0.66277286  0.94700493
   0.33333333  0.66666667 -0.03600658
  -0.08239108  0.30047220  0.30382511
   0.30047220 -0.08239108  0.80382511
   0.61713672  0.69952780  0.80382511
   0.38286328  0.08239108  0.30382511
unknown system                          
           1
     4.098676   -7.099115    0.000000
     4.098676    7.099115    0.000000
    -0.000000   -0.000000    5.543888
   Si   N 
  12  16
Direct configuration=    20
   0.05453131  0.56814182  0.19300085
   0.51361051  0.94546869  0.19300085
   0.90343807  0.21969750  0.00409458
   0.56814182  0.05453131  0.69300085
   0.09656193  0.31625943  0.50409458
   0.21969750  0.90343807  0.50409458
   0.43185818  0.48638949  0.19300085
   0.68374057  0.78030250  0.50409458
   0.94546869  0.51361051  0.69300085
   0.48638949  0.43185818  0.69300085
   0.78030250  0.68374057  0.00409458
   0.31625943  0.09656193  0.00409458
   0.31994012  0.33663487  0.44760017
   0.01669475  0.68005988  0.44760017
   0.33663487  0.31994012  0.94760017
   0.66336513 -0.01669475  0.44760017
   0.00000000 -0.00000000  0.98405195
   0.08287632  0.38444290  0.80460677
   0.00000000 -0.00000000  0.48405195
   0.66666667  0.33333333  0.46416861
   0.69843342  0.61555710  0.30460677
   0.68005988  0.01669475  0.94760017
  -0.01669475  0.66336513  0.94760017
   0.33333333  0.66666667 -0.03583139
  -0.08287632  0.30156658  0.30460677
   0.30156658 -0.08287632  0.80460677
   0.61555710  0.69843342  0.80460677
   0.38444290  0.08287632  0.30460677
unknown system                          
           1
     4.085333   -7.076004    0.000000
     4.085333    7.076004    0.000000
    -0.000000   -0.000000    5.553108
   Si   N 
  12  16
Direct configuration=    21
   0.05529285  0.57233866  0.19440300
   0.51704581  0.94470715  0.19440300
   0.90080917  0.22386317  0.00312034
   0.57233866  0.05529285  0.69440300
   0.09919083  0.32305401  0.50312034
   0.22386317  0.90080917  0.50312034
   0.42766134  0.48295419  0.19440300
   0.67694599  0.77613683  0.50312034
   0.94470715  0.51704581  0.69440300
   0.48295419  0.42766134  0.69440300
   0.77613683  0.67694599  0.00312034
   0.32305401  0.09919083  0.00312034
   0.31625506  0.33474854  0.44703333
   0.01849348  0.68374494  0.44703333
   0.33474854  0.31625506  0.94703333
   0.66525146 -0.01849348  0.44703333
   0.00000000 -0.00000000  0.98230425
   0.08236772  0.38655782  0.80376720
   0.00000000 -0.00000000  0.48230425
   0.66666667  0.33333333  0.46885178
   0.69580990  0.61344218  0.30376720
   0.68374494  0.01849348  0.94703333
  -0.01849348  0.66525146  0.94703333
   0.33333333  0.66666667 -0.03114822
  -0.08236772  0.30419010  0.30376720
   0.30419010 -0.08236772  0.80376720
   0.61344218  0.69580990  0.80376720
   0.38655782  0.08236772  0.30376720
unknown system                          
           1
     4.053928   -7.021609    0.000000
     4.053928    7.021609    0.000000
    -0.000000   -0.000000    5.574809
   Si   N 
  12  16
Direct configuration=    22
   0.05709114  0.58224896  0.19769775
   0.52515782  0.94290886  0.19769775
   0.89460135  0.23369988  0.00083110
   0.58224896  0.05709114  0.69769775
   0.10539865  0.33909853  0.50083110
   0.23369988  0.89460135  0.50083110
   0.41775104  0.47484218  0.19769775
   0.66090147  0.76630012  0.50083110
   0.94290886  0.52515782  0.69769775
   0.47484218  0.41775104  0.69769775
   0.76630012  0.66090147  0.00083110
   0.33909853  0.10539865  0.00083110
   0.30755327  0.33029421  0.44570141
   0.02274093  0.69244673  0.44570141
   0.33029421  0.30755327  0.94570141
   0.66970579 -0.02274093  0.44570141
   0.00000000 -0.00000000  0.97819752
   0.08116674  0.39155194  0.80179440
   0.00000000 -0.00000000  0.47819752
   0.66666667  0.33333333  0.47985620
   0.68961480  0.60844806  0.30179440
   0.69244673  0.02274093  0.94570141
  -0.02274093  0.66970579  0.94570141
   0.33333333  0.66666667 -0.02014380
  -0.08116674  0.31038520  0.30179440
   0.31038520 -0.08116674  0.80179440
   0.60844806  0.68961480  0.80179440
   0.39155194  0.08116674  0.30179440
unknown system                          
           1
     4.041526   -7.000128    0.000000
     4.041526    7.000128    0.000000
    -0.000000   -0.000000    5.583380
   Si   N 
  12  16
Direct configuration=    23
   0.05780683  0.58619309  0.19899386
   0.52838626  0.94219317  0.19899386
   0.89213075  0.23761473 -0.00006946
   0.58619309  0.05780683  0.69899386
   0.10786925  0.34548398  0.49993054
   0.23761473  0.89213075  0.49993054
   0.41380691  0.47161374  0.19899386
   0.65451602  0.76238527  0.49993054
   0.94219317  0.52838626  0.69899386
   0.47161374  0.41380691  0.69899386
   0.76238527  0.65451602 -0.00006946
   0.34548398  0.10786925 -0.00006946
   0.30409011  0.32852146  0.44517745
   0.02443135  0.69590989  0.44517745
   0.32852146  0.30409011  0.94517745
   0.67147854 -0.02443135  0.44517745
   0.00000000 -0.00000000  0.97658199
   0.08068876  0.39353951  0.80101832
   0.00000000 -0.00000000  0.47658199
   0.66666667  0.33333333  0.48418519
   0.68714925  0.60646049  0.30101832
   0.69590989  0.02443135  0.94517745
  -0.02443135  0.67147854  0.94517745
   0.33333333  0.66666667 -0.01581481
  -0.08068876  0.31285075  0.30101832
   0.31285075 -0.08068876  0.80101832
   0.60646049  0.68714925  0.80101832
   0.39353951  0.08068876  0.30101832
unknown system                          
           1
     4.038567   -6.995003    0.000000
     4.038567    6.995003    0.000000
    -0.000000   -0.000000    5.586631
   Si   N 
  12  16
Direct configuration=    24
   0.05800360  0.58780859  0.19897798
   0.52980500  0.94199640  0.19897798
   0.89159745  0.24028613 -0.00008911
   0.58780859  0.05800360  0.69897798
   0.10840255  0.34868868  0.49991089
   0.24028613  0.89159745  0.49991089
   0.41219141  0.47019500  0.19897798
   0.65131132  0.75971387  0.49991089
   0.94199640  0.52980500  0.69897798