  56  56   0   0
  0.1030286E+02  0.8324955E-09  0.8324955E-09  0.8324955E-09  0.5000000E-15
  1.000000000000000E-004
  CAR 
 unknown system                          
     16.36262063    -10.33099371  301     11.03302178      1.00000000
    -10.331  0.0000E+00  0.0000E+00
    -10.242  0.0000E+00  0.0000E+00
    -10.153  0.0000E+00  0.0000E+00
    -10.064  0.0000E+00  0.0000E+00
     -9.975  0.1794E-32  0.1596E-33
     -9.886  0.2449E-26  0.2179E-27
     -9.797  0.6562E-21  0.5839E-22
     -9.708  0.3417E-16  0.3040E-17
     -9.619  0.3376E-12  0.3004E-13
     -9.530  0.6201E-09  0.5521E-10
     -9.441  0.2040E-06  0.1820E-07
     -9.352  0.1112E-04  0.1008E-05
     -9.263  0.5602E-04  0.5992E-05
     -9.174 -0.4519E-03 -0.3421E-04
     -9.085  0.3697E-02  0.2947E-03
     -8.996  0.2336E-01  0.2373E-02
     -8.907  0.2493E-01  0.4591E-02
     -8.818  0.5258E-01  0.9270E-02
     -8.729  0.4305E-01  0.1310E-01
     -8.640  0.4755E-01  0.1733E-01
     -8.551  0.8271E-01  0.2469E-01
     -8.462  0.6394E-01  0.3038E-01
     -8.373  0.9061E-01  0.3844E-01
     -8.284  0.7173E-01  0.4483E-01
     -8.196  0.1455E+00  0.5777E-01
     -8.107  0.1206E+00  0.6850E-01
     -8.018  0.8677E-01  0.7622E-01
     -7.929  0.1925E+00  0.9335E-01
     -7.840  0.2243E+00  0.1133E+00
     -7.751  0.2098E+00  0.1320E+00
     -7.662  0.1598E+00  0.1462E+00
     -7.573  0.1449E+00  0.1591E+00
     -7.484  0.2617E+00  0.1824E+00
     -7.395  0.3009E+00  0.2091E+00
     -7.306  0.2273E+00  0.2294E+00
     -7.217  0.1286E+00  0.2408E+00
     -7.128  0.7206E-01  0.2472E+00
     -7.039  0.8955E-01  0.2552E+00
     -6.950  0.1312E+00  0.2669E+00
     -6.861  0.5950E-01  0.2721E+00
     -6.772  0.3663E-01  0.2754E+00
     -6.683  0.1166E+00  0.2858E+00
     -6.594  0.1284E+00  0.2972E+00
     -6.505  0.4990E-01  0.3016E+00
     -6.416  0.5443E-01  0.3065E+00
     -6.327  0.6009E-01  0.3118E+00
     -6.238  0.4397E-01  0.3158E+00
     -6.149  0.4139E-02  0.3161E+00
     -6.060  0.1555E-01  0.3175E+00
     -5.971  0.7594E+00  0.3851E+00
     -5.882  0.1031E+01  0.4768E+00
     -5.793  0.5234E-01  0.4815E+00
     -5.704 -0.2025E-01  0.4797E+00
     -5.615  0.3767E-02  0.4800E+00
     -5.526  0.1582E-03  0.4800E+00
     -5.437  0.8013E-06  0.4800E+00
     -5.348  0.6960E-09  0.4800E+00
     -5.259  0.1139E-12  0.4800E+00
     -5.170  0.2396E-17  0.4800E+00
     -5.081  0.0000E+00  0.4800E+00
     -4.992  0.0000E+00  0.4800E+00
     -4.903  0.0000E+00  0.4800E+00
     -4.814  0.0000E+00  0.4800E+00
     -4.725  0.0000E+00  0.4800E+00
     -4.636  0.0000E+00  0.4800E+00
     -4.547  0.0000E+00  0.4800E+00
     -4.458  0.0000E+00  0.4800E+00
     -4.369  0.0000E+00  0.4800E+00
     -4.280  0.0000E+00  0.4800E+00
     -4.191  0.0000E+00  0.4800E+00
     -4.102  0.0000E+00  0.4800E+00
     -4.014  0.0000E+00  0.4800E+00
     -3.925  0.0000E+00  0.4800E+00
     -3.836  0.0000E+00  0.4800E+00
     -3.747  0.0000E+00  0.4800E+00
     -3.658  0.0000E+00  0.4800E+00
     -3.569  0.0000E+00  0.4800E+00
     -3.480  0.0000E+00  0.4800E+00
     -3.391  0.0000E+00  0.4800E+00
     -3.302  0.0000E+00  0.4800E+00
     -3.213  0.0000E+00  0.4800E+00
     -3.124  0.0000E+00  0.4800E+00
     -3.035  0.0000E+00  0.4800E+00
     -2.946  0.0000E+00  0.4800E+00
     -2.857  0.0000E+00  0.4800E+00
     -2.768  0.0000E+00  0.4800E+00
     -2.679  0.0000E+00  0.4800E+00
     -2.590  0.0000E+00  0.4800E+00
     -2.501  0.0000E+00  0.4800E+00
     -2.412  0.0000E+00  0.4800E+00
     -2.323  0.0000E+00  0.4800E+00
     -2.234  0.0000E+00  0.4800E+00
     -2.145  0.0000E+00  0.4800E+00
     -2.056  0.0000E+00  0.4800E+00
     -1.967  0.0000E+00  0.4800E+00
     -1.878  0.0000E+00  0.4800E+00
     -1.789  0.0000E+00  0.4800E+00
     -1.700  0.0000E+00  0.4800E+00
     -1.611  0.0000E+00  0.4800E+00
     -1.522  0.0000E+00  0.4800E+00
     -1.433  0.0000E+00  0.4800E+00
     -1.344  0.9591E-32  0.4800E+00
     -1.255  0.1478E-25  0.4800E+00
     -1.166  0.4501E-20  0.4800E+00
     -1.077  0.2680E-15  0.4800E+00
     -0.988  0.3072E-11  0.4800E+00
     -0.899  0.6552E-08  0.4800E+00
     -0.810  0.2448E-05  0.4800E+00
     -0.721  0.1345E-03  0.4800E+00
     -0.632  0.1731E-03  0.4800E+00
     -0.543 -0.3770E-02  0.4797E+00
     -0.454  0.4896E-01  0.4840E+00
     -0.365  0.1338E+00  0.4959E+00
     -0.276  0.2652E+00  0.5195E+00
     -0.187  0.3184E+00  0.5479E+00
     -0.098  0.3496E+00  0.5790E+00
     -0.009  0.3799E+00  0.6128E+00
      0.080  0.2697E+00  0.6368E+00
      0.168  0.3676E+00  0.6695E+00
      0.257  0.2088E+00  0.6881E+00
      0.346  0.2681E+00  0.7119E+00
      0.435  0.1122E+00  0.7219E+00
      0.524  0.1768E+00  0.7376E+00
      0.613  0.2053E+00  0.7559E+00
      0.702  0.2275E+00  0.7761E+00
      0.791  0.2387E+00  0.7974E+00
      0.880  0.1265E+00  0.8086E+00
      0.969  0.1386E+00  0.8210E+00
      1.058  0.1411E+00  0.8335E+00
      1.147  0.6314E-01  0.8391E+00
      1.236  0.9483E-01  0.8476E+00
      1.325  0.1992E+00  0.8653E+00
      1.414  0.1742E+00  0.8808E+00
      1.503  0.2208E+00  0.9004E+00
      1.592  0.2580E+00  0.9234E+00
      1.681  0.2803E+00  0.9483E+00
      1.770  0.2601E+00  0.9715E+00
      1.859  0.1446E+00  0.9843E+00
      1.948  0.1652E+00  0.9990E+00
      2.037  0.1915E+00  0.1016E+01
      2.126  0.1433E+00  0.1029E+01
      2.215  0.1823E+00  0.1045E+01
      2.304  0.1290E+00  0.1057E+01
      2.393  0.1217E+00  0.1067E+01
      2.482  0.1158E-01  0.1068E+01
      2.571  0.1379E+00  0.1081E+01
      2.660  0.2697E+00  0.1105E+01
      2.749  0.1259E+00  0.1116E+01
      2.838  0.1279E-01  0.1117E+01
      2.927  0.2739E+00  0.1141E+01
      3.016  0.3086E+00  0.1169E+01
      3.105  0.2393E+00  0.1190E+01
      3.194  0.2785E+00  0.1215E+01
      3.283  0.2949E+00  0.1241E+01
      3.372  0.3574E+00  0.1273E+01
      3.461  0.3635E+00  0.1305E+01
      3.550  0.2665E+00  0.1329E+01
      3.639  0.2220E+00  0.1349E+01
      3.728  0.3668E+00  0.1381E+01
      3.817  0.3450E+00  0.1412E+01
      3.906  0.2960E+00  0.1438E+01
      3.995  0.2141E+00  0.1457E+01
      4.084  0.2538E+00  0.1480E+01
      4.173  0.2121E+00  0.1499E+01
      4.262  0.3712E+00  0.1532E+01
      4.350  0.4521E+00  0.1572E+01
      4.439  0.2935E+00  0.1598E+01
      4.528  0.2173E+00  0.1618E+01
      4.617  0.3063E+00  0.1645E+01
      4.706  0.1883E+00  0.1662E+01
      4.795  0.5864E-01  0.1667E+01
      4.884  0.1545E+00  0.1681E+01
      4.973  0.1088E+00  0.1690E+01
      5.062  0.1083E+00  0.1700E+01
      5.151  0.1752E+00  0.1716E+01
      5.240  0.1325E+00  0.1727E+01
      5.329  0.4613E-01  0.1731E+01
      5.418  0.1192E+00  0.1742E+01
      5.507  0.1887E+00  0.1759E+01
      5.596  0.3690E-01  0.1762E+01
      5.685  0.1278E+00  0.1773E+01
      5.774  0.1269E+00  0.1785E+01
      5.863  0.1039E+00  0.1794E+01
      5.952  0.2993E-01  0.1797E+01
      6.041  0.1706E+00  0.1812E+01
      6.130  0.2446E+00  0.1834E+01
      6.219  0.2117E+00  0.1852E+01
      6.308  0.3235E+00  0.1881E+01
      6.397  0.1751E+00  0.1897E+01
      6.486  0.1593E+00  0.1911E+01
      6.575  0.5397E-01  0.1916E+01
      6.664  0.4419E-01  0.1920E+01
      6.753  0.5301E-02  0.1920E+01
      6.842 -0.4910E-03  0.1920E+01
      6.931  0.5904E-04  0.1920E+01
      7.020 -0.4220E-03  0.1920E+01
      7.109  0.6870E-02  0.1921E+01
      7.198  0.4991E-02  0.1921E+01
      7.287 -0.1762E-02  0.1921E+01
      7.376  0.1125E-01  0.1922E+01
      7.465  0.1076E-01  0.1923E+01
      7.554  0.8826E-02  0.1924E+01
      7.643  0.4743E-01  0.1928E+01
      7.732  0.1665E-01  0.1929E+01
      7.821  0.2754E-02  0.1930E+01
      7.910  0.4505E-01  0.1934E+01
      7.999  0.1026E+00  0.1943E+01
      8.088  0.5721E-01  0.1948E+01
      8.177  0.9253E-01  0.1956E+01
      8.266  0.9142E-01  0.1964E+01
      8.355  0.1195E+00  0.1975E+01
      8.444  0.3325E-01  0.1978E+01
      8.532  0.7413E-01  0.1984E+01
      8.621  0.1443E+00  0.1997E+01
      8.710  0.1300E+00  0.2009E+01
      8.799  0.7639E-01  0.2016E+01
      8.888  0.3629E-01  0.2019E+01
      8.977  0.1818E+00  0.2035E+01
      9.066  0.1814E+00  0.2051E+01
      9.155  0.4891E-01  0.2056E+01
      9.244  0.2071E+00  0.2074E+01
      9.333  0.1319E+00  0.2086E+01
      9.422  0.1221E+00  0.2097E+01
      9.511  0.3492E+00  0.2128E+01
      9.600  0.3446E+00  0.2158E+01
      9.689  0.2548E+00  0.2181E+01
      9.778  0.1993E+00  0.2199E+01
      9.867  0.2456E+00  0.2221E+01
      9.956  0.2512E+00  0.2243E+01
     10.045  0.9574E-01  0.2251E+01
     10.134  0.1946E+00  0.2269E+01
     10.223  0.1715E+00  0.2284E+01
     10.312  0.7589E-01  0.2291E+01
     10.401  0.1132E+00  0.2301E+01
     10.490  0.3724E+00  0.2334E+01
     10.579  0.2292E+00  0.2354E+01
     10.668  0.2387E+00  0.2376E+01
     10.757  0.2484E+00  0.2398E+01
     10.846  0.2103E+00  0.2416E+01
     10.935  0.3796E+00  0.2450E+01
     11.024  0.3188E+00  0.2479E+01
     11.113  0.6895E-01  0.2485E+01
     11.202  0.4126E-01  0.2488E+01
     11.291  0.9593E-01  0.2497E+01
     11.380  0.6411E-01  0.2503E+01
     11.469  0.1487E+00  0.2516E+01
     11.558  0.2868E-01  0.2518E+01
     11.647  0.1131E+00  0.2529E+01
     11.736  0.2833E+00  0.2554E+01
     11.825  0.2776E+00  0.2578E+01
     11.914  0.2300E+00  0.2599E+01
     12.003  0.2251E+00  0.2619E+01
     12.092  0.1538E+00  0.2633E+01
     12.181  0.2711E+00  0.2657E+01
     12.270  0.3011E+00  0.2684E+01
     12.359  0.2392E+00  0.2705E+01
     12.448  0.2016E+00  0.2723E+01
     12.537  0.2222E+00  0.2743E+01
     12.626  0.2839E+00  0.2768E+01
     12.714  0.3625E+00  0.2800E+01
     12.803  0.2350E+00  0.2821E+01
     12.892  0.1983E+00  0.2839E+01
     12.981  0.3058E+00  0.2866E+01
     13.070  0.2388E+00  0.2887E+01
     13.159  0.2377E+00  0.2908E+01
     13.248  0.2316E+00  0.2929E+01
     13.337  0.2823E+00  0.2954E+01
     13.426  0.2651E+00  0.2978E+01
     13.515  0.1725E+00  0.2993E+01
     13.604  0.1432E+00  0.3006E+01
     13.693  0.2849E+00  0.3031E+01
     13.782  0.2190E+00  0.3050E+01
     13.871  0.1061E+00  0.3060E+01
     13.960  0.1246E+00  0.3071E+01
     14.049  0.6668E-01  0.3077E+01
     14.138  0.1327E+00  0.3089E+01
     14.227  0.1305E+00  0.3100E+01
     14.316  0.5303E-01  0.3105E+01
     14.405  0.2847E-01  0.3108E+01
     14.494  0.5198E-01  0.3112E+01
     14.583  0.2180E-01  0.3114E+01
     14.672  0.3674E-01  0.3117E+01
     14.761  0.1679E-01  0.3119E+01
     14.850  0.8466E-02  0.3120E+01
     14.939  0.3378E-03  0.3120E+01
     15.028 -0.2915E-03  0.3120E+01
     15.117  0.8733E-03  0.3120E+01
     15.206  0.2818E-02  0.3120E+01
     15.295  0.1247E-03  0.3120E+01
     15.384 -0.5858E-04  0.3120E+01
     15.473  0.1067E-04  0.3120E+01
     15.562  0.3102E-06  0.3120E+01
     15.651  0.1053E-08  0.3120E+01
     15.740  0.5858E-12  0.3120E+01
     15.829  0.5869E-16  0.3120E+01
     15.918  0.0000E+00  0.3120E+01
     16.007  0.0000E+00  0.3120E+01
     16.096  0.0000E+00  0.3120E+01
     16.185  0.0000E+00  0.3120E+01
     16.274  0.0000E+00  0.3120E+01
     16.363  0.0000E+00  0.3120E+01
