   56   56  100    1
  0.1030286E+02  0.8324955E-09  0.8324955E-09  0.8324955E-09  0.5000000E-15
  1.000000000000000E-004
  CAR 
 unknown system                          
    248     10    156
 
  0.3742002E-15  0.3742002E-15  0.3742002E-15  0.8000000E-02
    1       -9.117648   1.000000
    2       -7.995060   1.000000
    3       -7.995060   1.000000
    4       -7.995060   1.000000
    5       -7.995049   1.000000
    6       -7.995049   1.000000
    7       -7.995049   1.000000
    8       -7.523260   1.000000
    9       -7.245598   1.000000
   10       -7.245598   1.000000
   11       -7.245598   1.000000
   12       -7.245592   1.000000
   13       -7.245592   1.000000
   14       -7.245592   1.000000
   15       -7.139794   1.000000
   16       -6.057984   1.000000
   17       -6.057984   1.000000
   18       -6.057984   1.000000
   19       -6.057984   1.000000
   20       -6.057984   1.000000
   21       -6.057984   1.000000
   22       -5.903565   1.000000
   23       -5.903565   1.000000
   24       -5.903565   1.000000
   25       -0.466057   1.000000
   26       -0.421103   1.000000
   27       -0.421103   1.000000
   28       -0.421103   1.000000
   29        0.074961   1.000000
   30        0.074961   1.000000
   31        0.074961   1.000000
   32        0.074961   1.000000
   33        0.074961   1.000000
   34        0.074961   1.000000
   35        0.723677   1.000000
   36        0.723677   1.000000
   37        0.723677   1.000000
   38        0.723683   1.000000
   39        0.723683   1.000000
   40        0.723683   1.000000
   41        1.296260   1.000000
   42        1.296260   1.000000
   43        1.296260   1.000000
   44        1.692595   1.000000
   45        1.692595   1.000000
   46        1.692595   1.000000
   47        1.692603   1.000000
   48        1.692603   1.000000
   49        1.692603   1.000000
   50        1.903785   1.000000
   51        1.903785   1.000000
   52        2.181055   1.000000
   53        2.181055   1.000000
   54        2.181055   1.000000
   55        2.181055   1.000000
   56        2.181055   1.000000
   57        2.181055   1.000000
   58        3.360188   1.000000
   59        3.360188   1.000000
   60        3.360188   1.000000
   61        3.360189   1.000000
   62        3.360189   1.000000
   63        3.360189   1.000000
   64        3.546532   1.000000
   65        3.546532   1.000000
   66        3.546532   1.000000
   67        3.546532   1.000000
   68        3.546532   1.000000
   69        3.546532   1.000000
   70        3.578746   1.000000
   71        3.578746   1.000000
   72        3.578746   1.000000
   73        3.578750   1.000000
   74        3.578750   1.000000
   75        3.578750   1.000000
   76        3.848860   1.000000
   77        3.848860   1.000000
   78        3.848860   1.000000
   79        4.251483   1.000000
   80        4.251483   1.000000
   81        4.251483   1.000000
   82        4.251483   1.000000
   83        4.251483   1.000000
   84        4.251483   1.000000
   85        5.511522   1.000000
   86        5.511522   1.000000
   87        5.511522   1.000000
   88        6.208280   1.000000
   89        6.208280   1.000000
   90        6.208280   1.000000
   91        6.208280   1.000000
   92        6.208280   1.000000
   93        6.208280   1.000000
   94        6.411385   1.000000
   95        6.693141   1.000000
   96        6.693141   1.000000
   97        6.693141   1.000000
   98        9.240897   1.000000
   99        9.240897   1.000000
  100        9.240897   1.000000
  101        9.240898   1.000000
  102        9.240898   1.000000
  103        9.240898   1.000000
  104        9.315823   1.000000
  105        9.315823   1.000000
  106        9.315823   1.000000
  107        9.917290   1.000000
  108        9.917290   1.000000
  109        9.917290   1.000000
  110        9.917290   1.000000
  111        9.917290   1.000000
  112        9.917290   1.000000
  113       10.169630   1.000000
  114       10.169630   1.000000
  115       10.169630   1.000000
  116       10.169641   1.000000
  117       10.169641   1.000000
  118       10.169641   1.000000
  119       10.191473   1.000000
  120       10.191473   1.000000
  121       10.191473   1.000000
  122       10.527219   1.000000
  123       10.527219   1.000000
  124       10.527219   1.000000
  125       10.527219   1.000000
  126       10.527219   1.000000
  127       10.527219   1.000000
  128       12.042824   0.000000
  129       12.114377   0.000000
  130       12.114377   0.000000
  131       12.114377   0.000000
  132       12.114383   0.000000
  133       12.114383   0.000000
  134       12.114383   0.000000
  135       12.296858   0.000000
  136       12.296858   0.000000
  137       12.654029   0.000000
  138       12.654029   0.000000
  139       12.654029   0.000000
  140       12.654040   0.000000
  141       12.654040   0.000000
  142       12.654040   0.000000
  143       12.672947   0.000000
  144       12.672947   0.000000
  145       12.672947   0.000000
  146       12.672947   0.000000
  147       12.672947   0.000000
  148       12.672947   0.000000
  149       13.726319   0.000000
  150       13.726319   0.000000
  151       13.726319   0.000000
  152       13.856368   0.000000
  153       13.856368   0.000000
  154       14.080805   0.000000
  155       15.146584   0.000000
  156       15.149275   0.000000
 
  0.2000000E+00  0.3742002E-15  0.3742002E-15  0.4800000E-01
    1       -9.062150   1.000000
    2       -8.316988   1.000000
    3       -7.973759   1.000000
    4       -7.973759   1.000000
    5       -7.973747   1.000000
    6       -7.973747   1.000000
    7       -7.780350   1.000000
    8       -7.541865   1.000000
    9       -7.320274   1.000000
   10       -7.295592   1.000000
   11       -7.295592   1.000000
   12       -7.295587   1.000000
   13       -7.295587   1.000000
   14       -7.164266   1.000000
   15       -6.989941   1.000000
   16       -6.043656   1.000000
   17       -6.043656   1.000000
   18       -6.020967   1.000000
   19       -6.020967   1.000000
   20       -6.020967   1.000000
   21       -6.020967   1.000000
   22       -5.993842   1.000000
   23       -5.918853   1.000000
   24       -5.918853   1.000000
   25       -0.395141   1.000000
   26       -0.395141   1.000000
   27       -0.344953   1.000000
   28       -0.296647   1.000000
   29       -0.001750   1.000000
   30       -0.001750   1.000000
   31        0.093727   1.000000
   32        0.093727   1.000000
   33        0.093728   1.000000
   34        0.093728   1.000000
   35        0.480670   1.000000
   36        0.656610   1.000000
   37        0.656610   1.000000
   38        0.656616   1.000000
   39        0.656616   1.000000
   40        0.851670   1.000000
   41        0.887694   1.000000
   42        1.160230   1.000000
   43        1.415625   1.000000
   44        1.415625   1.000000
   45        1.671907   1.000000
   46        1.671907   1.000000
   47        1.671914   1.000000
   48        1.671914   1.000000
   49        1.918126   1.000000
   50        1.966918   1.000000
   51        2.155655   1.000000
   52        2.155655   1.000000
   53        2.155657   1.000000
   54        2.155657   1.000000
   55        2.219693   1.000000
   56        2.219693   1.000000
   57        2.488719   1.000000
   58        2.863504   1.000000
   59        3.149495   1.000000
   60        3.149495   1.000000
   61        3.149496   1.000000
   62        3.149496   1.000000
   63        3.372642   1.000000
   64        3.372642   1.000000
   65        3.562621   1.000000
   66        3.562621   1.000000
   67        3.562623   1.000000
   68        3.562623   1.000000
   69        3.563757   1.000000
   70        3.789181   1.000000
   71        3.789181   1.000000
   72        3.833295   1.000000
   73        3.844356   1.000000
   74        3.918242   1.000000
   75        4.004224   1.000000
   76        4.004224   1.000000
   77        4.004225   1.000000
   78        4.004225   1.000000
   79        4.277924   1.000000
   80        4.277924   1.000000
   81        4.277925   1.000000
   82        4.277925   1.000000
   83        4.442992   1.000000
   84        4.442992   1.000000
   85        5.353902   1.000000
   86        5.353902   1.000000
   87        5.375183   1.000000
   88        6.032456   1.000000
   89        6.032456   1.000000
   90        6.032456   1.000000
   91        6.032456   1.000000
   92        6.061548   1.000000
   93        6.233390   1.000000
   94        6.233390   1.000000
   95        6.606719   1.000000
   96        6.606719   1.000000
   97        7.099954   1.000000
   98        8.562151   1.000000
   99        9.203224   1.000000
  100        9.304475   1.000000
  101        9.304475   1.000000
  102        9.304477   1.000000
  103        9.304477   1.000000
  104        9.328705   1.000000
  105        9.568790   1.000000
  106        9.568790   1.000000
  107        9.568794   1.000000
  108        9.568794   1.000000
  109        9.651440   1.000000
  110        9.651440   1.000000
  111        9.772392   1.000000
  112        9.889621   1.000000
  113        9.889621   1.000000
  114       10.078378   1.000000
  115       10.078378   1.000000
  116       10.078383   1.000000
  117       10.078383   1.000000
  118       10.117923   1.000000
  119       10.156298   1.000000
  120       10.156298   1.000000
  121       10.781832   0.997999
  122       10.781832   0.997999
  123       10.783300   0.997907
  124       11.027635   0.556860
  125       11.027635   0.556860
  126       11.027637   0.556831
  127       11.027637   0.556831
  128       11.804193   0.000000
  129       11.804193   0.000000
  130       11.804196   0.000000
  131       11.804196   0.000000
  132       12.055524   0.000000
  133       12.246905   0.000000
  134       12.260306   0.000000
  135       12.285554   0.000000
  136       12.302724   0.000000
  137       12.392763   0.000000
  138       12.507752   0.000000
  139       12.507752   0.000000
  140       12.651833   0.000000
  141       12.651833   0.000000
  142       12.651836   0.000000
  143       12.651836   0.000000
  144       13.011307   0.000000
  145       13.011307   0.000000
  146       13.011312   0.000000
  147       13.011312   0.000000
  148       13.259044   0.000000
  149       13.526788   0.000000
  150       13.539953   0.000000
  151       13.684115   0.000000
  152       13.684115   0.000000
  153       14.015517   0.000000
  154       14.418033   0.000000
  155       14.715409   0.000000
  156       14.793412   0.000000
 
  0.4000000E+00  0.3742002E-15  0.3742002E-15  0.4800000E-01
    1       -8.899241   1.000000
    2       -8.641150   1.000000
    3       -7.933216   1.000000
    4       -7.933216   1.000000
    5       -7.933204   1.000000
    6       -7.933204   1.000000
    7       -7.667272   1.000000
    8       -7.592285   1.000000
    9       -7.378143   1.000000
   10       -7.378143   1.000000
   11       -7.378139   1.000000
   12       -7.378139   1.000000
   13       -7.291732   1.000000
   14       -7.225198   1.000000
   15       -6.611077   1.000000
   16       -6.247322   1.000000
   17       -6.006023   1.000000
   18       -6.006023   1.000000
   19       -5.964814   1.000000
   20       -5.964814   1.000000
   21       -5.964814   1.000000
   22       -5.964814   1.000000
   23       -5.958244   1.000000
   24       -5.958244   1.000000
   25       -0.308889   1.000000
   26       -0.308889   1.000000
   27       -0.163484   1.000000
   28       -0.163484   1.000000
   29        0.002773   1.000000
   30        0.050600   1.000000
   31        0.136450   1.000000
   32        0.136450   1.000000
   33        0.136453   1.000000
   34        0.136453   1.000000
   35        0.382941   1.000000
   36        0.512967   1.000000
   37        0.522104   1.000000
   38        0.532180   1.000000
   39        0.539123   1.000000
   40        0.539123   1.000000
   41        0.539130   1.000000
   42        0.539130   1.000000
   43        1.639250   1.000000
   44        1.639250   1.000000
   45        1.639257   1.000000
   46        1.639257   1.000000
   47        1.729626   1.000000
   48        1.729626   1.000000
   49        2.089999   1.000000
   50        2.089999   1.000000
   51        2.149399   1.000000
   52        2.149399   1.000000
   53        2.149403   1.000000
   54        2.149403   1.000000
   55        2.152520   1.000000
   56        2.327946   1.000000
   57        2.454536   1.000000
   58        2.902160   1.000000
   59        2.902160   1.000000
   60        2.902161   1.000000
   61        2.902161   1.000000
   62        2.954779   1.000000
   63        3.310800   1.000000
   64        3.348738   1.000000
   65        3.348738   1.000000
   66        3.595118   1.000000
   67        3.595118   1.000000
   68        3.861924   1.000000
   69        3.879762   1.000000
   70        3.879762   1.000000
   71        3.879764   1.000000
   72        3.879764   1.000000
   73        4.157505   1.000000
   74        4.157505   1.000000
   75        4.157507   1.000000
   76        4.157507   1.000000
   77        4.488922   1.000000
   78        4.516790   1.000000
   79        4.516790   1.000000
   80        4.516793   1.000000
   81        4.516793   1.000000
   82        4.579127   1.000000
   83        4.729889   1.000000
   84        4.729889   1.000000
   85        5.005201   1.000000
   86        5.031344   1.000000
   87        5.031344   1.000000
   88        5.390643   1.000000
   89        5.681309   1.000000
   90        5.681309   1.000000
   91        5.681310   1.000000
   92        5.681310   1.000000
   93        6.318951   1.000000
   94        6.318951   1.000000
   95        6.454783   1.000000
   96        6.454783   1.000000
   97        7.816251   1.000000
   98        8.314993   1.000000
   99        8.576973   1.000000
  100        8.798120   1.000000
  101        9.120776   1.000000
  102        9.120776   1.000000
  103        9.120780   1.000000
  104        9.120780   1.000000
  105        9.586773   1.000000
  106        9.586773   1.000000
  107        9.586776   1.000000
  108        9.586776   1.000000
  109        9.661432   1.000000
  110        9.911894   1.000000
  111        9.922569   1.000000
  112        9.922569   1.000000
  113       10.014671   1.000000
  114       10.014671   1.000000
  115       10.027825   1.000000
  116       10.027825   1.000000
  117       10.027830   1.000000
  118       10.027830   1.000000
  119       10.439715   1.000000
  120       10.439715   1.000000
  121       11.012430   0.710812
  122       11.012430   0.710813
  123       11.080415   0.076448
  124       11.080415   0.076448
  125       11.080422   0.076410
  126       11.080422   0.076410
  127       11.741602   0.000000
  128       11.890084   0.000000
  129       11.890084   0.000000
  130       11.890084   0.000000
  131       11.890084   0.000000
  132       12.085075   0.000000
  133       12.170934   0.000000
  134       12.294226   0.000000
  135       12.393903   0.000000
  136       12.405910   0.000000
  137       12.405911   0.000000
  138       12.429131   0.000000
  139       12.581479   0.000000
  140       12.714747   0.000000
  141       12.714747   0.000000
  142       12.714749   0.000000
  143       12.714750   0.000000
  144       13.007891   0.000000
  145       13.121636   0.000000
  146       13.121636   0.000000
  147       13.325496   0.000000
  148       13.370720   0.000000
  149       13.370721   0.000000
  150       13.370730   0.000000
  151       13.370731   0.000000
  152       13.583596   0.000000
  153       14.290852   0.000000
  154       14.305277   0.000000
  155       14.445215   0.000000
  156       14.510414   0.000000
 
  0.2000000E+00  0.2000000E+00  0.3742002E-15  0.9600000E-01
    1       -9.007247   1.000000
    2       -8.276083   1.000000
    3       -8.276083   1.000000
    4       -7.978765   1.000000
    5       -7.942592   1.000000
    6       -7.786652   1.000000
    7       -7.786652   1.000000
    8       -7.560861   1.000000
    9       -7.480937   1.000000
   10       -7.377081   1.000000
   11       -7.377081   1.000000
   12       -7.193658   1.000000
   13       -7.158262   1.000000
   14       -7.027445   1.000000
   15       -7.027445   1.000000
   16       -6.092173   1.000000
   17       -6.037434   1.000000
   18       -6.013694   1.000000
   19       -6.013694   1.000000
   20       -6.006025   1.000000
   21       -6.006025   1.000000
   22       -5.958635   1.000000
   23       -5.925755   1.000000
   24       -5.911963   1.000000
   25       -0.481423   1.000000
   26       -0.281602   1.000000
   27       -0.266416   1.000000
   28       -0.118309   1.000000
   29       -0.053594   1.000000
   30       -0.053594   1.000000
   31        0.034492   1.000000
   32        0.077183   1.000000
   33        0.077183   1.000000
   34        0.245250   1.000000
   35        0.320458   1.000000
   36        0.429550   1.000000
   37        0.429550   1.000000
   38        0.726723   1.000000
   39        0.802102   1.000000
   40        0.802102   1.000000
   41        0.875034   1.000000
   42        1.220636   1.000000
   43        1.220636   1.000000
   44        1.324402   1.000000
   45        1.536748   1.000000
   46        1.604417   1.000000
   47        1.647136   1.000000
   48        1.753144   1.000000
   49        1.789770   1.000000
   50        1.789770   1.000000
   51        2.117547   1.000000
   52        2.117547   1.000000
   53        2.287148   1.000000
   54        2.287148   1.000000
   55        2.377692   1.000000
   56        2.563040   1.000000
   57        2.670690   1.000000
   58        2.897285   1.000000
   59        3.108932   1.000000
   60        3.108932   1.000000
   61        3.179346   1.000000
   62        3.179346   1.000000
   63        3.245121   1.000000
   64        3.354859   1.000000
   65        3.354859   1.000000
   66        3.434349   1.000000
   67        3.497642   1.000000
   68        3.534333   1.000000
   69        3.750611   1.000000
   70        3.787504   1.000000
   71        3.787504   1.000000
   72        3.821017   1.000000
   73        3.929561   1.000000
   74        3.929561   1.000000
   75        4.109241   1.000000
   76        4.164402   1.000000
   77        4.164402   1.000000
   78        4.289432   1.000000
   79        4.296807   1.000000
   80        4.310691   1.000000
   81        4.399563   1.000000
   82        4.399563   1.000000
   83        4.631299   1.000000
   84        4.631299   1.000000
   85        4.995371   1.000000
   86        5.207054   1.000000
   87        5.456716   1.000000
   88        5.650396   1.000000
   89        5.800506   1.000000
   90        6.051806   1.000000
   91        6.051806   1.000000
   92        6.094674   1.000000
   93        6.094674   1.000000
   94        6.203536   1.000000
   95        6.503065   1.000000
   96        6.611269   1.000000
   97        7.379766   1.000000
   98        8.661276   1.000000
   99        8.661276   1.000000
  100        8.968401   1.000000
  101        9.173266   1.000000
  102        9.185941   1.000000
  103        9.185941   1.000000
  104        9.353720   1.000000
  105        9.353720   1.000000
  106        9.470878   1.000000
  107        9.525431   1.000000
  108        9.625456   1.000000
  109        9.641520   1.000000
  110        9.655754   1.000000
  111        9.803090   1.000000
  112        9.803090   1.000000
  113        9.837112   1.000000
  114       10.003742   1.000000
  115       10.066225   1.000000
  116       10.145908   1.000000
  117       10.497857   1.000000
  118       10.497857   1.000000
  119       10.601551   1.000000
  120       10.601551   1.000000
  121       10.639467   0.999999
  122       10.821825   0.995284
  123       10.821825   0.995284
  124       10.885345   1.012657
  125       11.190270  -0.006141
  126       11.302672   0.001066
  127       11.302672   0.001066
  128       11.412565   0.000003
  129       11.710111   0.000000
  130       11.710111   0.000000
  131       11.939191   0.000000
  132       11.939191   0.000000
  133       12.148395   0.000000
  134       12.274325   0.000000
  135       12.347222   0.000000
  136       12.347222   0.000000
  137       12.406955   0.000000
  138       12.442730   0.000000
  139       12.462871   0.000000
  140       12.637960   0.000000
  141       12.637962   0.000000
  142       12.924783   0.000000
  143       12.924784   0.000000
  144       12.970873   0.000000
  145       13.076284   0.000000
  146       13.103256   0.000000
  147       13.314549   0.000000
  148       13.452354   0.000000
  149       13.452354   0.000000
  150       13.476139   0.000000
  151       13.524754   0.000000
  152       13.637494   0.000000
  153       13.842902   0.000000
  154       14.429840   0.000000
  155       14.457315   0.000000
  156       14.639391   0.000000
 
  0.4000000E+00  0.2000000E+00  0.3742002E-15  0.1920000E+00
    1       -8.846274   1.000000
    2       -8.592069   1.000000
    3       -8.164644   1.000000
    4       -8.032984   1.000000
    5       -7.879975   1.000000
    6       -7.817811   1.000000
    7       -7.685833   1.000000
    8       -7.612471   1.000000
    9       -7.568494   1.000000
   10       -7.496042   1.000000
   11       -7.343364   1.000000
   12       -7.266097   1.000000
   13       -7.111112   1.000000
   14       -7.084744   1.000000
   15       -6.659045   1.000000
   16       -6.324269   1.000000
   17       -5.998375   1.000000
   18       -5.983285   1.000000
   19       -5.978527   1.000000
   20       -5.977055   1.000000
   21       -5.946646   1.000000
   22       -5.940500   1.000000
   23       -5.940317   1.000000
   24       -5.918310   1.000000
   25       -0.431843   1.000000
   26       -0.259037   1.000000
   27       -0.196601   1.000000
   28       -0.106397   1.000000
   29       -0.061557   1.000000
   30       -0.037670   1.000000
   31        0.063885   1.000000
   32        0.187465   1.000000
   33        0.241725   1.000000
   34        0.297505   1.000000
   35        0.308696   1.000000
   36        0.311075   1.000000
   37        0.423492   1.000000
   38        0.452649   1.000000
   39        0.522837   1.000000
   40        0.676190   1.000000
   41        0.684325   1.000000
   42        0.701147   1.000000
   43        1.368923   1.000000
   44        1.406037   1.000000
   45        1.537223   1.000000
   46        1.541573   1.000000
   47        1.565448   1.000000
   48        1.845202   1.000000
   49        1.917754   1.000000
   50        1.999519   1.000000
   51        2.013272   1.000000
   52        2.133987   1.000000
   53        2.275568   1.000000
   54        2.316537   1.000000
   55        2.336326   1.000000
   56        2.632930   1.000000
   57        2.671098   1.000000
   58        2.893328   1.000000
   59        2.962224   1.000000
   60        3.051004   1.000000
   61        3.157784   1.000000
   62        3.190821   1.000000
   63        3.280332   1.000000
   64        3.367852   1.000000
   65        3.409315   1.000000
   66        3.610633   1.000000
   67        3.647694   1.000000
   68        3.662938   1.000000
   69        3.719467   1.000000
   70        3.805073   1.000000
   71        3.862286   1.000000
   72        3.889755   1.000000
   73        4.134590   1.000000
   74        4.163264   1.000000
   75        4.217646   1.000000
   76        4.235647   1.000000
   77        4.302384   1.000000
   78        4.312979   1.000000
   79        4.397252   1.000000
   80        4.505270   1.000000
   81        4.594974   1.000000
   82        4.619951   1.000000
   83        4.634086   1.000000
   84        4.896151   1.000000
   85        4.904132   1.000000
   86        5.077205   1.000000
   87        5.160841   1.000000
   88        5.436295   1.000000
   89        5.439179   1.000000
   90        5.676685   1.000000
   91        5.886584   1.000000
   92        6.053148   1.000000
   93        6.155345   1.000000
   94        6.238719   1.000000
   95        6.317090   1.000000
   96        6.448368   1.000000
   97        8.004670   1.000000
   98        8.344029   1.000000
   99        8.511340   1.000000
  100        8.521900   1.000000
  101        8.680382   1.000000
  102        8.761866   1.000000
  103        9.223425   1.000000
  104        9.251552   1.000000
  105        9.414722   1.000000
  106        9.439138   1.000000
  107        9.481349   1.000000
  108        9.533701   1.000000
  109        9.549744   1.000000
  110        9.781114   1.000000
  111        9.815525   1.000000
  112        9.912482   1.000000
  113       10.102785   1.000000
  114       10.164540   1.000000
  115       10.403521   1.000000
  116       10.415592   1.000000
  117       10.443725   1.000000
  118       10.457622   1.000000
  119       10.488817   1.000000
  120       10.528831   1.000000
  121       10.724071   0.999805
  122       10.787818   0.997610
  123       10.960859   1.026409
  124       10.962617   1.022031
  125       11.438692   0.000001
  126       11.626195   0.000000
  127       11.695817   0.000000
  128       11.761994   0.000000
  129       11.801629   0.000000
  130       11.945503   0.000000
  131       11.953762   0.000000
  132       11.954438   0.000000
  133       12.186459   0.000000
  134       12.187272   0.000000
  135       12.189784   0.000000
  136       12.311658   0.000000
  137       12.470805   0.000000
  138       12.548046   0.000000
  139       12.621868   0.000000
  140       12.662161   0.000000
  141       12.680139   0.000000
  142       12.753516   0.000000
  143       12.795544   0.000000
  144       12.939713   0.000000
  145       13.014640   0.000000
  146       13.252476   0.000000
  147       13.307998   0.000000
  148       13.352377   0.000000
  149       13.388435   0.000000
  150       13.464432   0.000000
  151       13.718961   0.000000
  152       13.841159   0.000000
  153       13.916272   0.000000
  154       14.118480   0.000000
  155       14.130788   0.000000
  156       14.214117   0.000000
 
  0.4000000E+00  0.4000000E+00  0.3742002E-15  0.9600000E-01
    1       -8.691511   1.000000
    2       -8.450673   1.000000
    3       -8.450673   1.000000
    4       -8.240530   1.000000
    5       -7.812444   1.000000
    6       -7.739223   1.000000
    7       -7.739223   1.000000
    8       -7.666827   1.000000
    9       -7.566230   1.000000
   10       -7.459969   1.000000
   11       -7.459969   1.000000
   12       -7.362539   1.000000
   13       -6.899223   1.000000
   14       -6.761135   1.000000
   15       -6.761135   1.000000
   16       -6.502668   1.000000
   17       -5.989091   1.000000
   18       -5.967119   1.000000
   19       -5.967119   1.000000
   20       -5.940870   1.000000
   21       -5.927646   1.000000
   22       -5.924058   1.000000
   23       -5.924058   1.000000
   24       -5.898495   1.000000
   25       -0.466586   1.000000
   26       -0.323540   1.000000
   27       -0.323540   1.000000
   28       -0.199882   1.000000
   29        0.024688   1.000000
   30        0.116138   1.000000
   31        0.128934   1.000000
   32        0.142408   1.000000
   33        0.142408   1.000000
   34        0.227091   1.000000
   35        0.233079   1.000000
   36        0.233079   1.000000
   37        0.556379   1.000000
   38        0.559079   1.000000
   39        0.559079   1.000000
   40        0.619323   1.000000
   41        0.783900   1.000000
   42        0.981215   1.000000
   43        1.009891   1.000000
   44        1.009891   1.000000
   45        1.314788   1.000000
   46        1.512815   1.000000
   47        1.512815   1.000000
   48        1.681057   1.000000
   49        1.954652   1.000000
   50        1.956508   1.000000
   51        1.956508   1.000000
   52        2.152131   1.000000
   53        2.316219   1.000000
   54        2.511981   1.000000
   55        2.592979   1.000000
   56        2.592979   1.000000
   57        3.044328   1.000000
   58        3.069649   1.000000
   59        3.069649   1.000000
   60        3.181533   1.000000
   61        3.354848   1.000000
   62        3.354848   1.000000
   63        3.385495   1.000000
   64        3.572379   1.000000
   65        3.628890   1.000000
   66        3.637973   1.000000
   67        3.662914   1.000000
   68        3.662914   1.000000
   69        3.722863   1.000000
   70        3.727666   1.000000
   71        3.727666   1.000000
   72        3.782297   1.000000
   73        3.977014   1.000000
   74        4.007394   1.000000
   75        4.007394   1.000000
   76        4.072194   1.000000
   77        4.206009   1.000000
   78        4.328027   1.000000
   79        4.328027   1.000000
   80        4.546798   1.000000
   81        4.587117   1.000000
   82        4.658537   1.000000
   83        4.658537   1.000000
   84        4.863710   1.000000
   85        5.078088   1.000000
   86        5.151347   1.000000
   87        5.151347   1.000000
   88        5.284960   1.000000
   89        5.539514   1.000000
   90        5.827422   1.000000
   91        5.827422   1.000000
   92        6.057526   1.000000
   93        6.200302   1.000000
   94        6.200302   1.000000
   95        6.241491   1.000000
   96        6.408973   1.000000
   97        8.075097   1.000000
   98        8.145874   1.000000
   99        8.145874   1.000000
  100        8.369396   1.000000
  101        8.467679   1.000000
  102        8.968444   1.000000
  103        8.968444   1.000000
  104        9.203375   1.000000
  105        9.400468   1.000000
  106        9.467459   1.000000
  107        9.467459   1.000000
  108        9.559613   1.000000
  109        9.559613   1.000000
  110        9.560886   1.000000
  111        9.707376   1.000000