 running on   16 total cores
 distrk:  each k-point on   16 cores,    1 groups
 distr:  one band on    4 cores,    4 groups
 using from now: INCAR     
 vasp.5.4.4.18Apr17-6-g9f103f2a35 (build Nov 01 2019 12:17:22) complex          
  
 POSCAR found type information on POSCAR  Si N 
 POSCAR found :  2 types and      56 ions
 WARNING: type information on POSCAR and POTCAR are incompatible
 POTCAR overwrites the type information in POSCAR
 typ   1 type information:  Si N 
 WARNING: type information on POSCAR and POTCAR are incompatible
 POTCAR overwrites the type information in POSCAR
 typ   2 type information:  N  Si
 LDA part: xc-table for Pade appr. of Perdew
 generate k-points for:    5    5    5
 POSCAR, INCAR and KPOINTS ok, starting setup
 FFT: planning ...
 WAVECAR not read
 entering main loop
       N       E                     dE             d eps       ncg     rms          rms(c)
DAV:   1     0.884688478787E+03    0.88469E+03   -0.10052E+05  3120   0.118E+03
DAV:   2    -0.251961380774E+03   -0.11366E+04   -0.10915E+04  3900   0.244E+02
DAV:   3    -0.351357397565E+03   -0.99396E+02   -0.95339E+02  3848   0.685E+01
DAV:   4    -0.354747917802E+03   -0.33905E+01   -0.32727E+01  3920   0.115E+01
DAV:   5    -0.354849358189E+03   -0.10144E+00   -0.10069E+00  3800   0.174E+00    0.398E+01
RMM:   6    -0.326889346183E+03    0.27960E+02   -0.14568E+02  3120   0.209E+01    0.181E+01
RMM:   7    -0.326477368100E+03    0.41198E+00   -0.42977E+00  3298   0.302E+00    0.102E+01
RMM:   8    -0.326369689247E+03    0.10768E+00   -0.19586E+00  3122   0.289E+00    0.198E+00
RMM:   9    -0.326253284649E+03    0.11640E+00   -0.18392E-01  3176   0.737E-01    0.778E-01
RMM:  10    -0.326245135574E+03    0.81491E-02   -0.11462E-01  3291   0.524E-01    0.249E-01
RMM:  11    -0.326245797875E+03   -0.66230E-03   -0.55989E-03  3231   0.138E-01    0.990E-02
RMM:  12    -0.326245687727E+03    0.11015E-03   -0.31294E-03  3282   0.802E-02    0.457E-02
RMM:  13    -0.326245616189E+03    0.71538E-04   -0.20261E-04  2003   0.218E-02
   1 F= -.32624562E+03 E0= -.32624802E+03  d E =-.326246E+03
 curvature:   0.00 expect dE= 0.000E+00 dE for cont linesearch  0.000E+00
 trial: gam= 0.00000 g(F)=  0.862E-02 g(S)=  0.000E+00 ort = 0.000E+00 (trialstep = 0.100E+01)
 search vector abs. value=  0.862E-02
 bond charge predicted
       N       E                     dE             d eps       ncg     rms          rms(c)
DAV:   1    -0.326244602467E+03    0.10853E-02   -0.10209E-01  3708   0.894E-01    0.159E-01
RMM:   2    -0.326245656730E+03   -0.10543E-02   -0.14055E-02  3129   0.291E-01    0.163E-01
RMM:   3    -0.326245494563E+03    0.16217E-03   -0.66319E-04  2501   0.436E-02    0.131E-01
RMM:   4    -0.326245429005E+03    0.65557E-04   -0.46937E-04  2532   0.430E-02
   2 F= -.32624543E+03 E0= -.32624756E+03  d E =0.187184E-03
 trial-energy change:    0.000187  1 .order    0.000088   -0.008620    0.008795
 step:   0.4950(harm=  0.4950)  dis= 0.00103  next Energy=  -326.247749 (dE=-0.213E-02)
 bond charge predicted
       N       E                     dE             d eps       ncg     rms          rms(c)
DAV:   1    -0.326247570740E+03   -0.20762E-02   -0.25184E-02  3416   0.443E-01    0.833E-02
RMM:   2    -0.326247754566E+03   -0.18383E-03   -0.31382E-03  3068   0.143E-01    0.820E-02
RMM:   3    -0.326247701278E+03    0.53288E-04   -0.15678E-04  1832   0.247E-02
   3 F= -.32624770E+03 E0= -.32624998E+03  d E =-.208509E-02
 curvature:  -0.25 expect dE=-0.193E-05 dE for cont linesearch -0.193E-05
 trial: gam= 0.00000 g(F)=  0.779E-05 g(S)=  0.000E+00 ort =-0.259E-03 (trialstep = 0.899E+00)
 search vector abs. value=  0.779E-05
 reached required accuracy - stopping structural energy minimisation
