 vasp.5.4.4.18Apr17-6-g9f103f2a35 (build Nov 01 2019 12:17:22) complex          
  
 executed on             LinuxIFC date 2023.05.19  18:21:56
 running on   16 total cores
 distrk:  each k-point on   16 cores,    1 groups
 distr:  one band on NCORES_PER_BAND=   4 cores,    4 groups


--------------------------------------------------------------------------------------------------------


 INCAR:
 POTCAR:    PAW_PBE N 08Apr2002                   
 POTCAR:    PAW_PBE Si 05Jan2001                  
 POTCAR:    PAW_PBE N 08Apr2002                   
   VRHFIN =N: s2p3                                                              
   LEXCH  = PE                                                                  
   EATOM  =   264.5486 eV,   19.4438 Ry                                         
                                                                                
   TITEL  = PAW_PBE N 08Apr2002                                                 
   LULTRA =        F    use ultrasoft PP ?                                      
   IUNSCR =        1    unscreen: 0-lin 1-nonlin 2-no                           
   RPACOR =    1.200    partial core radius                                     
   POMASS =   14.001; ZVAL   =    5.000    mass and valenz                      
   RCORE  =    1.500    outmost cutoff radius                                   
   RWIGS  =    1.400; RWIGS  =    0.741    wigner-seitz radius (au A)           
   ENMAX  =  400.000; ENMIN  =  300.000 eV                                      
   ICORE  =        2    local potential                                         
   LCOR   =        T    correct aug charges                                     
   LPAW   =        T    paw PP                                                  
   EAUG   =  627.112                                                            
   DEXC   =    0.000                                                            
   RMAX   =    1.529    core radius for proj-oper                               
   RAUG   =    1.300    factor for augmentation sphere                          
   RDEP   =    1.514    radius for radial grids                                 
   RDEPT  =    1.338    core radius for aug-charge                              
                                                                                
   Atomic configuration                                                         
    4 entries                                                                   
     n  l   j            E        occ.                                          
     1  0  0.50      -384.7179   2.0000                                         
     2  0  0.50       -18.5828   2.0000                                         
     2  1  0.50        -7.0898   3.0000                                         
     3  2  1.50        -6.8029   0.0000                                         
   Description                                                                  
     l       E           TYP  RCUT    TYP  RCUT                                 
     0    -18.5828119     23  1.200                                             
     0    -13.5018863     23  1.200                                             
     1     -7.0897853     23  1.500                                             
     1      9.5240782     23  1.500                                             
     2     -6.8029130      7  1.500                                             
  local pseudopotential read in
  partial core-charges read in
  partial kinetic energy density read in
  atomic valenz-charges read in
  non local Contribution for L=           0  read in
    real space projection operators read in
  non local Contribution for L=           0  read in
    real space projection operators read in
  non local Contribution for L=           1  read in
    real space projection operators read in
  non local Contribution for L=           1  read in
    real space projection operators read in
    PAW grid and wavefunctions read in
 
   number of l-projection  operators is LMAX  =           4
   number of lm-projection operators is LMMAX =           8
 
 POTCAR:    PAW_PBE Si 05Jan2001                  
   VRHFIN =Si: s2p2                                                             
   LEXCH  = PE                                                                  
   EATOM  =   103.0669 eV,    7.5752 Ry                                         
                                                                                
   TITEL  = PAW_PBE Si 05Jan2001                                                
   LULTRA =        F    use ultrasoft PP ?                                      
   IUNSCR =        1    unscreen: 0-lin 1-nonlin 2-no                           
   RPACOR =    1.500    partial core radius                                     
   POMASS =   28.085; ZVAL   =    4.000    mass and valenz                      
   RCORE  =    1.900    outmost cutoff radius                                   
   RWIGS  =    2.480; RWIGS  =    1.312    wigner-seitz radius (au A)           
   ENMAX  =  245.345; ENMIN  =  184.009 eV                                      
   ICORE  =        2    local potential                                         
   LCOR   =        T    correct aug charges                                     
   LPAW   =        T    paw PP                                                  
   EAUG   =  322.069                                                            
   DEXC   =    0.000                                                            
   RMAX   =    1.950    core radius for proj-oper                               
   RAUG   =    1.300    factor for augmentation sphere                          
   RDEP   =    1.993    radius for radial grids                                 
   RDEPT  =    1.837    core radius for aug-charge                              
                                                                                
   Atomic configuration                                                         
    6 entries                                                                   
     n  l   j            E        occ.                                          
     1  0  0.50     -1785.8828   2.0000                                         
     2  0  0.50      -139.4969   2.0000                                         
     2  1  1.50       -95.5546   6.0000                                         
     3  0  0.50       -10.8127   2.0000                                         
     3  1  0.50        -4.0811   2.0000                                         
     3  2  1.50        -4.0817   0.0000                                         
   Description                                                                  
     l       E           TYP  RCUT    TYP  RCUT                                 
     0    -10.8127223     23  1.900                                             
     0     -7.6451159     23  1.900                                             
     1     -4.0811372     23  1.900                                             
     1      2.4879257     23  1.900                                             
     2     -4.0817478      7  1.900                                             
  local pseudopotential read in
  partial core-charges read in
  partial kinetic energy density read in
  atomic valenz-charges read in
  non local Contribution for L=           0  read in
    real space projection operators read in
  non local Contribution for L=           0  read in
    real space projection operators read in
  non local Contribution for L=           1  read in
    real space projection operators read in
  non local Contribution for L=           1  read in
    real space projection operators read in
    PAW grid and wavefunctions read in
 
   number of l-projection  operators is LMAX  =           4
   number of lm-projection operators is LMMAX =           8
 
 Optimization of the real space projectors (new method)

 maximal supplied QI-value         = 25.13
 optimisation between [QCUT,QGAM] = [ 10.05, 20.36] = [ 28.30,116.06] Ry 
 Optimized for a Real-space Cutoff    1.70 Angstroem

   l    n(q)    QCUT    max X(q) W(low)/X(q) W(high)/X(q)  e(spline) 
   0     10    10.053    79.467    0.61E-04    0.98E-04    0.61E-06
   0     10    10.053    66.151    0.60E-04    0.98E-04    0.61E-06
   1     10    10.053     8.350    0.17E-03    0.71E-03    0.45E-05
   1     10    10.053     5.531    0.18E-03    0.77E-03    0.49E-05
 Optimization of the real space projectors (new method)

 maximal supplied QI-value         = 19.84
 optimisation between [QCUT,QGAM] = [ 10.12, 20.44] = [ 28.68,116.96] Ry 
 Optimized for a Real-space Cutoff    1.38 Angstroem

   l    n(q)    QCUT    max X(q) W(low)/X(q) W(high)/X(q)  e(spline) 
   0      8    10.119   159.560    0.58E-04    0.11E-03    0.54E-07
   0      8    10.119   115.863    0.56E-04    0.11E-03    0.54E-07
   1      8    10.119    88.339    0.22E-03    0.17E-03    0.19E-06
   1      8    10.119    48.592    0.22E-03    0.17E-03    0.18E-06
  PAW_PBE N 08Apr2002                   :
 energy of atom  1       EATOM= -264.5486
 kinetic energy error for atom=    0.0736 (will be added to EATOM!!)
  PAW_PBE Si 05Jan2001                  :
 energy of atom  2       EATOM= -103.0669
 kinetic energy error for atom=    0.0012 (will be added to EATOM!!)
 
 
 POSCAR: Si24 N32                                
  positions in direct lattice
  No initial velocities read in
 exchange correlation table for  LEXCH =        8
   RHO(1)=    0.500       N(1)  =     2000
   RHO(2)=  100.500       N(2)  =     4000
 


--------------------------------------------------------------------------------------------------------


 ion  position               nearest neighbor table
   1  0.875  0.875  0.125-  26 2.09  56 2.09  47 2.09  49 2.09  54 2.09  28 2.09
   2  0.375  0.125  0.375-  25 2.09  31 2.09  29 2.09  27 2.09  32 2.09  42 2.09
   3  0.625  0.875  0.375-  27 2.09  53 2.09  44 2.09  49 2.09  31 2.09  54 2.09
   4  0.125  0.125  0.125-  28 2.09  30 2.09  29 2.09  26 2.09  32 2.09  43 2.09
   5  0.250  0.750  0.250-  28 1.78  50 1.78  31 1.78  51 1.78
   6  0.000  0.000  0.500-  38 1.78  48 1.78  29 1.78  49 1.78
   7  0.875  0.375  0.625-  34 2.09  48 2.09  41 2.09  46 2.09  36 2.09  55 2.09
   8  0.375  0.625  0.875-  33 2.09  39 2.09  37 2.09  35 2.09  40 2.09  50 2.09
   9  0.625  0.375  0.875-  35 2.09  45 2.09  41 2.09  39 2.09  46 2.09  52 2.09
  10  0.125  0.625  0.625-  36 2.09  38 2.09  37 2.09  34 2.09  40 2.09  51 2.09
  11  0.250  0.250  0.750-  36 1.78  42 1.78  39 1.78  43 1.78
  12  0.000  0.500  0.000-  30 1.78  56 1.78  41 1.78  37 1.78
  13  0.375  0.875  0.625-  40 2.09  42 2.09  38 2.09  31 2.09  33 2.09  44 2.09
  14  0.875  0.125  0.875-  41 2.09  47 2.09  43 2.09  45 2.09  26 2.09  48 2.09
  15  0.125  0.875  0.875-  37 2.09  43 2.09  28 2.09  38 2.09  33 2.09  47 2.09
  16  0.625  0.125  0.625-  44 2.09  46 2.09  27 2.09  45 2.09  42 2.09  48 2.09
  17  0.750  0.750  0.750-  34 1.78  44 1.78  35 1.78  47 1.78
  18  0.500  0.000  0.000-  32 1.78  54 1.78  45 1.78  33 1.78
  19  0.375  0.375  0.125-  32 2.09  50 2.09  25 2.09  39 2.09  30 2.09  52 2.09
  20  0.875  0.625  0.375-  49 2.09  55 2.09  51 2.09  53 2.09  34 2.09  56 2.09
  21  0.125  0.375  0.375-  29 2.09  51 2.09  30 2.09  36 2.09  25 2.09  55 2.09
  22  0.625  0.625  0.125-  52 2.09  54 2.09  35 2.09  53 2.09  50 2.09  56 2.09
  23  0.750  0.250  0.250-  26 1.78  52 1.78  27 1.78  55 1.78
  24  0.500  0.500  0.500-  40 1.78  46 1.78  25 1.78  53 1.78
  25  0.376  0.376  0.376-  24 1.78   2 2.09  21 2.09  19 2.09  40 2.91  46 2.91  53 2.91  51 2.94
                            27 2.94  50 2.94  42 2.94  52 2.94  36 2.94  32 2.97  29 2.97  30 2.97
  26  0.874  0.126  0.126-  23 1.78   1 2.09  14 2.09   4 2.09  27 2.91  52 2.91  55 2.91  41 2.94
                            45 2.94  49 2.94  29 2.94  54 2.94  30 2.94  28 2.97  47 2.97  43 2.97
  27  0.626  0.126  0.374-  23 1.78   3 2.09  16 2.09   2 2.09  26 2.91  52 2.91  55 2.91  25 2.94
                            49 2.94  32 2.94  46 2.94  54 2.94  48 2.94  31 2.97  42 2.97  44 2.97
  28  0.126  0.874  0.126-   5 1.78   4 2.09   1 2.09  15 2.09  50 2.91  51 2.91  31 2.91  33 2.94
                            37 2.94  49 2.94  29 2.94  32 2.94  56 2.94  43 2.97  47 2.97  26 2.97
  29  0.124  0.124  0.376-   6 1.78  21 2.09   2 2.09   4 2.09  38 2.91  48 2.91  49 2.91  31 2.94
                            55 2.94  42 2.94  26 2.94  36 2.94  28 2.94  30 2.97  25 2.97  32 2.97
  30  0.124  0.376  0.124-  12 1.78   4 2.09  19 2.09  21 2.09  37 2.91  56 2.91  41 2.91  26 2.94
                            43 2.94  50 2.94  51 2.94  55 2.94  39 2.94  32 2.97  25 2.97  29 2.97
  31  0.374  0.874  0.374-   5 1.78   2 2.09   3 2.09  13 2.09  28 2.91  50 2.91  51 2.91  29 2.94
                            53 2.94  32 2.94  38 2.94  40 2.94  54 2.94  42 2.97  44 2.97  27 2.97
  32  0.376  0.124  0.124-  18 1.78  19 2.09   2 2.09   4 2.09  45 2.91  54 2.91  33 2.91  27 2.94
                            39 2.94  43 2.94  28 2.94  52 2.94  31 2.94  29 2.97  30 2.97  25 2.97
  33  0.376  0.876  0.876-  18 1.78   8 2.09  15 2.09  13 2.09  32 2.91  45 2.91  54 2.91  35 2.94
                            43 2.94  44 2.94  42 2.94  50 2.94  28 2.94  37 2.97  38 2.97  40 2.97
  34  0.874  0.626  0.626-  17 1.78   7 2.09  10 2.09  20 2.09  35 2.91  44 2.91  47 2.91  41 2.94
                            37 2.94  46 2.94  38 2.94  49 2.94  53 2.94  51 2.97  36 2.97  55 2.97
  35  0.626  0.626  0.874-  17 1.78   9 2.09   8 2.09  22 2.09  34 2.91  44 2.91  47 2.91  33 2.94
                            41 2.94  46 2.94  40 2.94  54 2.94  56 2.94  52 2.97  39 2.97  50 2.97
  36  0.126  0.374  0.626-  11 1.78  10 2.09   7 2.09  21 2.09  42 2.91  43 2.91  39 2.91  25 2.94
                            40 2.94  41 2.94  29 2.94  37 2.94  48 2.94  34 2.97  51 2.97  55 2.97
  37  0.124  0.624  0.876-  12 1.78  15 2.09   8 2.09  10 2.09  30 2.91  56 2.91  41 2.91  47 2.94
                            39 2.94  34 2.94  36 2.94  50 2.94  28 2.94  33 2.97  40 2.97  38 2.97
  38  0.124  0.876  0.624-   6 1.78  10 2.09  13 2.09  15 2.09  29 2.91  48 2.91  49 2.91  42 2.94
                            43 2.94  47 2.94  31 2.94  34 2.94  51 2.94  33 2.97  37 2.97  40 2.97
  39  0.374  0.374  0.874-  11 1.78   8 2.09   9 2.09  19 2.09  36 2.91  42 2.91  43 2.91  37 2.94
                            45 2.94  30 2.94  32 2.94  40 2.94  46 2.94  35 2.97  50 2.97  52 2.97
  40  0.376  0.624  0.624-  24 1.78  13 2.09   8 2.09  10 2.09  46 2.91  53 2.91  25 2.91  36 2.94
                            39 2.94  44 2.94  31 2.94  51 2.94  35 2.94  38 2.97  33 2.97  37 2.97
  41  0.876  0.376  0.876-  12 1.78  14 2.09   7 2.09   9 2.09  30 2.91  37 2.91  56 2.91  43 2.94
                            35 2.94  34 2.94  26 2.94  52 2.94  36 2.94  48 2.97  45 2.97  46 2.97
  42  0.374  0.126  0.626-  11 1.78  13 2.09   2 2.09  16 2.09  36 2.91  43 2.91  39 2.91  25 2.94
                            38 2.94  29 2.94  33 2.94  45 2.94  46 2.94  44 2.97  31 2.97  27 2.97
  43  0.126  0.126  0.874-  11 1.78  15 2.09  14 2.09   4 2.09  36 2.91  42 2.91  39 2.91  41 2.94
                            33 2.94  30 2.94  32 2.94  38 2.94  48 2.94  28 2.97  47 2.97  26 2.97
  44  0.626  0.874  0.626-  17 1.78  16 2.09   3 2.09  13 2.09  34 2.91  35 2.91  47 2.91  40 2.94
                            45 2.94  33 2.94  48 2.94  49 2.94  53 2.94  42 2.97  27 2.97  31 2.97
  45  0.624  0.124  0.876-  18 1.78   9 2.09  16 2.09  14 2.09  32 2.91  54 2.91  33 2.91  47 2.94
                            39 2.94  44 2.94  26 2.94  52 2.94  42 2.94  48 2.97  46 2.97  41 2.97
  46  0.624  0.376  0.624-  24 1.78  16 2.09   7 2.09   9 2.09  40 2.91  53 2.91  25 2.91  35 2.94
                            39 2.94  27 2.94  42 2.94  34 2.94  55 2.94  48 2.97  41 2.97  45 2.97
  47  0.874  0.874  0.874-  17 1.78  14 2.09  15 2.09   1 2.09  34 2.91  35 2.91  44 2.91  37 2.94
                            45 2.94  38 2.94  48 2.94  54 2.94  56 2.94  43 2.97  26 2.97  28 2.97
  48  0.876  0.124  0.624-   6 1.78   7 2.09  14 2.09  16 2.09  29 2.91  38 2.91  49 2.91  27 2.94
                            43 2.94  44 2.94  47 2.94  36 2.94  55 2.94  41 2.97  45 2.97  46 2.97
  49  0.876  0.876  0.376-   6 1.78  20 2.09   1 2.09   3 2.09  29 2.91  38 2.91  48 2.91  27 2.94
                            51 2.94  28 2.94  44 2.94  26 2.94  34 2.94  53 2.97  54 2.97  56 2.97
  50  0.374  0.626  0.126-   5 1.78  19 2.09   8 2.09  22 2.09  28 2.91  51 2.91  31 2.91  25 2.94
                            33 2.94  37 2.94  30 2.94  53 2.94  54 2.94  52 2.97  39 2.97  35 2.97
  51  0.126  0.626  0.374-   5 1.78  21 2.09  20 2.09  10 2.09  28 2.91  50 2.91  31 2.91  49 2.94
                            25 2.94  40 2.94  30 2.94  38 2.94  56 2.94  36 2.97  55 2.97  34 2.97
  52  0.626  0.374  0.126-  23 1.78  22 2.09   9 2.09  19 2.09  26 2.91  27 2.91  55 2.91  32 2.94
                            41 2.94  45 2.94  53 2.94  25 2.94  56 2.94  35 2.97  39 2.97  50 2.97
  53  0.624  0.624  0.376-  24 1.78   3 2.09  22 2.09  20 2.09  40 2.91  46 2.91  25 2.91  31 2.94
                            55 2.94  34 2.94  50 2.94  52 2.94  44 2.94  54 2.97  49 2.97  56 2.97
  54  0.624  0.876  0.124-  18 1.78  22 2.09   1 2.09   3 2.09  32 2.91  45 2.91  33 2.91  26 2.94
                            27 2.94  35 2.94  31 2.94  47 2.94  50 2.94  49 2.97  53 2.97  56 2.97
  55  0.874  0.374  0.374-  23 1.78  20 2.09  21 2.09   7 2.09  26 2.91  27 2.91  52 2.91  29 2.94
                            53 2.94  48 2.94  30 2.94  46 2.94  56 2.94  34 2.97  36 2.97  51 2.97
  56  0.876  0.624  0.124-  12 1.78   1 2.09  20 2.09  22 2.09  30 2.91  37 2.91  41 2.91  28 2.94
                            35 2.94  47 2.94  51 2.94  52 2.94  55 2.94  53 2.97  54 2.97  49 2.97
 
  LATTYP: Found a simple cubic cell.
 ALAT       =     8.3249547663
  
  Lattice vectors:
  
 A1 = (   8.3249547663,   0.0000000000,   0.0000000000)
 A2 = (   0.0000000000,   8.3249547663,   0.0000000000)
 A3 = (   0.0000000000,   0.0000000000,   8.3249547663)


Analysis of symmetry for initial positions (statically):
=====================================================================
 Subroutine PRICEL returns following result:
 
  LATTYP: Found a face centered cubic cell.
 ALAT       =     8.3249547663
  
  Lattice vectors:
  
 A1 = (   4.1624773832,   4.1624773832,   0.0000000000)
 A2 = (   4.1624773832,   0.0000000000,  -4.1624773832)
 A3 = (   0.0000000000,   4.1624773832,  -4.1624773832)
 
   4 primitive cells build up your supercell.
 

 Routine SETGRP: Setting up the symmetry group for a 
 simple cubic supercell.


 Subroutine GETGRP returns: Found 48 space group operations
 (whereof 24 operations were pure point group operations)
 out of a pool of 48 trial point group operations.


The static configuration has the point symmetry T_d .
 The point group associated with its full space group is O_h .


Analysis of symmetry for dynamics (positions and initial velocities):
=====================================================================
 Subroutine PRICEL returns following result:
 
  LATTYP: Found a face centered cubic cell.
 ALAT       =     8.3249547663
  
  Lattice vectors:
  
 A1 = (   4.1624773832,   4.1624773832,   0.0000000000)
 A2 = (   4.1624773832,   0.0000000000,  -4.1624773832)
 A3 = (   0.0000000000,   4.1624773832,  -4.1624773832)
 
   4 primitive cells build up your supercell.
 

 Routine SETGRP: Setting up the symmetry group for a 
 simple cubic supercell.


 Subroutine GETGRP returns: Found 48 space group operations
 (whereof 24 operations were pure point group operations)
 out of a pool of 48 trial point group operations.


The dynamic configuration has the point symmetry T_d .
 The point group associated with its full space group is O_h .


 Subroutine INISYM returns: Found 48 space group operations
 (whereof 24 operations are pure point group operations),
 and found     4 'primitive' translations

 
 
 KPOINTS: Automatic mesh                          

Automatic generation of k-mesh.
 generate k-points for:    5    5    5
Space group operators:
 irot       det(A)        alpha          n_x          n_y          n_z        tau_x        tau_y        tau_z
    1     1.000000     0.000001     1.000000     0.000000     0.000000     0.000000     0.000000    -0.000000
    2     1.000000   120.000000    -0.577350    -0.577350    -0.577350     0.000000     0.000000    -0.000000
    3     1.000000   120.000000     0.577350     0.577350     0.577350     0.000000     0.000000    -0.000000
    4    -1.000000    90.000000     0.000000     0.000000    -1.000000     0.000000     0.000000    -0.000000
    5    -1.000000   180.000000     0.000000    -0.707107    -0.707107     0.000000     0.000000    -0.000000
    6    -1.000000    90.000000     0.000000     1.000000     0.000000     0.000000     0.000000    -0.000000
    7     1.000000   180.000000    -0.000000    -0.000000     1.000000     0.000000     0.000000    -0.000000
    8     1.000000   120.000000    -0.577350     0.577350     0.577350     0.000000     0.000000    -0.000000
    9     1.000000   120.000000    -0.577350     0.577350    -0.577350     0.000000     0.000000    -0.000000
   10    -1.000000    90.000000    -0.000000    -0.000000     1.000000     0.000000     0.000000    -0.000000
   11    -1.000000    90.000000    -1.000000     0.000000    -0.000000     0.000000     0.000000    -0.000000
   12    -1.000000   180.000000    -0.707107     0.000000    -0.707107     0.000000     0.000000    -0.000000
   13     1.000000   120.000000     0.577350    -0.577350     0.577350     0.000000     0.000000    -0.000000
   14     1.000000   120.000000    -0.577350    -0.577350     0.577350     0.000000     0.000000    -0.000000
   15     1.000000   180.000000     1.000000     0.000000     0.000000     0.000000     0.000000    -0.000000
   16    -1.000000    90.000000    -0.000000    -1.000000     0.000000     0.000000     0.000000    -0.000000
   17    -1.000000   180.000000     0.707107     0.707107     0.000000     0.000000     0.000000    -0.000000
   18    -1.000000    90.000000     1.000000    -0.000000    -0.000000     0.000000     0.000000    -0.000000
   19     1.000000   120.000000     0.577350    -0.577350    -0.577350     0.000000     0.000000    -0.000000
   20     1.000000   180.000000    -0.000000     1.000000     0.000000     0.000000     0.000000    -0.000000
   21     1.000000   120.000000     0.577350     0.577350    -0.577350     0.000000     0.000000    -0.000000
   22    -1.000000   179.999999    -0.000000    -0.707107     0.707107     0.000000     0.000000    -0.000000
   23    -1.000000   180.000000     0.707107    -0.707107     0.000000     0.000000     0.000000    -0.000000
   24    -1.000000   179.999999     0.707107    -0.000000    -0.707107     0.000000     0.000000    -0.000000
   25    -1.000000     0.000001     1.000000     0.000000     0.000000     0.750000     0.750000    -0.750000
   26    -1.000000   120.000000    -0.577350    -0.577350    -0.577350     0.750000     0.750000    -0.750000
   27    -1.000000   120.000000     0.577350     0.577350     0.577350     0.750000     0.750000    -0.750000
   28     1.000000    90.000000     0.000000     0.000000    -1.000000     0.750000     0.750000    -0.750000
   29     1.000000   180.000000     0.000000    -0.707107    -0.707107     0.750000     0.750000    -0.750000
   30     1.000000    90.000000     0.000000     1.000000     0.000000     0.750000     0.750000    -0.750000
   31    -1.000000   180.000000    -0.000000    -0.000000     1.000000     0.750000     0.750000    -0.750000
   32    -1.000000   120.000000    -0.577350     0.577350     0.577350     0.750000     0.750000    -0.750000
   33    -1.000000   120.000000    -0.577350     0.577350    -0.577350     0.750000     0.750000    -0.750000
   34     1.000000    90.000000    -0.000000    -0.000000     1.000000     0.750000     0.750000    -0.750000
   35     1.000000    90.000000    -1.000000     0.000000    -0.000000     0.750000     0.750000    -0.750000
   36     1.000000   180.000000    -0.707107     0.000000    -0.707107     0.750000     0.750000    -0.750000
   37    -1.000000   120.000000     0.577350    -0.577350     0.577350     0.750000     0.750000    -0.750000
   38    -1.000000   120.000000    -0.577350    -0.577350     0.577350     0.750000     0.750000    -0.750000
   39    -1.000000   180.000000     1.000000     0.000000     0.000000     0.750000     0.750000    -0.750000
   40     1.000000    90.000000    -0.000000    -1.000000     0.000000     0.750000     0.750000    -0.750000
   41     1.000000   180.000000     0.707107     0.707107     0.000000     0.750000     0.750000    -0.750000
   42     1.000000    90.000000     1.000000    -0.000000    -0.000000     0.750000     0.750000    -0.750000
   43    -1.000000   120.000000     0.577350    -0.577350    -0.577350     0.750000     0.750000    -0.750000
   44    -1.000000   180.000000    -0.000000     1.000000     0.000000     0.750000     0.750000    -0.750000
   45    -1.000000   120.000000     0.577350     0.577350    -0.577350     0.750000     0.750000    -0.750000
   46     1.000000   179.999999    -0.000000    -0.707107     0.707107     0.750000     0.750000    -0.750000
   47     1.000000   180.000000     0.707107    -0.707107     0.000000     0.750000     0.750000    -0.750000
   48     1.000000   179.999999     0.707107    -0.000000    -0.707107     0.750000     0.750000    -0.750000
 
 Subroutine IBZKPT returns following result:
 ===========================================
 
 Found     10 irreducible k-points:
 
 Following reciprocal coordinates:
            Coordinates               Weight
  0.000000  0.000000  0.000000      1.000000
  0.200000  0.000000  0.000000      6.000000
  0.400000  0.000000  0.000000      6.000000
  0.200000  0.200000  0.000000     12.000000
  0.400000  0.200000  0.000000     24.000000
  0.400000  0.400000  0.000000     12.000000
  0.200000  0.200000  0.200000      8.000000
  0.400000  0.200000  0.200000     24.000000
  0.400000  0.400000  0.200000     24.000000
  0.400000  0.400000  0.400000      8.000000
 
 Following cartesian coordinates:
            Coordinates               Weight
  0.000000  0.000000  0.000000      1.000000
  0.024024  0.000000  0.000000      6.000000
  0.048048  0.000000  0.000000      6.000000
  0.024024  0.024024  0.000000     12.000000
  0.048048  0.024024  0.000000     24.000000
  0.048048  0.048048  0.000000     12.000000
  0.024024  0.024024  0.024024      8.000000
  0.048048  0.024024  0.024024     24.000000
  0.048048  0.048048  0.024024     24.000000
  0.048048  0.048048  0.048048      8.000000
 


--------------------------------------------------------------------------------------------------------




 Dimension of arrays:
   k-points           NKPTS =     10   k-points in BZ     NKDIM =     10   number of bands    NBANDS=    156
   number of dos      NEDOS =    301   number of ions     NIONS =     56
   non local maximal  LDIM  =      4   non local SUM 2l+1 LMDIM =      8
   total plane-waves  NPLWV = 157464
   max r-space proj   IRMAX =   5645   max aug-charges    IRDMAX=   9324
   dimension x,y,z NGX =    54 NGY =   54 NGZ =   54
   dimension x,y,z NGXF=   108 NGYF=  108 NGZF=  108
   support grid    NGXF=   108 NGYF=  108 NGZF=  108
   ions per type =              24  32
   NGX,Y,Z   is equivalent  to a cutoff of  10.78, 10.78, 10.78 a.u.
   NGXF,Y,Z  is equivalent  to a cutoff of  21.57, 21.57, 21.57 a.u.

 SYSTEM =  unknown system                          
 POSCAR =  Si24 N32                                

 Startparameter for this run:
   NWRITE =      2    write-flag & timer
   PREC   = accura    normal or accurate (medium, high low for compatibility)
   ISTART =      0    job   : 0-new  1-cont  2-samecut
   ICHARG =      2    charge: 1-file 2-atom 10-const
   ISPIN  =      1    spin polarized calculation?
   LNONCOLLINEAR =      F non collinear calculations
   LSORBIT =      F    spin-orbit coupling
   INIWAV =      1    electr: 0-lowe 1-rand  2-diag
   LASPH  =      F    aspherical Exc in radial PAW
   METAGGA=      F    non-selfconsistent MetaGGA calc.

 Electronic Relaxation 1
   ENCUT  =  400.0 eV  29.40 Ry    5.42 a.u.  13.58 13.58 13.58*2*pi/ulx,y,z
   ENINI  =  400.0     initial cutoff
   ENAUG  =  627.1 eV  augmentation charge cutoff
   NELM   =     60;   NELMIN=  2; NELMDL= -5     # of ELM steps 
   EDIFF  = 0.1E-03   stopping-criterion for ELM
   LREAL  =      T    real-space projection
   NLSPLINE    = F    spline interpolate recip. space projectors
   LCOMPAT=      F    compatible to vasp.4.4
   GGA_COMPAT  = T    GGA compatible to vasp.4.4-vasp.4.6
   LMAXPAW     = -100 max onsite density
   LMAXMIX     =    2 max onsite mixed and CHGCAR
   VOSKOWN=      0    Vosko Wilk Nusair interpolation
   ROPT   =   -0.00025  -0.00025
 Ionic relaxation
   EDIFFG = 0.1E-02   stopping-criterion for IOM
   NSW    =    100    number of steps for IOM
   NBLOCK =      1;   KBLOCK =    100    inner block; outer block 
   IBRION =      2    ionic relax: 0-MD 1-quasi-New 2-CG
   NFREE  =      1    steps in history (QN), initial steepest desc. (CG)
   ISIF   =      2    stress and relaxation
   IWAVPR =     11    prediction:  0-non 1-charg 2-wave 3-comb
   ISYM   =      2    0-nonsym 1-usesym 2-fastsym
   LCORR  =      T    Harris-Foulkes like correction to forces

   POTIM  = 0.5000    time-step for ionic-motion
   TEIN   =    0.0    initial temperature
   TEBEG  =    0.0;   TEEND  =   0.0 temperature during run
   SMASS  =  -3.00    Nose mass-parameter (am)
   estimated Nose-frequenzy (Omega)   =  0.10E-29 period in steps =****** mass=  -0.158E-26a.u.
   SCALEE = 1.0000    scale energy and forces
   NPACO  =    256;   APACO  = 16.0  distance and # of slots for P.C.
   PSTRESS=    0.0 pullay stress

  Mass of Ions in am
   POMASS =  14.00 28.09
  Ionic Valenz
   ZVAL   =   5.00  4.00
  Atomic Wigner-Seitz radii
   RWIGS  =  -1.00 -1.00
  virtual crystal weights 
   VCA    =   1.00  1.00
   NELECT =     248.0000    total number of electrons
   NUPDOWN=      -1.0000    fix difference up-down

 DOS related values:
   EMIN   =  10.00;   EMAX   =-10.00  energy-range for DOS
   EFERMI =   0.00
   ISMEAR =     2;   SIGMA  =   0.10  broadening in eV -4-tet -1-fermi 0-gaus

 Electronic relaxation 2 (details)
   IALGO  =     68    algorithm
   LDIAG  =      T    sub-space diagonalisation (order eigenvalues)
   LSUBROT=      F    optimize rotation matrix (better conditioning)
   TURBO    =      0    0=normal 1=particle mesh
   IRESTART =      0    0=no restart 2=restart with 2 vectors
   NREBOOT  =      0    no. of reboots
   NMIN     =      0    reboot dimension
   EREF     =   0.00    reference energy to select bands
   IMIX   =      4    mixing-type and parameters
     AMIX     =   0.40;   BMIX     =  1.00
     AMIX_MAG =   1.60;   BMIX_MAG =  1.00
     AMIN     =   0.10
     WC   =   100.;   INIMIX=   1;  MIXPRE=   1;  MAXMIX= -45

 Intra band minimization:
   WEIMIN = 0.0010     energy-eigenvalue tresh-hold
   EBREAK =  0.16E-06  absolut break condition
   DEPER  =   0.30     relativ break condition  

   TIME   =   0.40     timestep for ELM

  volume/ion in A,a.u.               =      10.30        69.53
  Fermi-wavevector in a.u.,A,eV,Ry     =   1.235502  2.334761 20.768825  1.526466
  Thomas-Fermi vector in A             =   2.370149
 
 Write flags
   LWAVE        =      F    write WAVECAR
   LDOWNSAMPLE  =      F    k-point downsampling of WAVECAR
   LCHARG       =      F    write CHGCAR
   LVTOT        =      F    write LOCPOT, total local potential
   LVHAR        =      F    write LOCPOT, Hartree potential only
   LELF         =      F    write electronic localiz. function (ELF)
   LORBIT       =      0    0 simple, 1 ext, 2 COOP (PROOUT), +10 PAW based schemes


 Dipole corrections
   LMONO  =      F    monopole corrections only (constant potential shift)
   LDIPOL =      F    correct potential (dipole corrections)
   IDIPOL =      0    1-x, 2-y, 3-z, 4-all directions 
   EPSILON=  1.0000000 bulk dielectric constant

 Exchange correlation treatment:
   GGA     =    --    GGA type
   LEXCH   =     8    internal setting for exchange type
   VOSKOWN=      0    Vosko Wilk Nusair interpolation
   LHFCALC =     F    Hartree Fock is set to
   LHFONE  =     F    Hartree Fock one center treatment
   AEXX    =    0.0000 exact exchange contribution

 Linear response parameters
   LEPSILON=     F    determine dielectric tensor
   LRPA    =     F    only Hartree local field effects (RPA)
   LNABLA  =     F    use nabla operator in PAW spheres
   LVEL    =     F    velocity operator in full k-point grid
   LINTERFAST=   F  fast interpolation
   KINTER  =     0    interpolate to denser k-point grid
   CSHIFT  =0.1000    complex shift for real part using Kramers Kronig
   OMEGAMAX=  -1.0    maximum frequency
   DEG_THRESHOLD= 0.2000000E-02 threshold for treating states as degnerate
   RTIME   =   -0.100 relaxation time in fs
  (WPLASMAI=    0.000 imaginary part of plasma frequency in eV, 0.658/RTIME)
   DFIELD  = 0.0000000 0.0000000 0.0000000 field for delta impulse in time
 
 Orbital magnetization related:
   ORBITALMAG=     F  switch on orbital magnetization
   LCHIMAG   =     F  perturbation theory with respect to B field
   DQ        =  0.001000  dq finite difference perturbation B field
   LLRAUG    =     F  two centre corrections for induced B field



--------------------------------------------------------------------------------------------------------


 conjugate gradient relaxation of ions
 charge density and potential will be updated during run
 non-spin polarized calculation
 RMM-DIIS sequential band-by-band and
  variant of blocked Davidson during initial phase
 perform sub-space diagonalisation
    before iterative eigenvector-optimisation
 modified Broyden-mixing scheme, WC =      100.0
 initial mixing is a Kerker type mixing with AMIX =  0.4000 and BMIX =      1.0000
 Hartree-type preconditioning will be used
 using additional bands           32
 real space projection scheme for non local part
 use partial core corrections
 calculate Harris-corrections to forces 
   (improved forces if not selfconsistent)
 use gradient corrections 
 use of overlap-Matrix (Vanderbilt PP)
 Methfessel and Paxton  Order N= 2 SIGMA  =   0.10


--------------------------------------------------------------------------------------------------------


  energy-cutoff  :      400.00
  volume of cell :      576.96
      direct lattice vectors                 reciprocal lattice vectors
     8.324954766  0.000000000  0.000000000     0.120120773 -0.000000000  0.000000000
     0.000000000  8.324954766  0.000000000    -0.000000000  0.120120773  0.000000000
     0.000000000  0.000000000  8.324954766    -0.000000000 -0.000000000  0.120120773

  length of vectors
     8.324954766  8.324954766  8.324954766     0.120120773  0.120120773  0.120120773


 
 k-points in units of 2pi/SCALE and weight: Automatic mesh                          
   0.00000000  0.00000000  0.00000000       0.008
   0.02402415  0.00000000  0.00000000       0.048
   0.04804831  0.00000000  0.00000000       0.048
   0.02402415  0.02402415  0.00000000       0.096
   0.04804831  0.02402415  0.00000000       0.192
   0.04804831  0.04804831  0.00000000       0.096
   0.02402415  0.02402415  0.02402415       0.064
   0.04804831  0.02402415  0.02402415       0.192
   0.04804831  0.04804831  0.02402415       0.192
   0.04804831  0.04804831  0.04804831       0.064
 
 k-points in reciprocal lattice and weights: Automatic mesh                          
   0.00000000  0.00000000  0.00000000       0.008
   0.20000000  0.00000000  0.00000000       0.048
   0.40000000  0.00000000  0.00000000       0.048
   0.20000000  0.20000000  0.00000000       0.096
   0.40000000  0.20000000  0.00000000       0.192
   0.40000000  0.40000000  0.00000000       0.096
   0.20000000  0.20000000  0.20000000       0.064
   0.40000000  0.20000000  0.20000000       0.192
   0.40000000  0.40000000  0.20000000       0.192
   0.40000000  0.40000000  0.40000000       0.064
 
 position of ions in fractional coordinates (direct lattice) 
   0.87500000  0.87500000  0.12500000
   0.37500000  0.12500000  0.37500000
   0.62500000  0.87500000  0.37500000
   0.12500000  0.12500000  0.12500000
   0.25000000  0.75000000  0.25000000
   0.00000000  0.00000000  0.50000000
   0.87500000  0.37500000  0.62500000
   0.37500000  0.62500000  0.87500000
   0.62500000  0.37500000  0.87500000
   0.12500000  0.62500000  0.62500000
   0.25000000  0.25000000  0.75000000
   0.00000000  0.50000000  0.00000000
   0.37500000  0.87500000  0.62500000
   0.87500000  0.12500000  0.87500000
   0.12500000  0.87500000  0.87500000
   0.62500000  0.12500000  0.62500000
   0.75000000  0.75000000  0.75000000
   0.50000000  0.00000000  0.00000000
   0.37500000  0.37500000  0.12500000
   0.87500000  0.62500000  0.37500000
   0.12500000  0.37500000  0.37500000
   0.62500000  0.62500000  0.12500000
   0.75000000  0.25000000  0.25000000
   0.50000000  0.50000000  0.50000000
   0.37630293  0.37630293  0.37630293
   0.87369707  0.12630293  0.12630293
   0.62630293  0.12630293  0.37369707
   0.12630293  0.87369707  0.12630293
   0.12369707  0.12369707  0.37630293
   0.12369707  0.37630293  0.12369707
   0.37369707  0.87369707  0.37369707
   0.37630293  0.12369707  0.12369707
   0.37630293  0.87630293  0.87630293
   0.87369707  0.62630293  0.62630293
   0.62630293  0.62630293  0.87369707
   0.12630293  0.37369707  0.62630293
   0.12369707  0.62369707  0.87630293
   0.12369707  0.87630293  0.62369707
   0.37369707  0.37369707  0.87369707
   0.37630293  0.62369707  0.62369707
   0.87630293  0.37630293  0.87630293
   0.37369707  0.12630293  0.62630293
   0.12630293  0.12630293  0.87369707
   0.62630293  0.87369707  0.62630293
   0.62369707  0.12369707  0.87630293
   0.62369707  0.37630293  0.62369707
   0.87369707  0.87369707  0.87369707
   0.87630293  0.12369707  0.62369707
   0.87630293  0.87630293  0.37630293
   0.37369707  0.62630293  0.12630293
   0.12630293  0.62630293  0.37369707
   0.62630293  0.37369707  0.12630293
   0.62369707  0.62369707  0.37630293
   0.62369707  0.87630293  0.12369707
   0.87369707  0.37369707  0.37369707
   0.87630293  0.62369707  0.12369707
 
 position of ions in cartesian coordinates  (Angst):
   7.28433542  7.28433542  1.04061935
   3.12185804  1.04061935  3.12185804
   5.20309673  7.28433542  3.12185804
   1.04061935  1.04061935  1.04061935
   2.08123869  6.24371607  2.08123869
   0.00000000  0.00000000  4.16247738
   7.28433542  3.12185804  5.20309673
   3.12185804  5.20309673  7.28433542
   5.20309673  3.12185804  7.28433542
   1.04061935  5.20309673  5.20309673
   2.08123869  2.08123869  6.24371607
   0.00000000  4.16247738  0.00000000
   3.12185804  7.28433542  5.20309673
   7.28433542  1.04061935  7.28433542
   1.04061935  7.28433542  7.28433542
   5.20309673  1.04061935  5.20309673
   6.24371607  6.24371607  6.24371607
   4.16247738  0.00000000  0.00000000
   3.12185804  3.12185804  1.04061935
   7.28433542  5.20309673  3.12185804
   1.04061935  3.12185804  3.12185804
   5.20309673  5.20309673  1.04061935
   6.24371607  2.08123869  2.08123869
   4.16247738  4.16247738  4.16247738
   3.13270490  3.13270490  3.13270490
   7.27348856  1.05146621  1.05146621
   5.21394359  1.05146621  3.11101117
   1.05146621  7.27348856  1.05146621
   1.02977248  1.02977248  3.13270490
   1.02977248  3.13270490  1.02977248
   3.11101117  7.27348856  3.11101117
   3.13270490  1.02977248  1.02977248
   3.13270490  7.29518228  7.29518228
   7.27348856  5.21394359  5.21394359
   5.21394359  5.21394359  7.27348856
   1.05146621  3.11101117  5.21394359
   1.02977248  5.19224987  7.29518228
   1.02977248  7.29518228  5.19224987
   3.11101117  3.11101117  7.27348856
   3.13270490  5.19224987  5.19224987
   7.29518228  3.13270490  7.29518228
   3.11101117  1.05146621  5.21394359
   1.05146621  1.05146621  7.27348856
   5.21394359  7.27348856  5.21394359
   5.19224987  1.02977248  7.29518228
   5.19224987  3.13270490  5.19224987
   7.27348856  7.27348856  7.27348856
   7.29518228  1.02977248  5.19224987
   7.29518228  7.29518228  3.13270490
   3.11101117  5.21394359  1.05146621
   1.05146621  5.21394359  3.11101117
   5.21394359  3.11101117  1.05146621
   5.19224987  5.19224987  3.13270490
   5.19224987  7.29518228  1.02977248
   7.27348856  3.11101117  3.11101117
   7.29518228  5.19224987  1.02977248
 


--------------------------------------------------------------------------------------------------------


 k-point  1 :   0.0000 0.0000 0.0000  plane waves:   10443
 k-point  2 :   0.2000 0.0000 0.0000  plane waves:   10507
 k-point  3 :   0.4000 0.0000 0.0000  plane waves:   10459
 k-point  4 :   0.2000 0.2000 0.0000  plane waves:   10479
 k-point  5 :   0.4000 0.2000 0.0000  plane waves:   10487
 k-point  6 :   0.4000 0.4000 0.0000  plane waves:   10487
 k-point  7 :   0.2000 0.2000 0.2000  plane waves:   10495
 k-point  8 :   0.4000 0.2000 0.2000  plane waves:   10485
 k-point  9 :   0.4000 0.4000 0.2000  plane waves:   10463
 k-point 10 :   0.4000 0.4000 0.4000  plane waves:   10435

 maximum and minimum number of plane-waves per node :      2642     2595

 maximum number of plane-waves:     10507
 maximum index in each direction: 
   IXMAX=   13   IYMAX=   13   IZMAX=   13
   IXMIN=  -13   IYMIN=  -13   IZMIN=  -13


 real space projection operators:
  total allocation   :      14031.25 KBytes
  max/ min on nodes  :       3645.50       3370.12


 parallel 3D FFT for wavefunctions:
    minimum data exchange during FFTs selected (reduces bandwidth)
 parallel 3D FFT for charge:
    minimum data exchange during FFTs selected (reduces bandwidth)


 total amount of memory used by VASP MPI-rank0    67417. kBytes
=======================================================================

   base      :      30000. kBytes
   nonlr-proj:       9914. kBytes
   fftplans  :       3986. kBytes
   grid      :       6277. kBytes
   one-center:         43. kBytes
   wavefun   :      17197. kBytes
 
     INWAV:  cpu time    0.0000: real time    0.0000
 Broyden mixing: mesh for mixing (old mesh)
   NGX = 27   NGY = 27   NGZ = 27
  (NGX  =108   NGY  =108   NGZ  =108)
  gives a total of  19683 points

 initial charge density was supplied:
 charge density of overlapping atoms calculated
 number of electron     248.0000000 magnetization 
 keeping initial charge density in first step


--------------------------------------------------------------------------------------------------------


 Maximum index for non-local projection operator         1554
 Maximum index for augmentation-charges          632 (set IRDMAX)


--------------------------------------------------------------------------------------------------------


 First call to EWALD:  gamma=   0.213
 Maximum number of real-space cells 3x 3x 3
 Maximum number of reciprocal cells 3x 3x 3

    FEWALD:  cpu time    0.0031: real time    0.0034


--------------------------------------- Iteration      1(   1)  ---------------------------------------


    POTLOK:  cpu time    0.6555: real time    0.6607
    SETDIJ:  cpu time    0.0073: real time    0.0073
     EDDAV:  cpu time    5.2523: real time    5.2512
       DOS:  cpu time    0.0016: real time    0.0016
    --------------------------------------------
      LOOP:  cpu time    5.9166: real time    5.9209

 eigenvalue-minimisations  :  3120
 total energy-change (2. order) : 0.8846885E+03  (-0.1005197E+05)
 number of electron     248.0000000 magnetization 
 augmentation part      248.0000000 magnetization 

 Free energy of the ion-electron system (eV)
  ---------------------------------------------------
  alpha Z        PSCENC =       338.06241684
  Ewald energy   TEWEN  =     -9991.73134594
  -Hartree energ DENC   =     -1451.23552589
  -exchange      EXHF   =         0.00000000
  -V(xc)+E(xc)   XCENC  =       209.07184505
  PAW double counting   =      7738.34714636    -7203.94574617
  entropy T*S    EENTRO =         0.00510393
  eigenvalues    EBANDS =      1600.61064736
  atomic energy  EATOM  =      9645.50393724
  Solvation  Ediel_sol  =         0.00000000
  ---------------------------------------------------
  free energy    TOTEN  =       884.68847879 eV

  energy without entropy =      884.68337486  energy(sigma->0) =      884.68720280


--------------------------------------------------------------------------------------------------------




--------------------------------------- Iteration      1(   2)  ---------------------------------------


     EDDAV:  cpu time    6.0224: real time    6.0214
       DOS:  cpu time    0.0015: real time    0.0015
    --------------------------------------------
      LOOP:  cpu time    6.0239: real time    6.0229

 eigenvalue-minimisations  :  3900
 total energy-change (2. order) :-0.1136650E+04  (-0.1091499E+04)
 number of electron     248.0000000 magnetization 
 augmentation part      248.0000000 magnetization 

 Free energy of the ion-electron system (eV)
  ---------------------------------------------------
  alpha Z        PSCENC =       338.06241684
  Ewald energy   TEWEN  =     -9991.73134594
  -Hartree energ DENC   =     -1451.23552589
  -exchange      EXHF   =         0.00000000
  -V(xc)+E(xc)   XCENC  =       209.07184505
  PAW double counting   =      7738.34714636    -7203.94574617
  entropy T*S    EENTRO =         0.00299744
  eigenvalues    EBANDS =       463.96289428
  atomic energy  EATOM  =      9645.50393724
  Solvation  Ediel_sol  =         0.00000000
  ---------------------------------------------------
  free energy    TOTEN  =      -251.96138077 eV

  energy without entropy =     -251.96437822  energy(sigma->0) =     -251.96213013


--------------------------------------------------------------------------------------------------------




--------------------------------------- Iteration      1(   3)  ---------------------------------------


     EDDAV:  cpu time    5.1588: real time    5.1591
       DOS:  cpu time    0.0016: real time    0.0016
    --------------------------------------------
      LOOP:  cpu time    5.1604: real time    5.1607

 eigenvalue-minimisations  :  3848
 total energy-change (2. order) :-0.9939602E+02  (-0.9533901E+02)
 number of electron     248.0000000 magnetization 
 augmentation part      248.0000000 magnetization 

 Free energy of the ion-electron system (eV)
  ---------------------------------------------------
  alpha Z        PSCENC =       338.06241684
  Ewald energy   TEWEN  =     -9991.73134594
  -Hartree energ DENC   =     -1451.23552589
  -exchange      EXHF   =         0.00000000
  -V(xc)+E(xc)   XCENC  =       209.07184505
  PAW double counting   =      7738.34714636    -7203.94574617
  entropy T*S    EENTRO =        -0.00121798
  eigenvalues    EBANDS =       364.57109292
  atomic energy  EATOM  =      9645.50393724
  Solvation  Ediel_sol  =         0.00000000
  ---------------------------------------------------
  free energy    TOTEN  =      -351.35739756 eV

  energy without entropy =     -351.35617958  energy(sigma->0) =     -351.35709307


--------------------------------------------------------------------------------------------------------




--------------------------------------- Iteration      1(   4)  ---------------------------------------


     EDDAV:  cpu time    5.1974: real time    5.1979
       DOS:  cpu time    0.0017: real time    0.0017
    --------------------------------------------
      LOOP:  cpu time    5.1990: real time    5.1995

 eigenvalue-minimisations  :  3920
 total energy-change (2. order) :-0.3390520E+01  (-0.3272750E+01)
 number of electron     248.0000000 magnetization 
 augmentation part      248.0000000 magnetization 

 Free energy of the ion-electron system (eV)
  ---------------------------------------------------
  alpha Z        PSCENC =       338.06241684
  Ewald energy   TEWEN  =     -9991.73134594
  -Hartree energ DENC   =     -1451.23552589
  -exchange      EXHF   =         0.00000000
  -V(xc)+E(xc)   XCENC  =       209.07184505
  PAW double counting   =      7738.34714636    -7203.94574617
  entropy T*S    EENTRO =        -0.00252698
  eigenvalues    EBANDS =       361.18188168
  atomic energy  EATOM  =      9645.50393724
  Solvation  Ediel_sol  =         0.00000000
  ---------------------------------------------------
  free energy    TOTEN  =      -354.74791780 eV

  energy without entropy =     -354.74539082  energy(sigma->0) =     -354.74728606


--------------------------------------------------------------------------------------------------------




--------------------------------------- Iteration      1(   5)  ---------------------------------------


     EDDAV:  cpu time    5.0926: real time    5.0934
       DOS:  cpu time    0.0016: real time    0.0016
    CHARGE:  cpu time    0.2772: real time    0.2772
    MIXING:  cpu time    0.0014: real time    0.0014
    --------------------------------------------
      LOOP:  cpu time    5.3730: real time    5.3737

 eigenvalue-minimisations  :  3800
 total energy-change (2. order) :-0.1014404E+00  (-0.1006909E+00)
 number of electron     247.9999949 magnetization 
 augmentation part       -0.8787570 magnetization 

 Broyden mixing:
  rms(total) = 0.39818E+01    rms(broyden)= 0.39811E+01
  rms(prec ) = 0.53271E+01
  weight for this iteration     100.00

 Free energy of the ion-electron system (eV)
  ---------------------------------------------------
  alpha Z        PSCENC =       338.06241684
  Ewald energy   TEWEN  =     -9991.73134594
  -Hartree energ DENC   =     -1451.23552589
  -exchange      EXHF   =         0.00000000
  -V(xc)+E(xc)   XCENC  =       209.07184505
  PAW double counting   =      7738.34714636    -7203.94574617
  entropy T*S    EENTRO =        -0.00261632
  eigenvalues    EBANDS =       361.08053063
  atomic energy  EATOM  =      9645.50393724
  Solvation  Ediel_sol  =         0.00000000
  ---------------------------------------------------
  free energy    TOTEN  =      -354.84935819 eV

  energy without entropy =     -354.84674187  energy(sigma->0) =     -354.84870411


--------------------------------------------------------------------------------------------------------




--------------------------------------- Iteration      1(   6)  ---------------------------------------


    POTLOK:  cpu time    0.0531: real time    0.0559
    SETDIJ:  cpu time    0.0075: real time    0.0076
    EDDIAG:  cpu time    0.6504: real time    0.6503
  RMM-DIIS:  cpu time    2.6242: real time    2.6236
    ORTHCH:  cpu time    0.0877: real time    0.0877
       DOS:  cpu time    0.0015: real time    0.0015
    CHARGE:  cpu time    0.4721: real time    0.4717
    MIXING:  cpu time    0.0015: real time    0.0015
    --------------------------------------------
      LOOP:  cpu time    3.8979: real time    3.8997

 eigenvalue-minimisations  :  3120
 total energy-change (2. order) : 0.2796001E+02  (-0.1456784E+02)
 number of electron     247.9999946 magnetization 
 augmentation part       -3.4820247 magnetization 

 Broyden mixing:
  rms(total) = 0.18100E+01    rms(broyden)= 0.18091E+01
  rms(prec ) = 0.18924E+01
  weight for this iteration     100.00

 eigenvalues of (default mixing * dielectric matrix)
  average eigenvalue GAMMA=   1.0477
  1.0477

 Free energy of the ion-electron system (eV)
  ---------------------------------------------------
  alpha Z        PSCENC =       338.06241684
  Ewald energy   TEWEN  =     -9991.73134594
  -Hartree energ DENC   =     -1712.49986148
  -exchange      EXHF   =         0.00000000
  -V(xc)+E(xc)   XCENC  =       226.89370783
  PAW double counting   =     13894.69224098   -13362.21619373
  entropy T*S    EENTRO =         0.00567269
  eigenvalues    EBANDS =       634.40007937
  atomic energy  EATOM  =      9645.50393724
  Solvation  Ediel_sol  =         0.00000000
  ---------------------------------------------------
  free energy    TOTEN  =      -326.88934618 eV

  energy without entropy =     -326.89501888  energy(sigma->0) =     -326.89076436


--------------------------------------------------------------------------------------------------------




--------------------------------------- Iteration      1(   7)  ---------------------------------------


    POTLOK:  cpu time    0.0500: real time    0.0514
    SETDIJ:  cpu time    0.0075: real time    0.0076
    EDDIAG:  cpu time    0.6490: real time    0.6490
  RMM-DIIS:  cpu time    2.7926: real time    2.7921
    ORTHCH:  cpu time    0.0853: real time    0.0853
       DOS:  cpu time    0.0017: real time    0.0017
    CHARGE:  cpu time    0.2742: real time    0.2741
    MIXING:  cpu time    0.0014: real time    0.0014
    --------------------------------------------
      LOOP:  cpu time    3.8617: real time    3.8626

 eigenvalue-minimisations  :  3298
 total energy-change (2. order) : 0.4119781E+00  (-0.4297733E+00)
 number of electron     247.9999949 magnetization 
 augmentation part       -3.6459986 magnetization 

 Broyden mixing:
  rms(total) = 0.10206E+01    rms(broyden)= 0.10205E+01
  rms(prec ) = 0.10838E+01
  weight for this iteration     100.00

 eigenvalues of (default mixing * dielectric matrix)
  average eigenvalue GAMMA=   1.5794
  1.0649  2.0939

 Free energy of the ion-electron system (eV)
  ---------------------------------------------------
  alpha Z        PSCENC =       338.06241684
  Ewald energy   TEWEN  =     -9991.73134594
  -Hartree energ DENC   =     -1705.39216850
  -exchange      EXHF   =         0.00000000
  -V(xc)+E(xc)   XCENC  =       226.94471600
  PAW double counting   =     18695.06314101   -18163.07938358
  entropy T*S    EENTRO =         0.00704506
  eigenvalues    EBANDS =       628.14427377
  atomic energy  EATOM  =      9645.50393724
  Solvation  Ediel_sol  =         0.00000000
  ---------------------------------------------------
  free energy    TOTEN  =      -326.47736810 eV

  energy without entropy =     -326.48441316  energy(sigma->0) =     -326.47912936


--------------------------------------------------------------------------------------------------------




--------------------------------------- Iteration      1(   8)  ---------------------------------------


    POTLOK:  cpu time    0.0528: real time    0.0529
    SETDIJ:  cpu time    0.0070: real time    0.0070
    EDDIAG:  cpu time    0.6432: real time    0.6431
  RMM-DIIS:  cpu time    2.6655: real time    2.6650
    ORTHCH:  cpu time    0.0866: real time    0.0866
       DOS:  cpu time    0.0015: real time    0.0015
    CHARGE:  cpu time    0.2693: real time    0.2693
    MIXING:  cpu time    0.0017: real time    0.0017
    --------------------------------------------
      LOOP:  cpu time    3.7276: real time    3.7271

 eigenvalue-minimisations  :  3122
 total energy-change (2. order) : 0.1076789E+00  (-0.1958556E+00)
 number of electron     247.9999947 magnetization 
 augmentation part       -3.4305360 magnetization 

 Broyden mixing:
  rms(total) = 0.19828E+00    rms(broyden)= 0.19821E+00
  rms(prec ) = 0.29715E+00
  weight for this iteration     100.00

 eigenvalues of (default mixing * dielectric matrix)
  average eigenvalue GAMMA=   1.3819
  2.2958  0.9249  0.9249

 Free energy of the ion-electron system (eV)
  ---------------------------------------------------
  alpha Z        PSCENC =       338.06241684
  Ewald energy   TEWEN  =     -9991.73134594
  -Hartree energ DENC   =     -1679.70160632
  -exchange      EXHF   =         0.00000000
  -V(xc)+E(xc)   XCENC  =       226.01437539
  PAW double counting   =     24994.71590921   -24463.29093167
  entropy T*S    EENTRO =         0.01216665
  eigenvalues    EBANDS =       604.04538935
  atomic energy  EATOM  =      9645.50393724
  Solvation  Ediel_sol  =         0.00000000
  ---------------------------------------------------
  free energy    TOTEN  =      -326.36968925 eV

  energy without entropy =     -326.38185589  energy(sigma->0) =     -326.37273091


--------------------------------------------------------------------------------------------------------




--------------------------------------- Iteration      1(   9)  ---------------------------------------


    POTLOK:  cpu time    0.0536: real time    0.0540
    SETDIJ:  cpu time    0.0072: real time    0.0072
    EDDIAG:  cpu time    0.6418: real time    0.6417
  RMM-DIIS:  cpu time    2.7605: real time    2.7601
    ORTHCH:  cpu time    0.0862: real time    0.0862
       DOS:  cpu time    0.0016: real time    0.0016
    CHARGE:  cpu time    0.2752: real time    0.2751
    MIXING:  cpu time    0.0018: real time    0.0018
    --------------------------------------------
      LOOP:  cpu time    3.8278: real time    3.8276

 eigenvalue-minimisations  :  3176
 total energy-change (2. order) : 0.1164046E+00  (-0.1839222E-01)
 number of electron     247.9999948 magnetization 
 augmentation part       -3.5079407 magnetization 

 Broyden mixing:
  rms(total) = 0.77846E-01    rms(broyden)= 0.77839E-01
  rms(prec ) = 0.11247E+00
  weight for this iteration     100.00

 eigenvalues of (default mixing * dielectric matrix)
  average eigenvalue GAMMA=   1.2795
  2.3080  0.9273  0.9413  0.9413

 Free energy of the ion-electron system (eV)
  ---------------------------------------------------
  alpha Z        PSCENC =       338.06241684
  Ewald energy   TEWEN  =     -9991.73134594
  -Hartree energ DENC   =     -1692.55949214
  -exchange      EXHF   =         0.00000000
  -V(xc)+E(xc)   XCENC  =       226.93240220
  PAW double counting   =     25643.30565591   -25112.00964851
  entropy T*S    EENTRO =         0.01039555
  eigenvalues    EBANDS =       616.23239420
  atomic energy  EATOM  =      9645.50393724
  Solvation  Ediel_sol  =         0.00000000
  ---------------------------------------------------
  free energy    TOTEN  =      -326.25328465 eV

  energy without entropy =     -326.26368019  energy(sigma->0) =     -326.25588354


--------------------------------------------------------------------------------------------------------




--------------------------------------- Iteration      1(  10)  ---------------------------------------


    POTLOK:  cpu time    0.0522: real time    0.0524
    SETDIJ:  cpu time    0.0072: real time    0.0072
    EDDIAG:  cpu time    0.6452: real time    0.6453
  RMM-DIIS:  cpu time    3.3224: real time    3.3208
    ORTHCH:  cpu time    0.0856: real time    0.0855
       DOS:  cpu time    0.0017: real time    0.0017
    CHARGE:  cpu time    0.2758: real time    0.2758
    MIXING:  cpu time    0.0026: real time    0.0026
    --------------------------------------------
      LOOP:  cpu time    4.3927: real time    4.3913

 eigenvalue-minimisations  :  3291
 total energy-change (2. order) : 0.8149075E-02  (-0.1146184E-01)
 number of electron     247.9999948 magnetization 
 augmentation part       -3.5683563 magnetization 

 Broyden mixing:
  rms(total) = 0.24894E-01    rms(broyden)= 0.24829E-01
  rms(prec ) = 0.28525E-01
  weight for this iteration     100.00

 eigenvalues of (default mixing * dielectric matrix)
  average eigenvalue GAMMA=   1.5471
  2.4008  2.4008  0.9286  1.0025  1.0025

 Free energy of the ion-electron system (eV)
  ---------------------------------------------------
  alpha Z        PSCENC =       338.06241684
  Ewald energy   TEWEN  =     -9991.73134594
  -Hartree energ DENC   =     -1698.56289801
  -exchange      EXHF   =         0.00000000
  -V(xc)+E(xc)   XCENC  =       227.35655634
  PAW double counting   =     25745.33639989   -25214.09962619
  entropy T*S    EENTRO =         0.00950458
  eigenvalues    EBANDS =       621.87991969
  atomic energy  EATOM  =      9645.50393724
  Solvation  Ediel_sol  =         0.00000000
  ---------------------------------------------------
  free energy    TOTEN  =      -326.24513557 eV

  energy without entropy =     -326.25464015  energy(sigma->0) =     -326.24751172


--------------------------------------------------------------------------------------------------------




--------------------------------------- Iteration      1(  11)  ---------------------------------------


    POTLOK:  cpu time    0.0786: real time    0.1029
    SETDIJ:  cpu time    0.0070: real time    0.0070
    EDDIAG:  cpu time    0.6405: real time    0.6407
  RMM-DIIS:  cpu time    2.7431: real time    2.7437
    ORTHCH:  cpu time    0.0851: real time    0.0851
       DOS:  cpu time    0.0017: real time    0.0017
    CHARGE:  cpu time    0.2773: real time    0.2773
    MIXING:  cpu time    0.0017: real time    0.0017
    --------------------------------------------
      LOOP:  cpu time    3.8350: real time    3.8602

 eigenvalue-minimisations  :  3231
 total energy-change (2. order) :-0.6623012E-03  (-0.5598941E-03)
 number of electron     247.9999948 magnetization 
 augmentation part       -3.5614558 magnetization 

 Broyden mixing:
  rms(total) = 0.99011E-02    rms(broyden)= 0.98982E-02
  rms(prec ) = 0.14682E-01
  weight for this iteration     100.00

 eigenvalues of (default mixing * dielectric matrix)
  average eigenvalue GAMMA=   1.4781
  2.5783  2.4575  0.9660  0.9660  0.9503  0.9503

 Free energy of the ion-electron system (eV)
  ---------------------------------------------------
  alpha Z        PSCENC =       338.06241684
  Ewald energy   TEWEN  =     -9991.73134594
  -Hartree energ DENC   =     -1697.32571719
  -exchange      EXHF   =         0.00000000
  -V(xc)+E(xc)   XCENC  =       227.31878232
  PAW double counting   =     25684.55861259   -25153.34843589
  entropy T*S    EENTRO =         0.00973852
  eigenvalues    EBANDS =       620.70621364
  atomic energy  EATOM  =      9645.50393724
  Solvation  Ediel_sol  =         0.00000000
  ---------------------------------------------------
  free energy    TOTEN  =      -326.24579788 eV

  energy without entropy =     -326.25553639  energy(sigma->0) =     -326.24823250


--------------------------------------------------------------------------------------------------------




--------------------------------------- Iteration      1(  12)  ---------------------------------------


    POTLOK:  cpu time    0.0514: real time    0.0515
    SETDIJ:  cpu time    0.0073: real time    0.0073
    EDDIAG:  cpu time    0.6404: real time    0.6404
  RMM-DIIS:  cpu time    2.7815: real time    2.7809
    ORTHCH:  cpu time    0.0855: real time    0.0854
       DOS:  cpu time    0.0015: real time    0.0015
    CHARGE:  cpu time    0.2761: real time    0.2761
    MIXING:  cpu time    0.0018: real time    0.0018
    --------------------------------------------
      LOOP:  cpu time    3.8454: real time    3.8450

 eigenvalue-minimisations  :  3282
 total energy-change (2. order) : 0.1101484E-03  (-0.3129378E-03)
 number of electron     247.9999948 magnetization 
 augmentation part       -3.5693927 magnetization 

 Broyden mixing:
  rms(total) = 0.45695E-02    rms(broyden)= 0.45619E-02
  rms(prec ) = 0.68526E-02
  weight for this iteration     100.00

 eigenvalues of (default mixing * dielectric matrix)
  average eigenvalue GAMMA=   1.4945
  2.6184  2.3593  1.5963  0.9571  0.9571  0.9865  0.9865

 Free energy of the ion-electron system (eV)
  ---------------------------------------------------
  alpha Z        PSCENC =       338.06241684
  Ewald energy   TEWEN  =     -9991.73134594
  -Hartree energ DENC   =     -1698.34477583
  -exchange      EXHF   =         0.00000000
  -V(xc)+E(xc)   XCENC  =       227.39103753
  PAW double counting   =     25674.72515859   -25143.52121156
  entropy T*S    EENTRO =         0.00954543
  eigenvalues    EBANDS =       621.65954997
  atomic energy  EATOM  =      9645.50393724
  Solvation  Ediel_sol  =         0.00000000
  ---------------------------------------------------
  free energy    TOTEN  =      -326.24568773 eV

  energy without entropy =     -326.25523316  energy(sigma->0) =     -326.24807409


--------------------------------------------------------------------------------------------------------




--------------------------------------- Iteration      1(  13)  ---------------------------------------


    POTLOK:  cpu time    0.0494: real time    0.0511
    SETDIJ:  cpu time    0.0071: real time    0.0071
    EDDIAG:  cpu time    0.6362: real time    0.6363
  RMM-DIIS:  cpu time    1.8291: real time    1.8287
    ORTHCH:  cpu time    0.0874: real time    0.0874
       DOS:  cpu time    0.0015: real time    0.0015
    --------------------------------------------
      LOOP:  cpu time    2.6108: real time    2.6121

 eigenvalue-minimisations  :  2003
 total energy-change (2. order) : 0.7153779E-04  (-0.2026135E-04)
 number of electron     247.9999948 magnetization 
 augmentation part       -3.5693927 magnetization 

 Free energy of the ion-electron system (eV)
  ---------------------------------------------------
  alpha Z        PSCENC =       338.06241684
  Ewald energy   TEWEN  =     -9991.73134594
  -Hartree energ DENC   =     -1698.05696746
  -exchange      EXHF   =         0.00000000
  -V(xc)+E(xc)   XCENC  =       227.37439644
  PAW double counting   =     25674.56329083   -25143.35587140
  entropy T*S    EENTRO =         0.00961029
  eigenvalues    EBANDS =       621.38491697
  atomic energy  EATOM  =      9645.50393724
  Solvation  Ediel_sol  =         0.00000000
  ---------------------------------------------------
  free energy    TOTEN  =      -326.24561619 eV

  energy without entropy =     -326.25522648  energy(sigma->0) =     -326.24801876


--------------------------------------------------------------------------------------------------------




 average (electrostatic) potential at core
  the test charge radii are     0.7089  0.9892
  (the norm of the test charge is              1.0000)
       1 -60.0288       2 -60.0288       3 -60.0288       4 -60.0288       5 -59.6261
       6 -59.6261       7 -60.0288       8 -60.0288       9 -60.0288      10 -60.0288
      11 -59.6261      12 -59.6261      13 -60.0288      14 -60.0288      15 -60.0288
      16 -60.0288      17 -59.6261      18 -59.6261      19 -60.0288      20 -60.0288
      21 -60.0288      22 -60.0288      23 -59.6261      24 -59.6261      25 -79.7736
      26 -79.7736      27 -79.7736      28 -79.7736      29 -79.7736      30 -79.7736
      31 -79.7736      32 -79.7736      33 -79.7736      34 -79.7736      35 -79.7736
      36 -79.7736      37 -79.7736      38 -79.7736      39 -79.7736      40 -79.7736
      41 -79.7736      42 -79.7736      43 -79.7736      44 -79.7736      45 -79.7736
      46 -79.7736      47 -79.7736      48 -79.7736      49 -79.7736      50 -79.7736
      51 -79.7736      52 -79.7736      53 -79.7736      54 -79.7736      55 -79.7736
      56 -79.7736
 
 
 
 E-fermi :  11.0382     XC(G=0): -11.8242     alpha+bet :-16.9167


 k-point     1 :       0.0000    0.0000    0.0000
  band No.  band energies     occupation 
      1      -9.1138      2.00000
      2      -7.9750      2.00000
      3      -7.9750      2.00000
      4      -7.9750      2.00000
      5      -7.9750      2.00000
      6      -7.9750      2.00000
      7      -7.9750      2.00000
      8      -7.4948      2.00000
      9      -7.2526      2.00000
     10      -7.2526      2.00000
     11      -7.2526      2.00000
     12      -7.2526      2.00000
     13      -7.2526      2.00000
     14      -7.2526      2.00000
     15      -7.1311      2.00000
     16      -6.0707      2.00000
     17      -6.0707      2.00000
     18      -6.0707      2.00000
     19      -6.0707      2.00000
     20      -6.0707      2.00000
     21      -6.0707      2.00000
     22      -5.9169      2.00000
     23      -5.9169      2.00000
     24      -5.9169      2.00000
     25      -0.4905      2.00000
     26      -0.4214      2.00000
     27      -0.4214      2.00000
     28      -0.4214      2.00000
     29       0.0840      2.00000
     30       0.0840      2.00000
     31       0.0840      2.00000
     32       0.0840      2.00000
     33       0.0840      2.00000
     34       0.0840      2.00000
     35       0.7199      2.00000
     36       0.7199      2.00000
     37       0.7199      2.00000
     38       0.7199      2.00000
     39       0.7199      2.00000
     40       0.7199      2.00000
     41       1.3177      2.00000
     42       1.3177      2.00000
     43       1.3177      2.00000
     44       1.6937      2.00000
     45       1.6937      2.00000
     46       1.6937      2.00000
     47       1.6937      2.00000
     48       1.6937      2.00000
     49       1.6937      2.00000
     50       1.8961      2.00000
     51       1.8961      2.00000
     52       2.1933      2.00000
     53       2.1933      2.00000
     54       2.1933      2.00000
     55       2.1933      2.00000
     56       2.1933      2.00000
     57       2.1933      2.00000
     58       3.3516      2.00000
     59       3.3516      2.00000
     60       3.3516      2.00000
     61       3.3516      2.00000
     62       3.3516      2.00000
     63       3.3516      2.00000
     64       3.5443      2.00000
     65       3.5443      2.00000
     66       3.5443      2.00000
     67       3.5443      2.00000
     68       3.5443      2.00000
     69       3.5443      2.00000
     70       3.5753      2.00000
     71       3.5753      2.00000
     72       3.5753      2.00000
     73       3.5753      2.00000
     74       3.5753      2.00000
     75       3.5753      2.00000
     76       3.8607      2.00000
     77       3.8607      2.00000
     78       3.8607      2.00000
     79       4.2575      2.00000
     80       4.2575      2.00000
     81       4.2575      2.00000
     82       4.2575      2.00000
     83       4.2575      2.00000
     84       4.2575      2.00000
     85       5.5016      2.00000
     86       5.5016      2.00000
     87       5.5016      2.00000
     88       6.1921      2.00000
     89       6.1921      2.00000
     90       6.1921      2.00000
     91       6.1921      2.00000
     92       6.1921      2.00000
     93       6.1921      2.00000
     94       6.4196      2.00000
     95       6.6784      2.00000
     96       6.6784      2.00000
     97       6.6784      2.00000
     98       9.2500      2.00000
     99       9.2500      2.00000
    100       9.2500      2.00000
    101       9.2500      2.00000
    102       9.2500      2.00000
    103       9.2500      2.00000
    104       9.3152      2.00000
    105       9.3152      2.00000
    106       9.3152      2.00000
    107       9.9251      2.00000
    108       9.9251      2.00000
    109       9.9251      2.00000
    110       9.9251      2.00000
    111       9.9251      2.00000
    112       9.9251      2.00000
    113      10.1732      2.00000
    114      10.1732      2.00000
    115      10.1732      2.00000
    116      10.1732      2.00000
    117      10.1732      2.00000
    118      10.1732      2.00000
    119      10.2034      2.00000
    120      10.2034      2.00000
    121      10.2034      2.00000
    122      10.5333      2.00000
    123      10.5333      2.00000
    124      10.5333      2.00000
    125      10.5333      2.00000
    126      10.5333      2.00000
    127      10.5333      2.00000
    128      12.0159      0.00000
    129      12.1223      0.00000
    130      12.1223      0.00000
    131      12.1223      0.00000
    132      12.1223      0.00000
    133      12.1223      0.00000
    134      12.1223      0.00000
    135      12.3048      0.00000
    136      12.3048      0.00000
    137      12.6512      0.00000
    138      12.6512      0.00000
    139      12.6512      0.00000
    140      12.6512      0.00000
    141      12.6512      0.00000
    142      12.6512      0.00000
    143      12.6791      0.00000
    144      12.6791      0.00000
    145      12.6791      0.00000
    146      12.6791      0.00000
    147      12.6791      0.00000
    148      12.6791      0.00000
    149      13.7316      0.00000
    150      13.7317      0.00000
    151      13.7318      0.00000
    152      13.8560      0.00000
    153      13.8600      0.00000
    154      14.0876      0.00000
    155      15.1510      0.00000
    156      15.1692      0.00000

 k-point     2 :       0.2000    0.0000    0.0000
  band No.  band energies     occupation 
      1      -9.0580      2.00000
      2      -8.3056      2.00000
      3      -7.9522      2.00000
      4      -7.9522      2.00000
      5      -7.9522      2.00000
      6      -7.9522      2.00000
      7      -7.7532      2.00000
      8      -7.5136      2.00000
      9      -7.3189      2.00000
     10      -7.3046      2.00000
     11      -7.3046      2.00000
     12      -7.3046      2.00000
     13      -7.3046      2.00000
     14      -7.1558      2.00000
     15      -7.0036      2.00000
     16      -6.0565      2.00000
     17      -6.0565      2.00000
     18      -6.0332      2.00000
     19      -6.0332      2.00000
     20      -6.0332      2.00000
     21      -6.0332      2.00000
     22      -6.0073      2.00000
     23      -5.9321      2.00000
     24      -5.9321      2.00000
     25      -0.3945      2.00000
     26      -0.3945      2.00000
     27      -0.3688      2.00000
     28      -0.2972      2.00000
     29       0.0062      2.00000
     30       0.0062      2.00000
     31       0.1018      2.00000
     32       0.1018      2.00000
     33       0.1018      2.00000
     34       0.1018      2.00000
     35       0.4822      2.00000
     36       0.6562      2.00000
     37       0.6562      2.00000
     38       0.6562      2.00000
     39       0.6562      2.00000
     40       0.8423      2.00000
     41       0.8993      2.00000
     42       1.1473      2.00000
     43       1.4365      2.00000
     44       1.4365      2.00000
     45       1.6723      2.00000
     46       1.6723      2.00000
     47       1.6723      2.00000
     48       1.6723      2.00000
     49       1.9371      2.00000
     50       1.9592      2.00000
     51       2.1605      2.00000
     52       2.1605      2.00000
     53       2.1605      2.00000
     54       2.1605      2.00000
     55       2.2358      2.00000
     56       2.2358      2.00000
     57       2.4907      2.00000
     58       2.8553      2.00000
     59       3.1524      2.00000
     60       3.1524      2.00000
     61       3.1524      2.00000
     62       3.1524      2.00000
     63       3.3700      2.00000
     64       3.3700      2.00000
     65       3.5583      2.00000
     66       3.5583      2.00000
     67       3.5583      2.00000
     68       3.5583      2.00000
     69       3.5763      2.00000
     70       3.8001      2.00000
     71       3.8001      2.00000
     72       3.8292      2.00000
     73       3.8380      2.00000
     74       3.9093      2.00000
     75       3.9994      2.00000
     76       3.9994      2.00000
     77       3.9994      2.00000
     78       3.9994      2.00000
     79       4.2822      2.00000
     80       4.2822      2.00000
     81       4.2822      2.00000
     82       4.2822      2.00000
     83       4.4466      2.00000
     84       4.4466      2.00000
     85       5.3445      2.00000
     86       5.3445      2.00000
     87       5.3653      2.00000
     88       6.0162      2.00000
     89       6.0162      2.00000
     90       6.0162      2.00000
     91       6.0162      2.00000
     92       6.0525      2.00000
     93       6.2174      2.00000
     94       6.2174      2.00000
     95       6.5923      2.00000
     96       6.5923      2.00000
     97       7.1017      2.00000
     98       8.5698      2.00000
     99       9.2121      2.00000
    100       9.3125      2.00000
    101       9.3125      2.00000
    102       9.3125      2.00000
    103       9.3125      2.00000
    104       9.3295      2.00000
    105       9.5743      2.00000
    106       9.5743      2.00000
    107       9.5743      2.00000
    108       9.5743      2.00000
    109       9.6505      2.00000
    110       9.6505      2.00000
    111       9.7816      2.00000
    112       9.8982      2.00000
    113       9.8982      2.00000
    114      10.0859      2.00000
    115      10.0859      2.00000
    116      10.0859      2.00000
    117      10.0859      2.00000
    118      10.1196      2.00000
    119      10.1682      2.00000
    120      10.1682      2.00000
    121      10.7871      1.99598
    122      10.7871      1.99598
    123      10.7884      1.99582
    124      11.0329      1.11024
    125      11.0329      1.11024
    126      11.0329      1.11018
    127      11.0329      1.11018
    128      11.8111      0.00000
    129      11.8111      0.00000
    130      11.8111      0.00000
    131      11.8111      0.00000
    132      12.0633      0.00000
    133      12.2220      0.00000
    134      12.2682      0.00000
    135      12.2936      0.00000
    136      12.3063      0.00000
    137      12.4013      0.00000
    138      12.5131      0.00000
    139      12.5134      0.00000
    140      12.6564      0.00000
    141      12.6565      0.00000
    142      12.6565      0.00000
    143      12.6565      0.00000
    144      13.0108      0.00000
    145      13.0109      0.00000
    146      13.0110      0.00000
    147      13.0111      0.00000
    148      13.2495      0.00000
    149      13.5314      0.00000
    150      13.5437      0.00000
    151      13.6922      0.00000
    152      13.6926      0.00000
    153      14.0238      0.00000
    154      14.4395      0.00000
    155      14.8824      0.00000
    156      14.9253      0.00000

 k-point     3 :       0.4000    0.0000    0.0000
  band No.  band energies     occupation 
      1      -8.8942      2.00000
      2      -8.6342      2.00000
      3      -7.9079      2.00000
      4      -7.9079      2.00000
      5      -7.9079      2.00000
      6      -7.9079      2.00000
      7      -7.6392      2.00000
      8      -7.5642      2.00000
      9      -7.3916      2.00000
     10      -7.3916      2.00000
     11      -7.3916      2.00000
     12      -7.3916      2.00000
     13      -7.2861      2.00000
     14      -7.2176      2.00000
     15      -6.6253      2.00000
     16      -6.2610      2.00000
     17      -6.0190      2.00000
     18      -6.0190      2.00000
     19      -5.9764      2.00000
     20      -5.9764      2.00000
     21      -5.9764      2.00000
     22      -5.9764      2.00000
     23      -5.9714      2.00000
     24      -5.9714      2.00000
     25      -0.3060      2.00000
     26      -0.3060      2.00000
     27      -0.1580      2.00000
     28      -0.1580      2.00000
     29      -0.0195      2.00000
     30       0.0488      2.00000
     31       0.1420      2.00000
     32       0.1420      2.00000
     33       0.1420      2.00000
     34       0.1420      2.00000
     35       0.3865      2.00000
     36       0.5149      2.00000
     37       0.5171      2.00000
     38       0.5211      2.00000
     39       0.5445      2.00000
     40       0.5445      2.00000
     41       0.5446      2.00000
     42       0.5446      2.00000
     43       1.6385      2.00000
     44       1.6385      2.00000
     45       1.6385      2.00000
     46       1.6385      2.00000
     47       1.7498      2.00000
     48       1.7498      2.00000
     49       2.1101      2.00000
     50       2.1101      2.00000
     51       2.1443      2.00000
     52       2.1443      2.00000
     53       2.1443      2.00000
     54       2.1443      2.00000
     55       2.1447      2.00000
     56       2.3456      2.00000
     57       2.4466      2.00000
     58       2.9101      2.00000
     59       2.9101      2.00000
     60       2.9101      2.00000
[...]
    120      10.9293      2.09950
    121      10.9293      2.09950
    122      10.9293      2.09950
    123      10.9521      2.08484
    124      10.9521      2.08484
    125      11.6045      0.00000
    126      11.6045      0.00000
    127      11.6380      0.00000
    128      11.6380      0.00000
    129      11.6380      0.00000
    130      11.7643      0.00000
    131      11.7643      0.00000
    132      11.7643      0.00000
    133      12.4508      0.00000
    134      12.4508      0.00000
    135      12.4508      0.00000
    136      12.8605      0.00000
    137      12.9321      0.00000
    138      12.9321      0.00000
    139      12.9321      0.00000
    140      12.9898      0.00000
    141      12.9898      0.00000
    142      12.9898      0.00000
    143      13.1213      0.00000
    144      13.1213      0.00000
    145      13.2348      0.00000
    146      13.2349      0.00000
    147      13.2349      0.00000
    148      13.3759      0.00000
    149      13.3759      0.00000
    150      13.3762      0.00000
    151      13.4985      0.00000
    152      13.4986      0.00000
    153      13.6691      0.00000
    154      13.7784      0.00000
    155      13.7973      0.00000
    156      13.8608      0.00000


--------------------------------------------------------------------------------------------------------


 soft charge-density along one line, spin component           1
         0         1         2         3         4         5         6         7         8         9
 total charge-density along one line
 
 pseudopotential strength for first ion, spin component:           1
 12.247  14.676   0.000   0.000   0.000   0.000   0.000   0.000
 14.676  17.587   0.000   0.000   0.000   0.000   0.000   0.000
  0.000   0.000  -5.728  -0.003   0.003  -7.597  -0.005   0.005
  0.000   0.000  -0.003  -5.728  -0.003  -0.005  -7.597  -0.005
  0.000   0.000   0.003  -0.003  -5.728   0.005  -0.005  -7.597
  0.000   0.000  -7.597  -0.005   0.005  -9.353  -0.007   0.007
  0.000   0.000  -0.005  -7.597  -0.005  -0.007  -9.353  -0.007
  0.000   0.000   0.005  -0.005  -7.597   0.007  -0.007  -9.353
 total augmentation occupancy for first ion, spin component:           1
  6.160  -3.008   0.000   0.000  -0.000   0.000   0.000  -0.000
 -3.008   2.055   0.000  -0.000   0.000   0.000  -0.000  -0.000
  0.000   0.000   1.899  -0.040   0.040  -0.300   0.003  -0.003
  0.000  -0.000  -0.040   1.899  -0.040   0.003  -0.300   0.003
 -0.000   0.000   0.040  -0.040   1.899  -0.003   0.003  -0.300
 -0.000  -0.000  -0.300   0.003  -0.003   0.059   0.001  -0.001
 -0.000   0.000   0.003  -0.300   0.003   0.001   0.059   0.001
  0.000  -0.000  -0.003   0.003  -0.300  -0.001   0.001   0.059


------------------------ aborting loop because EDIFF is reached ----------------------------------------


    CHARGE:  cpu time    1.0123: real time    1.0114
    FORLOC:  cpu time    0.0236: real time    0.0236
    FORNL :  cpu time    1.2985: real time    1.2984
    STRESS:  cpu time    3.9167: real time    3.9164
    FORCOR:  cpu time    0.0742: real time    0.0742
    FORHAR:  cpu time    0.0338: real time    0.0337
    MIXING:  cpu time    0.0014: real time    0.0014
    OFIELD:  cpu time    0.0000: real time    0.0000

  FORCE on cell =-STRESS in cart. coord.  units (eV):
  Direction    XX          YY          ZZ          XY          YZ          ZX
  --------------------------------------------------------------------------------------
  Alpha Z   338.06242   338.06242   338.06242
  Ewald   -3330.69071 -3330.69071 -3330.69071    -0.00000    -0.00000     0.00000
  Hartree   565.81705   565.81705   565.81705    -0.00000    -0.00000    -0.00000
  E(xc)    -936.29538  -936.29538  -936.29538    -0.00000    -0.00000    -0.00000
  Local    -703.93174  -703.93174  -703.93174    -0.00000    -0.00000    -0.00000
  n-local   963.55268   965.01354   965.14427     1.44172     2.53540     1.19008
  augment  -176.66365  -176.66365  -176.66365     0.00000     0.00000     0.00000
  Kinetic  3324.94509  3338.15477  3356.65482    -4.11456    -4.39346    -2.25761
  Fock        0.00000     0.00000     0.00000     0.00000     0.00000     0.00000
  -------------------------------------------------------------------------------------
  Total      60.78638    60.78638    60.78638     0.00000     0.00000     0.00000
  in kB     168.79952   168.79952   168.79952     0.00000     0.00000     0.00000
  external pressure =      168.80 kB  Pullay stress =        0.00 kB


 VOLUME and BASIS-vectors are now :
 -----------------------------------------------------------------------------
  energy-cutoff  :      400.00
  volume of cell :      576.96
      direct lattice vectors                 reciprocal lattice vectors
     8.324954766  0.000000000  0.000000000     0.120120773 -0.000000000  0.000000000
     0.000000000  8.324954766  0.000000000    -0.000000000  0.120120773  0.000000000
     0.000000000  0.000000000  8.324954766    -0.000000000 -0.000000000  0.120120773

  length of vectors
     8.324954766  8.324954766  8.324954766     0.120120773  0.120120773  0.120120773


 FORCES acting on ions
    electron-ion (+dipol)            ewald-force                    non-local-force                 convergence-correction
 -----------------------------------------------------------------------------------------------
   0.308E-11 0.155E-11 0.906E-12   -.498E-13 -.213E-13 0.406E-13   -.300E-20 0.209E-20 -.140E-20   0.818E-14 -.646E-13 -.492E-12
   -.402E-12 -.348E-12 -.310E-12   0.102E-13 0.272E-13 -.213E-13   -.306E-20 0.115E-20 -.532E-21   -.224E-12 -.499E-12 0.435E-12
   0.864E-13 0.795E-12 0.157E-12   0.533E-14 0.000E+00 0.142E-13   0.528E-21 0.226E-20 -.148E-20   -.340E-12 -.177E-11 -.507E-12
   -.485E-13 -.441E-12 0.426E-12   -.409E-13 -.237E-13 -.289E-13   -.279E-20 0.183E-20 -.193E-20   -.602E-12 -.851E-12 -.159E-11
   0.157E-12 0.316E-12 0.274E-12   -.497E-13 -.133E-13 0.240E-13   -.159E-17 -.199E-17 -.728E-17   0.912E-12 0.255E-12 -.161E-13
   -.614E-13 -.765E-15 0.187E-12   -.249E-13 0.178E-13 -.711E-14   0.827E-17 0.964E-18 0.585E-17   0.722E-12 -.113E-11 0.762E-12
   -.181E-11 0.209E-11 0.893E-12   -.476E-13 -.799E-14 0.231E-13   -.304E-20 0.254E-20 0.266E-21   0.867E-13 -.280E-13 0.158E-11
   -.234E-12 -.694E-12 0.697E-12   -.482E-14 0.330E-13 -.151E-13   -.318E-20 -.275E-22 0.404E-20   -.193E-12 -.367E-12 -.874E-13
   0.710E-12 0.420E-12 0.136E-12   0.888E-14 0.355E-14 0.888E-14   0.351E-20 0.234E-20 -.997E-22   0.266E-12 -.945E-12 -.101E-11
   -.598E-13 0.253E-12 0.131E-11   -.373E-13 0.814E-14 -.916E-14   -.124E-20 -.177E-21 -.179E-20   0.569E-12 -.497E-12 -.675E-12
   0.171E-12 0.123E-12 0.408E-12   -.520E-13 -.577E-14 0.240E-13   -.856E-17 0.172E-17 -.739E-17   0.654E-12 0.743E-12 0.347E-13
   -.614E-13 0.150E-12 0.370E-13   0.711E-14 0.355E-13 0.000E+00   0.347E-17 0.201E-17 0.764E-17   0.161E-13 -.666E-12 0.269E-12
   -.159E-13 0.133E-11 -.865E-12   -.382E-13 -.311E-14 -.319E-14   -.234E-20 0.511E-20 0.157E-20   0.395E-13 -.346E-12 -.327E-12
   0.282E-11 -.334E-12 0.260E-11   0.951E-15 0.142E-13 -.178E-13   -.410E-20 0.177E-20 0.155E-20   0.108E-12 0.104E-13 0.353E-12
   -.510E-13 0.513E-12 0.154E-11   0.533E-14 -.249E-13 0.231E-13   -.129E-20 -.496E-21 -.189E-20   -.459E-12 0.903E-12 0.733E-12
   -.373E-12 0.203E-12 -.117E-11   -.271E-13 -.234E-13 -.360E-14   -.159E-20 -.127E-21 -.125E-20   -.238E-12 0.118E-12 0.185E-11
   0.283E-12 0.293E-11 0.152E-11   -.373E-13 -.266E-14 -.124E-13   -.726E-17 -.108E-17 -.604E-17   0.414E-12 0.590E-12 -.306E-12
   0.377E-13 0.508E-14 0.137E-11   0.187E-13 -.533E-14 -.213E-13   0.317E-17 0.396E-18 0.676E-17   -.540E-12 -.902E-12 -.289E-12
   -.599E-12 -.493E-12 -.300E-12   -.296E-13 -.293E-13 0.859E-14   -.423E-21 0.166E-20 0.256E-20   -.469E-12 0.535E-12 -.482E-12
   -.541E-12 0.312E-11 0.225E-11   -.109E-13 0.125E-13 -.284E-13   -.449E-20 0.391E-20 0.116E-20   0.444E-13 0.659E-12 -.656E-12
   0.204E-13 -.928E-13 0.784E-12   -.213E-13 -.124E-13 -.213E-13   -.741E-21 0.130E-20 -.134E-20   0.437E-12 0.132E-11 0.378E-12
   -.246E-12 -.910E-12 -.443E-12   -.142E-13 -.910E-14 -.716E-14   -.136E-20 0.724E-21 -.252E-20   0.136E-12 0.149E-11 0.343E-12
   0.266E-12 0.601E-12 -.130E-11   -.426E-13 0.107E-13 -.178E-14   -.316E-17 -.136E-17 -.749E-17   0.451E-12 0.362E-12 -.141E-11
   0.343E-13 -.141E-11 -.512E-12   -.213E-13 0.120E-13 0.266E-14   0.800E-17 -.269E-17 0.754E-17   -.153E-11 0.130E-11 0.108E-11
   -.106E+01 -.106E+01 -.106E+01   0.275E+01 0.275E+01 0.275E+01   -.169E+01 -.169E+01 -.169E+01   -.907E-04 -.907E-04 -.907E-04
   0.106E+01 -.106E+01 -.106E+01   -.275E+01 0.275E+01 0.275E+01   0.169E+01 -.169E+01 -.169E+01   0.907E-04 -.907E-04 -.907E-04
   -.106E+01 -.106E+01 0.106E+01   0.275E+01 0.275E+01 -.275E+01   -.169E+01 -.169E+01 0.169E+01   -.907E-04 -.907E-04 0.907E-04
   -.106E+01 0.106E+01 -.106E+01   0.275E+01 -.275E+01 0.275E+01   -.169E+01 0.169E+01 -.169E+01   -.907E-04 0.907E-04 -.907E-04
   0.106E+01 0.106E+01 -.106E+01   -.275E+01 -.275E+01 0.275E+01   0.169E+01 0.169E+01 -.169E+01   0.907E-04 0.907E-04 -.907E-04
   0.106E+01 -.106E+01 0.106E+01   -.275E+01 0.275E+01 -.275E+01   0.169E+01 -.169E+01 0.169E+01   0.907E-04 -.907E-04 0.907E-04
   0.106E+01 0.106E+01 0.106E+01   -.275E+01 -.275E+01 -.275E+01   0.169E+01 0.169E+01 0.169E+01   0.907E-04 0.907E-04 0.907E-04
   -.106E+01 0.106E+01 0.106E+01   0.275E+01 -.275E+01 -.275E+01   -.169E+01 0.169E+01 0.169E+01   -.907E-04 0.907E-04 0.907E-04
   -.106E+01 -.106E+01 -.106E+01   0.275E+01 0.275E+01 0.275E+01   -.169E+01 -.169E+01 -.169E+01   -.907E-04 -.907E-04 -.907E-04
   0.106E+01 -.106E+01 -.106E+01   -.275E+01 0.275E+01 0.275E+01   0.169E+01 -.169E+01 -.169E+01   0.907E-04 -.907E-04 -.907E-04
   -.106E+01 -.106E+01 0.106E+01   0.275E+01 0.275E+01 -.275E+01   -.169E+01 -.169E+01 0.169E+01   -.907E-04 -.907E-04 0.907E-04
   -.106E+01 0.106E+01 -.106E+01   0.275E+01 -.275E+01 0.275E+01   -.169E+01 0.169E+01 -.169E+01   -.907E-04 0.907E-04 -.907E-04
   0.106E+01 0.106E+01 -.106E+01   -.275E+01 -.275E+01 0.275E+01   0.169E+01 0.169E+01 -.169E+01   0.907E-04 0.907E-04 -.907E-04
   0.106E+01 -.106E+01 0.106E+01   -.275E+01 0.275E+01 -.275E+01   0.169E+01 -.169E+01 0.169E+01   0.907E-04 -.907E-04 0.907E-04
   0.106E+01 0.106E+01 0.106E+01   -.275E+01 -.275E+01 -.275E+01   0.169E+01 0.169E+01 0.169E+01   0.907E-04 0.907E-04 0.907E-04
   -.106E+01 0.106E+01 0.106E+01   0.275E+01 -.275E+01 -.275E+01   -.169E+01 0.169E+01 0.169E+01   -.907E-04 0.907E-04 0.907E-04
   -.106E+01 -.106E+01 -.106E+01   0.275E+01 0.275E+01 0.275E+01   -.169E+01 -.169E+01 -.169E+01   -.907E-04 -.907E-04 -.907E-04
   0.106E+01 -.106E+01 -.106E+01   -.275E+01 0.275E+01 0.275E+01   0.169E+01 -.169E+01 -.169E+01   0.907E-04 -.907E-04 -.907E-04
   -.106E+01 -.106E+01 0.106E+01   0.275E+01 0.275E+01 -.275E+01   -.169E+01 -.169E+01 0.169E+01   -.907E-04 -.907E-04 0.907E-04
   -.106E+01 0.106E+01 -.106E+01   0.275E+01 -.275E+01 0.275E+01   -.169E+01 0.169E+01 -.169E+01   -.907E-04 0.907E-04 -.907E-04
   0.106E+01 0.106E+01 -.106E+01   -.275E+01 -.275E+01 0.275E+01   0.169E+01 0.169E+01 -.169E+01   0.907E-04 0.907E-04 -.907E-04
   0.106E+01 -.106E+01 0.106E+01   -.275E+01 0.275E+01 -.275E+01   0.169E+01 -.169E+01 0.169E+01   0.907E-04 -.907E-04 0.907E-04
   0.106E+01 0.106E+01 0.106E+01   -.275E+01 -.275E+01 -.275E+01   0.169E+01 0.169E+01 0.169E+01   0.907E-04 0.907E-04 0.907E-04
   -.106E+01 0.106E+01 0.106E+01   0.275E+01 -.275E+01 -.275E+01   -.169E+01 0.169E+01 0.169E+01   -.907E-04 0.907E-04 0.907E-04
   -.106E+01 -.106E+01 -.106E+01   0.275E+01 0.275E+01 0.275E+01   -.169E+01 -.169E+01 -.169E+01   -.907E-04 -.907E-04 -.907E-04
   0.106E+01 -.106E+01 -.106E+01   -.275E+01 0.275E+01 0.275E+01   0.169E+01 -.169E+01 -.169E+01   0.907E-04 -.907E-04 -.907E-04
   -.106E+01 -.106E+01 0.106E+01   0.275E+01 0.275E+01 -.275E+01   -.169E+01 -.169E+01 0.169E+01   -.907E-04 -.907E-04 0.907E-04
   -.106E+01 0.106E+01 -.106E+01   0.275E+01 -.275E+01 0.275E+01   -.169E+01 0.169E+01 -.169E+01   -.907E-04 0.907E-04 -.907E-04
   0.106E+01 0.106E+01 -.106E+01   -.275E+01 -.275E+01 0.275E+01   0.169E+01 0.169E+01 -.169E+01   0.907E-04 0.907E-04 -.907E-04
   0.106E+01 -.106E+01 0.106E+01   -.275E+01 0.275E+01 -.275E+01   0.169E+01 -.169E+01 0.169E+01   0.907E-04 -.907E-04 0.907E-04
   0.106E+01 0.106E+01 0.106E+01   -.275E+01 -.275E+01 -.275E+01   0.169E+01 0.169E+01 0.169E+01   0.907E-04 0.907E-04 0.907E-04
   -.106E+01 0.106E+01 0.106E+01   0.275E+01 -.275E+01 -.275E+01   -.169E+01 0.169E+01 0.169E+01   -.907E-04 0.907E-04 0.907E-04
 -----------------------------------------------------------------------------------------------
   -.693E-12 0.128E-10 0.117E-10   -.302E-13 -.302E-13 0.711E-14   0.000E+00 -.222E-15 -.222E-15   0.293E-12 0.248E-12 -.215E-13
 
 
 POSITION                                       TOTAL-FORCE (eV/Angst)
 -----------------------------------------------------------------------------------
      7.28434      7.28434      1.04062         0.000000      0.000000      0.000000
      3.12186      1.04062      3.12186         0.000000      0.000000      0.000000
      5.20310      7.28434      3.12186         0.000000      0.000000      0.000000
      1.04062      1.04062      1.04062         0.000000      0.000000      0.000000
      2.08124      6.24372      2.08124         0.000000      0.000000      0.000000
     -0.00000     -0.00000      4.16248         0.000000      0.000000      0.000000
      7.28434      3.12186      5.20310         0.000000      0.000000      0.000000
      3.12186      5.20310      7.28434         0.000000      0.000000      0.000000
      5.20310      3.12186      7.28434         0.000000      0.000000      0.000000
      1.04062      5.20310      5.20310         0.000000      0.000000      0.000000
      2.08124      2.08124      6.24372         0.000000      0.000000      0.000000
      0.00000      4.16248      0.00000         0.000000      0.000000      0.000000
      3.12186      7.28434      5.20310         0.000000      0.000000      0.000000
      7.28434      1.04062      7.28434         0.000000      0.000000      0.000000
      1.04062      7.28434      7.28434         0.000000      0.000000      0.000000
      5.20310      1.04062      5.20310         0.000000      0.000000      0.000000
      6.24372      6.24372      6.24372         0.000000      0.000000      0.000000
      4.16248      0.00000      0.00000         0.000000      0.000000      0.000000
      3.12186      3.12186      1.04062         0.000000      0.000000      0.000000
      7.28434      5.20310      3.12186         0.000000      0.000000      0.000000
      1.04062      3.12186      3.12186         0.000000      0.000000      0.000000
      5.20310      5.20310      1.04062         0.000000      0.000000      0.000000
      6.24372      2.08124      2.08124         0.000000      0.000000      0.000000
      4.16248      4.16248      4.16248         0.000000      0.000000      0.000000
      3.13374      3.13374      3.13374        -0.001297     -0.001297     -0.001297
      7.27246      1.05250      1.05250         0.001297     -0.001297     -0.001297
      5.21497      1.05250      3.10998        -0.001297     -0.001297      0.001297
      1.05250      7.27246      1.05250        -0.001297      0.001297     -0.001297
      1.02874      1.02874      3.13374         0.001297      0.001297     -0.001297
      1.02874      3.13374      1.02874         0.001297     -0.001297      0.001297
      3.10998      7.27246      3.10998         0.001297      0.001297      0.001297
      3.13374      1.02874      1.02874        -0.001297      0.001297      0.001297
      3.13374      7.29621      7.29621        -0.001297     -0.001297     -0.001297
      7.27246      5.21497      5.21497         0.001297     -0.001297     -0.001297
      5.21497      5.21497      7.27246        -0.001297     -0.001297      0.001297
      1.05250      3.10998      5.21497        -0.001297      0.001297     -0.001297
      1.02874      5.19122      7.29621         0.001297      0.001297     -0.001297
      1.02874      7.29621      5.19122         0.001297     -0.001297      0.001297
      3.10998      3.10998      7.27246         0.001297      0.001297      0.001297
      3.13374      5.19122      5.19122        -0.001297      0.001297      0.001297
      7.29621      3.13374      7.29621        -0.001297     -0.001297     -0.001297
      3.10998      1.05250      5.21497         0.001297     -0.001297     -0.001297
      1.05250      1.05250      7.27246        -0.001297     -0.001297      0.001297
      5.21497      7.27246      5.21497        -0.001297      0.001297     -0.001297
      5.19122      1.02874      7.29621         0.001297      0.001297     -0.001297
      5.19122      3.13374      5.19122         0.001297     -0.001297      0.001297
      7.27246      7.27246      7.27246         0.001297      0.001297      0.001297
      7.29621      1.02874      5.19122        -0.001297      0.001297      0.001297
      7.29621      7.29621      3.13374        -0.001297     -0.001297     -0.001297
      3.10998      5.21497      1.05250         0.001297     -0.001297     -0.001297
      1.05250      5.21497      3.10998        -0.001297     -0.001297      0.001297
      5.21497      3.10998      1.05250        -0.001297      0.001297     -0.001297
      5.19122      5.19122      3.13374         0.001297      0.001297     -0.001297
      5.19122      7.29621      1.02874         0.001297     -0.001297      0.001297
      7.27246      3.10998      3.10998         0.001297      0.001297      0.001297
      7.29621      5.19122      1.02874        -0.001297      0.001297      0.001297
 -----------------------------------------------------------------------------------
    total drift:                               -0.000000      0.000000      0.000000


--------------------------------------------------------------------------------------------------------



  FREE ENERGIE OF THE ION-ELECTRON SYSTEM (eV)
  ---------------------------------------------------
  free  energy   TOTEN  =      -326.24770128 eV

  energy  without entropy=     -326.25680268  energy(sigma->0) =     -326.24997663
 
 d Force = 0.2286290E-02[ 0.131E-03, 0.444E-02]  d Energy = 0.2272273E-02 0.140E-04
 d Force =-0.2624158E+00[-0.278E+00,-0.247E+00]  d Ewald  =-0.2624200E+00 0.422E-05


--------------------------------------------------------------------------------------------------------


    POTLOK:  cpu time    0.0567: real time    0.0567


--------------------------------------------------------------------------------------------------------




--------------------------------------------------------------------------------------------------------


  
 reached required accuracy - stopping structural energy minimisation
     LOOP+:  cpu time   18.3863: real time   19.2896
    4ORBIT:  cpu time    0.0000: real time    0.0000

 total amount of memory used by VASP MPI-rank0    67417. kBytes
=======================================================================

   base      :      30000. kBytes
   nonlr-proj:       9914. kBytes
   fftplans  :       3986. kBytes
   grid      :       6277. kBytes
   one-center:         43. kBytes
   wavefun   :      17197. kBytes
 
  
  
 General timing and accounting informations for this job:
 ========================================================
  
                  Total CPU time used (sec):      107.170
                            User time (sec):      106.548
                          System time (sec):        0.622
                         Elapsed time (sec):      108.962
  
                   Maximum memory used (kb):       90288.
                   Average memory used (kb):           0.
  
                          Minor page faults:       125118
                          Major page faults:           10
                 Voluntary context switches:         6664
