<?xml version="1.0" encoding="ISO-8859-1"?>
<modeling>
 <generator>
  <i name="program" type="string">vasp </i>
  <i name="version" type="string">5.4.4.18Apr17-6-g9f103f2a35  </i>
  <i name="subversion" type="string">(build Nov 01 2019 12:17:22) complex            parallel </i>
  <i name="platform" type="string">LinuxIFC </i>
  <i name="date" type="string">2023 05 19 </i>
  <i name="time" type="string">18:21:56 </i>
 </generator>
 <incar>
  <i type="string" name="PREC">accurate</i>
  <i type="string" name="ALGO"> Fast</i>
  <i type="int" name="IBRION">     2</i>
  <i type="int" name="NSW">   100</i>
  <i type="int" name="ISIF">     2</i>
  <i type="string" name="LREAL"> Auto</i>
  <i type="int" name="ISMEAR">     2</i>
  <i name="SIGMA">      0.10000000</i>
  <i type="logical" name="LWAVE"> F  </i>
  <i type="logical" name="LCHARG"> F  </i>
  <v type="int" name="KPOINT_BSE">    -1     0     0     0</v>
 </incar>
 <structure name="primitive_cell" >
  <crystal>
   <varray name="basis" >
    <v>       4.16247738       4.16247738       0.00000000 </v>
    <v>       4.16247738       0.00000000      -4.16247738 </v>
    <v>       0.00000000       4.16247738      -4.16247738 </v>
   </varray>
   <i name="volume">    144.23998083 </i>
   <varray name="rec_basis" >
    <v>       0.12012077       0.12012077       0.12012077 </v>
    <v>       0.12012077      -0.12012077      -0.12012077 </v>
    <v>      -0.12012077       0.12012077      -0.12012077 </v>
   </varray>
  </crystal>
  <varray name="positions" >
   <v>      -0.12500000      -0.12500000      -0.12500000 </v>
   <v>       0.12630293      -0.37890880       0.12630293 </v>
   <v>       0.12630293       0.12630293      -0.37890880 </v>
   <v>      -0.37630293      -0.37630293       0.12890880 </v>
   <v>      -0.37630293       0.12890880      -0.37630293 </v>
   <v>      -0.37890880       0.12630293       0.12630293 </v>
   <v>       0.12890880      -0.37630293      -0.37630293 </v>
   <v>      -0.12500000       0.37500000      -0.12500000 </v>
   <v>      -0.12500000      -0.12500000       0.37500000 </v>
   <v>       0.37500000      -0.12500000      -0.12500000 </v>
   <v>      -0.50000000      -0.50000000      -0.50000000 </v>
   <v>       0.25000000       0.25000000       0.25000000 </v>
   <v>       0.12630293       0.12630293       0.12630293 </v>
   <v>      -0.37630293      -0.37630293      -0.37630293 </v>
  </varray>
 </structure>
 <varray name="primitive_index" >
  <v type="int" >        1 </v>
  <v type="int" >       26 </v>
  <v type="int" >       28 </v>
  <v type="int" >       54 </v>
  <v type="int" >       56 </v>
  <v type="int" >       47 </v>
  <v type="int" >       49 </v>
  <v type="int" >        3 </v>
  <v type="int" >       14 </v>
  <v type="int" >        4 </v>
  <v type="int" >       12 </v>
  <v type="int" >       23 </v>
  <v type="int" >       27 </v>
  <v type="int" >       37 </v>
 </varray>
 <kpoints>
  <generation param="Auto">
   <i name="subdivisionlength">     45.00000000 </i>
   <v type="int" name="divisions">       5        5        5 </v>
   <v name="usershift">      0.00000000       0.00000000       0.00000000 </v>
   <v name="genvec1">      0.20000000       0.00000000       0.00000000 </v>
   <v name="genvec2">      0.00000000       0.20000000       0.00000000 </v>
   <v name="genvec3">      0.00000000      -0.00000000       0.20000000 </v>
   <v name="shift">      0.00000000       0.00000000       0.00000000 </v>
  </generation>
  <varray name="kpointlist" >
   <v>       0.00000000       0.00000000       0.00000000 </v>
   <v>       0.20000000       0.00000000       0.00000000 </v>
   <v>       0.40000000       0.00000000       0.00000000 </v>
   <v>       0.20000000       0.20000000       0.00000000 </v>
   <v>       0.40000000       0.20000000       0.00000000 </v>
   <v>       0.40000000       0.40000000       0.00000000 </v>
   <v>       0.20000000       0.20000000       0.20000000 </v>
   <v>       0.40000000       0.20000000       0.20000000 </v>
   <v>       0.40000000       0.40000000       0.20000000 </v>
   <v>       0.40000000       0.40000000       0.40000000 </v>
  </varray>
  <varray name="weights" >
   <v>       0.00800000 </v>
   <v>       0.04800000 </v>
   <v>       0.04800000 </v>
   <v>       0.09600000 </v>
   <v>       0.19200000 </v>
   <v>       0.09600000 </v>
   <v>       0.06400000 </v>
   <v>       0.19200000 </v>
   <v>       0.19200000 </v>
   <v>       0.06400000 </v>
  </varray>
 </kpoints>
 <parameters>
  <separator name="general" >
   <i type="string" name="SYSTEM">unknown system</i>
   <i type="logical" name="LCOMPAT"> F  </i>
  </separator>
  <separator name="electronic" >
   <i type="string" name="PREC">accura</i>
   <i name="ENMAX">    400.00000000</i>
   <i name="ENAUG">    627.11200000</i>
   <i name="EDIFF">      0.00010000</i>
   <i type="int" name="IALGO">    68</i>
   <i type="int" name="IWAVPR">    11</i>
   <i type="int" name="NBANDS">   156</i>
   <i name="NELECT">    248.00000000</i>
   <i type="int" name="TURBO">     0</i>
   <i type="int" name="IRESTART">     0</i>
   <i type="int" name="NREBOOT">     0</i>
   <i type="int" name="NMIN">     0</i>
   <i name="EREF">      0.00000000</i>
   <separator name="electronic smearing" >
    <i type="int" name="ISMEAR">     2</i>
    <i name="SIGMA">      0.10000000</i>
    <i name="KSPACING">      0.50000000</i>
    <i type="logical" name="KGAMMA"> T  </i>
   </separator>
   <separator name="electronic projectors" >
    <i type="logical" name="LREAL"> T  </i>
    <v name="ROPT">     -0.00025000     -0.00025000</v>
    <i type="int" name="LMAXPAW">  -100</i>
    <i type="int" name="LMAXMIX">     2</i>
    <i type="logical" name="NLSPLINE"> F  </i>
   </separator>
   <separator name="electronic startup" >
    <i type="int" name="ISTART">     0</i>
    <i type="int" name="ICHARG">     2</i>
    <i type="int" name="INIWAV">     1</i>
   </separator>
   <separator name="electronic spin" >
    <i type="int" name="ISPIN">     1</i>
    <i type="logical" name="LNONCOLLINEAR"> F  </i>
    <v name="MAGMOM">      1.00000000      1.00000000      1.00000000      1.00000000      1.00000000      1.00000000      1.00000000      1.00000000      1.00000000      1.00000000      1.00000000      1.00000000      1.00000000      1.00000000      1.00000000      1.00000000      1.00000000      1.00000000      1.00000000      1.00000000
      1.00000000      1.00000000      1.00000000      1.00000000      1.00000000      1.00000000      1.00000000      1.00000000      1.00000000      1.00000000      1.00000000      1.00000000      1.00000000      1.00000000      1.00000000      1.00000000      1.00000000      1.00000000      1.00000000      1.00000000
      1.00000000      1.00000000      1.00000000      1.00000000      1.00000000      1.00000000      1.00000000      1.00000000      1.00000000      1.00000000      1.00000000      1.00000000      1.00000000      1.00000000      1.00000000      1.00000000</v>
    <i name="NUPDOWN">     -1.00000000</i>
    <i type="logical" name="LSORBIT"> F  </i>
    <v name="SAXIS">      0.00000000      0.00000000      1.00000000</v>
    <i type="logical" name="LSPIRAL"> F  </i>
    <v name="QSPIRAL">      0.00000000      0.00000000      0.00000000</v>
    <i type="logical" name="LZEROZ"> F  </i>
   </separator>
   <separator name="electronic exchange-correlation" >
    <i type="logical" name="LASPH"> F  </i>
    <i type="logical" name="LMETAGGA"> F  </i>
   </separator>
   <separator name="electronic convergence" >
    <i type="int" name="NELM">    60</i>
    <i type="int" name="NELMDL">    -5</i>
    <i type="int" name="NELMIN">     2</i>
    <i name="ENINI">    400.00000000</i>
    <separator name="electronic convergence detail" >
     <i type="logical" name="LDIAG"> T  </i>
     <i type="logical" name="LSUBROT"> F  </i>
     <i name="WEIMIN">      0.00100000</i>
     <i name="EBREAK">      0.00000016</i>
     <i name="DEPER">      0.30000000</i>
     <i type="int" name="NRMM">     4</i>
     <i name="TIME">      0.40000000</i>
    </separator>
   </separator>
   <separator name="electronic mixer" >
    <i name="AMIX">      0.40000000</i>
    <i name="BMIX">      1.00000000</i>
    <i name="AMIN">      0.10000000</i>
    <i name="AMIX_MAG">      1.60000000</i>
    <i name="BMIX_MAG">      1.00000000</i>
    <separator name="electronic mixer details" >
     <i type="int" name="IMIX">     4</i>
     <i type="logical" name="MIXFIRST"> F  </i>
     <i type="int" name="MAXMIX">   -45</i>
     <i name="WC">    100.00000000</i>
     <i type="int" name="INIMIX">     1</i>
     <i type="int" name="MIXPRE">     1</i>
     <i type="int" name="MREMOVE">     5</i>
    </separator>
   </separator>
   <separator name="electronic dipolcorrection" >
    <i type="logical" name="LDIPOL"> F  </i>
    <i type="logical" name="LMONO"> F  </i>
    <i type="int" name="IDIPOL">     0</i>
    <i name="EPSILON">      1.00000000</i>
    <v name="DIPOL">   -100.00000000   -100.00000000   -100.00000000</v>
    <i name="EFIELD">      0.00000000</i>
   </separator>
  </separator>
  <separator name="grids" >
   <i type="int" name="NGX">    54</i>
   <i type="int" name="NGY">    54</i>
   <i type="int" name="NGZ">    54</i>
   <i type="int" name="NGXF">   108</i>
   <i type="int" name="NGYF">   108</i>
   <i type="int" name="NGZF">   108</i>
   <i type="logical" name="ADDGRID"> F  </i>
  </separator>
  <separator name="ionic" >
   <i type="int" name="NSW">   100</i>
   <i type="int" name="IBRION">     2</i>
   <i type="int" name="MDALGO">     0</i>
   <i type="int" name="ISIF">     2</i>
   <i name="PSTRESS">      0.00000000</i>
   <i name="EDIFFG">      0.00100000</i>
   <i type="int" name="NFREE">     1</i>
   <i name="POTIM">      0.50000000</i>
   <i name="SMASS">     -3.00000000</i>
   <i name="SCALEE">      1.00000000</i>
  </separator>
  <separator name="ionic md" >
   <i name="TEBEG">      0.00010000</i>
   <i name="TEEND">      0.00010000</i>
   <i type="int" name="NBLOCK">     1</i>
   <i type="int" name="KBLOCK">   100</i>
   <i type="int" name="NPACO">   256</i>
   <i name="APACO">     16.00000000</i>
  </separator>
  <separator name="symmetry" >
   <i type="int" name="ISYM">     2</i>
   <i name="SYMPREC">      0.00001000</i>
  </separator>
  <separator name="dos" >
   <i type="int" name="LORBIT">     0</i>
   <v name="RWIGS">     -1.00000000     -1.00000000</v>
   <i type="int" name="NEDOS">   301</i>
   <i name="EMIN">     10.00000000</i>
   <i name="EMAX">    -10.00000000</i>
   <i name="EFERMI">      0.00000000</i>
  </separator>
  <separator name="writing" >
   <i type="int" name="NWRITE">     2</i>
   <i type="logical" name="LWAVE"> F  </i>
   <i type="logical" name="LDOWNSAMPLE"> F  </i>
   <i type="logical" name="LCHARG"> F  </i>
   <i type="logical" name="LPARD"> F  </i>
   <i type="logical" name="LVTOT"> F  </i>
   <i type="logical" name="LVHAR"> F  </i>
   <i type="logical" name="LELF"> F  </i>
   <i type="logical" name="LOPTICS"> F  </i>
   <v name="STM">      0.00000000      0.00000000      0.00000000      0.00000000      0.00000000      0.00000000      0.00000000</v>
  </separator>
  <separator name="performance" >
   <i type="int" name="NPAR">     4</i>
   <i type="int" name="NSIM">     4</i>
   <i type="int" name="NBLK">    -1</i>
   <i type="logical" name="LPLANE"> T  </i>
   <i type="logical" name="LSCALAPACK"> F  </i>
   <i type="logical" name="LSCAAWARE"> F  </i>
   <i type="logical" name="LSCALU"> F  </i>
   <i type="logical" name="LASYNC"> F  </i>
   <i type="logical" name="LORBITALREAL"> F  </i>
  </separator>
  <separator name="miscellaneous" >
   <i type="int" name="IDIOT">     3</i>
   <i type="int" name="ISPECIAL">     0</i>
   <i type="logical" name="LMUSIC"> F  </i>
   <v name="POMASS">     14.00100000     28.08500000</v>
   <v name="DARWINR">      0.00000000      0.00000000</v>
   <v name="DARWINV">      1.00000000      1.00000000</v>
   <i type="logical" name="LCORR"> T  </i>
  </separator>
  <i type="logical" name="GGA_COMPAT"> T  </i>
  <i type="logical" name="LBERRY"> F  </i>
  <i type="int" name="ICORELEVEL">     0</i>
  <i type="logical" name="LDAU"> F  </i>
  <i type="int" name="I_CONSTRAINED_M">     0</i>
  <separator name="electronic exchange-correlation" >
   <i type="string" name="GGA">--</i>
   <i type="int" name="VOSKOWN">     0</i>
   <i type="logical" name="LHFCALC"> F  </i>
   <i type="string" name="PRECFOCK"></i>
   <i type="logical" name="LSYMGRAD"> F  </i>
   <i type="logical" name="LHFONE"> F  </i>
   <i type="logical" name="LRHFCALC"> F  </i>
   <i type="logical" name="LTHOMAS"> F  </i>
   <i type="logical" name="LMODELHF"> F  </i>
   <i name="ENCUT4O">     -1.00000000</i>
   <i type="int" name="EXXOEP">     0</i>
   <i type="int" name="FOURORBIT">     0</i>
   <i name="AEXX">      0.00000000</i>
   <i name="HFALPHA">      0.00000000</i>
   <i name="MCALPHA">      0.00000000</i>
   <i name="ALDAX">      1.00000000</i>
   <i name="AGGAX">      1.00000000</i>
   <i name="ALDAC">      1.00000000</i>
   <i name="AGGAC">      1.00000000</i>
   <i type="int" name="NKREDX">     1</i>
   <i type="int" name="NKREDY">     1</i>
   <i type="int" name="NKREDZ">     1</i>
   <i type="logical" name="SHIFTRED"> F  </i>
   <i type="logical" name="ODDONLY"> F  </i>
   <i type="logical" name="EVENONLY"> F  </i>
   <i type="int" name="LMAXFOCK">     0</i>
   <i type="int" name="NMAXFOCKAE">     0</i>
   <i type="logical" name="LFOCKAEDFT"> F  </i>
   <i name="HFSCREEN">      0.00000000</i>
   <i name="HFSCREENC">      0.00000000</i>
   <i type="int" name="NBANDSGWLOW">     0</i>
  </separator>
  <separator name="vdW DFT" >
   <i type="logical" name="LUSE_VDW"> F  </i>
   <i name="Zab_VDW">     -0.84910000</i>
   <i name="PARAM1">      0.12340000</i>
   <i name="PARAM2">      1.00000000</i>
   <i name="PARAM3">      0.00000000</i>
  </separator>
  <separator name="model GW" >
   <i type="int" name="MODEL_GW">     0</i>
   <i name="MODEL_EPS0">      6.18171346</i>
   <i name="MODEL_ALPHA">      1.00000000</i>
  </separator>
  <separator name="linear response parameters" >
   <i type="logical" name="LEPSILON"> F  </i>
   <i type="logical" name="LRPA"> F  </i>
   <i type="logical" name="LNABLA"> F  </i>
   <i type="logical" name="LVEL"> F  </i>
   <i type="int" name="KINTER">     0</i>
   <i name="CSHIFT">      0.10000000</i>
   <i name="OMEGAMAX">     -1.00000000</i>
   <i name="DEG_THRESHOLD">      0.00200000</i>
   <i name="RTIME">     -0.10000000</i>
   <i name="WPLASMAI">      0.00000000</i>
   <v name="DFIELD">      0.00000000      0.00000000      0.00000000</v>
   <v name="WPLASMA">      0.00000000      0.00000000      0.00000000      0.00000000      0.00000000      0.00000000      0.00000000      0.00000000      0.00000000</v>
  </separator>
  <separator name="orbital magnetization" >
   <i type="logical" name="NUCIND"> F  </i>
   <v name="MAGPOS">      0.00000000      0.00000000      0.00000000</v>
   <i type="logical" name="LNICSALL"> T  </i>
   <i type="logical" name="ORBITALMAG"> F  </i>
   <i type="logical" name="LMAGBLOCH"> F  </i>
   <i type="logical" name="LCHIMAG"> F  </i>
   <i type="logical" name="LGAUGE"> T  </i>
   <i type="int" name="MAGATOM">     0</i>
   <v name="MAGDIPOL">      0.00000000      0.00000000      0.00000000</v>
   <v name="AVECCONST">      0.00000000      0.00000000      0.00000000</v>
  </separator>
  <separator name="response functions" >
   <i type="logical" name="LADDER"> F  </i>
   <i type="logical" name="LRPAFORCE"> F  </i>
   <i type="logical" name="LFXC"> F  </i>
   <i type="logical" name="LHARTREE"> T  </i>
   <i type="int" name="IBSE">     0</i>
   <v type="int" name="KPOINT">    -1     0     0     0</v>
   <i type="logical" name="LTCTE"> F  </i>
   <i type="logical" name="LTETE"> F  </i>
   <i type="logical" name="LTRIPLET"> F  </i>
   <i type="logical" name="LFXCEPS"> F  </i>
   <i type="logical" name="LFXHEG"> F  </i>
   <i type="int" name="NATURALO">     2</i>
   <i type="logical" name="L2ORDER"> F  </i>
   <i type="logical" name="LMP2LT"> F  </i>
   <i type="logical" name="LUSEW"> F  </i>
   <i name="ENCUTGW">     -2.00000000</i>
   <i name="ENCUTGWSOFT">     -2.00000000</i>
   <i name="ENCUTLF">     -1.00000000</i>
   <i type="int" name="LMAXMP2">    -1</i>
   <i name="SCISSOR">      0.00000000</i>
   <i type="int" name="NOMEGA">     0</i>
   <i type="int" name="NOMEGAR">     0</i>
   <i type="int" name="NBANDSGW">    -1</i>
   <i type="int" name="NBANDSO">    -1</i>
   <i type="int" name="NBANDSV">    -1</i>
   <i type="int" name="NELM">     1</i>
   <i type="int" name="NELMHF">     1</i>
   <i type="int" name="DIM">     3</i>
   <i type="int" name="ANTIRES">     0</i>
   <i name="OMEGAMAX">    -30.00000000</i>
   <i name="OMEGAMIN">    -30.00000000</i>
   <i name="OMEGATL">   -200.00000000</i>
   <i type="int" name="OMEGAGRID">   140</i>
   <i name="CSHIFT">     -0.10000000</i>
   <i type="logical" name="SELFENERGY"> F  </i>
   <i type="logical" name="LSPECTRAL"> F  </i>
   <i type="logical" name="LSPECTRALGW"> F  </i>
   <i type="logical" name="LSINGLES"> F  </i>
   <i type="logical" name="LFERMIGW"> F  </i>
   <i type="logical" name="ODDONLYGW"> F  </i>
   <i type="logical" name="EVENONLYGW"> F  </i>
   <i type="int" name="NKREDLFX">     1</i>
   <i type="int" name="NKREDLFY">     1</i>
   <i type="int" name="NKREDLFZ">     1</i>
   <i type="int" name="MAXMEM">  2800</i>
   <i type="int" name="TELESCOPE">     0</i>
   <i type="int" name="TAUPAR">     1</i>
   <i type="int" name="OMEGAPAR">    -1</i>
   <i name="LAMBDA">      1.00000000</i>
  </separator>
  <separator name="External order field" >
   <i name="OFIELD_KAPPA">      0.00000000</i>
   <v name="OFIELD_K">      0.00000000      0.00000000      0.00000000</v>
   <i name="OFIELD_Q6_NEAR">      0.00000000</i>
   <i name="OFIELD_Q6_FAR">      0.00000000</i>
   <i name="OFIELD_A">      0.00000000</i>
  </separator>
 </parameters>
 <atominfo>
  <atoms>      56 </atoms>
  <types>       2 </types>
  <array name="atoms" >
   <dimension dim="1">ion</dimension>
   <field type="string">element</field>
   <field type="int">atomtype</field>
   <set>
    <rc><c>N </c><c>   1</c></rc>
    <rc><c>N </c><c>   1</c></rc>
    <rc><c>N </c><c>   1</c></rc>
    <rc><c>N </c><c>   1</c></rc>
    <rc><c>N </c><c>   1</c></rc>
    <rc><c>N </c><c>   1</c></rc>
    <rc><c>N </c><c>   1</c></rc>
    <rc><c>N </c><c>   1</c></rc>
    <rc><c>N </c><c>   1</c></rc>
    <rc><c>N </c><c>   1</c></rc>
    <rc><c>N </c><c>   1</c></rc>
    <rc><c>N </c><c>   1</c></rc>
    <rc><c>N </c><c>   1</c></rc>
    <rc><c>N </c><c>   1</c></rc>
    <rc><c>N </c><c>   1</c></rc>
    <rc><c>N </c><c>   1</c></rc>
    <rc><c>N </c><c>   1</c></rc>
    <rc><c>N </c><c>   1</c></rc>
    <rc><c>N </c><c>   1</c></rc>
    <rc><c>N </c><c>   1</c></rc>
    <rc><c>N </c><c>   1</c></rc>
    <rc><c>N </c><c>   1</c></rc>
    <rc><c>N </c><c>   1</c></rc>
    <rc><c>N </c><c>   1</c></rc>
    <rc><c>Si</c><c>   2</c></rc>
    <rc><c>Si</c><c>   2</c></rc>
    <rc><c>Si</c><c>   2</c></rc>
    <rc><c>Si</c><c>   2</c></rc>
    <rc><c>Si</c><c>   2</c></rc>
    <rc><c>Si</c><c>   2</c></rc>
    <rc><c>Si</c><c>   2</c></rc>
    <rc><c>Si</c><c>   2</c></rc>
    <rc><c>Si</c><c>   2</c></rc>
    <rc><c>Si</c><c>   2</c></rc>
    <rc><c>Si</c><c>   2</c></rc>
    <rc><c>Si</c><c>   2</c></rc>
    <rc><c>Si</c><c>   2</c></rc>
    <rc><c>Si</c><c>   2</c></rc>
    <rc><c>Si</c><c>   2</c></rc>
    <rc><c>Si</c><c>   2</c></rc>
    <rc><c>Si</c><c>   2</c></rc>
    <rc><c>Si</c><c>   2</c></rc>
    <rc><c>Si</c><c>   2</c></rc>
    <rc><c>Si</c><c>   2</c></rc>
    <rc><c>Si</c><c>   2</c></rc>
    <rc><c>Si</c><c>   2</c></rc>
    <rc><c>Si</c><c>   2</c></rc>
    <rc><c>Si</c><c>   2</c></rc>
    <rc><c>Si</c><c>   2</c></rc>
    <rc><c>Si</c><c>   2</c></rc>
    <rc><c>Si</c><c>   2</c></rc>
    <rc><c>Si</c><c>   2</c></rc>
    <rc><c>Si</c><c>   2</c></rc>
    <rc><c>Si</c><c>   2</c></rc>
    <rc><c>Si</c><c>   2</c></rc>
    <rc><c>Si</c><c>   2</c></rc>
   </set>
  </array>
  <array name="atomtypes" >
   <dimension dim="1">type</dimension>
   <field type="int">atomspertype</field>
   <field type="string">element</field>
   <field>mass</field>
   <field>valence</field>
   <field type="string">pseudopotential</field>
   <set>
    <rc><c>  24</c><c>N </c><c>     14.00100000</c><c>      5.00000000</c><c>  PAW_PBE N 08Apr2002                   </c></rc>
    <rc><c>  32</c><c>Si</c><c>     28.08500000</c><c>      4.00000000</c><c>  PAW_PBE Si 05Jan2001                  </c></rc>
   </set>
  </array>
 </atominfo>
 <structure name="initialpos" >
  <crystal>
   <varray name="basis" >
    <v>       8.32495477       0.00000000       0.00000000 </v>
    <v>       0.00000000       8.32495477       0.00000000 </v>
    <v>       0.00000000       0.00000000       8.32495477 </v>
   </varray>
   <i name="volume">    576.95992333 </i>
   <varray name="rec_basis" >
    <v>       0.12012077      -0.00000000       0.00000000 </v>
    <v>      -0.00000000       0.12012077       0.00000000 </v>
    <v>      -0.00000000      -0.00000000       0.12012077 </v>
   </varray>
  </crystal>
  <varray name="positions" >
   <v>       0.87500000       0.87500000       0.12500000 </v>
   <v>       0.37500000       0.12500000       0.37500000 </v>
   <v>       0.62500000       0.87500000       0.37500000 </v>
   <v>       0.12500000       0.12500000       0.12500000 </v>
   <v>       0.25000000       0.75000000       0.25000000 </v>
   <v>       0.00000000       0.00000000       0.50000000 </v>
   <v>       0.87500000       0.37500000       0.62500000 </v>
   <v>       0.37500000       0.62500000       0.87500000 </v>
   <v>       0.62500000       0.37500000       0.87500000 </v>
   <v>       0.12500000       0.62500000       0.62500000 </v>
   <v>       0.25000000       0.25000000       0.75000000 </v>
   <v>       0.00000000       0.50000000       0.00000000 </v>
   <v>       0.37500000       0.87500000       0.62500000 </v>
   <v>       0.87500000       0.12500000       0.87500000 </v>
   <v>       0.12500000       0.87500000       0.87500000 </v>
   <v>       0.62500000       0.12500000       0.62500000 </v>
   <v>       0.75000000       0.75000000       0.75000000 </v>
   <v>       0.50000000       0.00000000       0.00000000 </v>
   <v>       0.37500000       0.37500000       0.12500000 </v>
   <v>       0.87500000       0.62500000       0.37500000 </v>
   <v>       0.12500000       0.37500000       0.37500000 </v>
   <v>       0.62500000       0.62500000       0.12500000 </v>
   <v>       0.75000000       0.25000000       0.25000000 </v>
   <v>       0.50000000       0.50000000       0.50000000 </v>
   <v>       0.37630293       0.37630293       0.37630293 </v>
   <v>       0.87369707       0.12630293       0.12630293 </v>
   <v>       0.62630293       0.12630293       0.37369707 </v>
   <v>       0.12630293       0.87369707       0.12630293 </v>
   <v>       0.12369707       0.12369707       0.37630293 </v>
   <v>       0.12369707       0.37630293       0.12369707 </v>
   <v>       0.37369707       0.87369707       0.37369707 </v>
   <v>       0.37630293       0.12369707       0.12369707 </v>
   <v>       0.37630293       0.87630293       0.87630293 </v>
   <v>       0.87369707       0.62630293       0.62630293 </v>
   <v>       0.62630293       0.62630293       0.87369707 </v>
   <v>       0.12630293       0.37369707       0.62630293 </v>
   <v>       0.12369707       0.62369707       0.87630293 </v>
   <v>       0.12369707       0.87630293       0.62369707 </v>
   <v>       0.37369707       0.37369707       0.87369707 </v>
   <v>       0.37630293       0.62369707       0.62369707 </v>
   <v>       0.87630293       0.37630293       0.87630293 </v>
   <v>       0.37369707       0.12630293       0.62630293 </v>
   <v>       0.12630293       0.12630293       0.87369707 </v>
   <v>       0.62630293       0.87369707       0.62630293 </v>
   <v>       0.62369707       0.12369707       0.87630293 </v>
   <v>       0.62369707       0.37630293       0.62369707 </v>
   <v>       0.87369707       0.87369707       0.87369707 </v>
   <v>       0.87630293       0.12369707       0.62369707 </v>
   <v>       0.87630293       0.87630293       0.37630293 </v>
   <v>       0.37369707       0.62630293       0.12630293 </v>
   <v>       0.12630293       0.62630293       0.37369707 </v>
   <v>       0.62630293       0.37369707       0.12630293 </v>
   <v>       0.62369707       0.62369707       0.37630293 </v>
   <v>       0.62369707       0.87630293       0.12369707 </v>
   <v>       0.87369707       0.37369707       0.37369707 </v>
   <v>       0.87630293       0.62369707       0.12369707 </v>
  </varray>
 </structure>
 <calculation>
  <scstep>
   <time name="dav">    5.25    5.25</time>
   <time name="total">    5.92    5.92</time>
   <energy>
    <i name="alphaZ">    338.06241684 </i>
    <i name="ewald">  -9991.73134594 </i>
    <i name="hartreedc">  -1451.23552589 </i>
    <i name="XCdc">    209.07184505 </i>
    <i name="pawpsdc">   7738.34714636 </i>
    <i name="pawaedc">  -7203.94574617 </i>
    <i name="eentropy">      0.00510393 </i>
    <i name="bandstr">   1600.61064736 </i>
    <i name="atom">   9645.50393724 </i>
    <i name="e_fr_energy">    884.68847879 </i>
    <i name="e_wo_entrp">    884.68337486 </i>
    <i name="e_0_energy">    884.68720280 </i>
   </energy>
  </scstep>
  <scstep>
   <time name="dav">    6.02    6.02</time>
   <time name="total">    6.02    6.02</time>
   <energy>
    <i name="e_fr_energy">   -251.96138077 </i>
    <i name="e_wo_entrp">   -251.96437822 </i>
    <i name="e_0_energy">   -251.96213013 </i>
   </energy>
  </scstep>
  <scstep>
   <time name="dav">    5.16    5.16</time>
   <time name="total">    5.16    5.16</time>
   <energy>
    <i name="e_fr_energy">   -351.35739756 </i>
    <i name="e_wo_entrp">   -351.35617958 </i>
    <i name="e_0_energy">   -351.35709307 </i>
   </energy>
  </scstep>
  <scstep>
   <time name="dav">    5.20    5.20</time>
   <time name="total">    5.20    5.20</time>
   <energy>
    <i name="e_fr_energy">   -354.74791780 </i>
    <i name="e_wo_entrp">   -354.74539082 </i>
    <i name="e_0_energy">   -354.74728606 </i>
   </energy>
  </scstep>
  <scstep>
   <time name="dav">    5.09    5.09</time>
   <time name="total">    5.37    5.37</time>
   <energy>
    <i name="e_fr_energy">   -354.84935819 </i>
    <i name="e_wo_entrp">   -354.84674187 </i>
    <i name="e_0_energy">   -354.84870411 </i>
   </energy>
  </scstep>
  <scstep>
   <time name="diag">    0.65    0.65</time>
   <time name="diis">    2.62    2.62</time>
   <time name="orth">    0.09    0.09</time>
   <time name="total">    3.90    3.90</time>
   <energy>
    <i name="e_fr_energy">   -326.88934618 </i>
    <i name="e_wo_entrp">   -326.89501888 </i>
    <i name="e_0_energy">   -326.89076436 </i>
   </energy>
  </scstep>
  <scstep>
   <time name="diag">    0.65    0.65</time>
   <time name="diis">    2.79    2.79</time>
   <time name="orth">    0.09    0.09</time>
   <time name="total">    3.86    3.86</time>
   <energy>
    <i name="e_fr_energy">   -326.47736810 </i>
    <i name="e_wo_entrp">   -326.48441316 </i>
    <i name="e_0_energy">   -326.47912936 </i>
   </energy>
  </scstep>
  <scstep>
   <time name="diag">    0.64    0.64</time>
   <time name="diis">    2.67    2.66</time>
   <time name="orth">    0.09    0.09</time>
   <time name="total">    3.73    3.73</time>
   <energy>
    <i name="e_fr_energy">   -326.36968925 </i>
    <i name="e_wo_entrp">   -326.38185589 </i>
    <i name="e_0_energy">   -326.37273091 </i>
   </energy>
  </scstep>
  <scstep>
   <time name="diag">    0.64    0.64</time>
   <time name="diis">    2.76    2.76</time>
   <time name="orth">    0.09    0.09</time>
   <time name="total">    3.83    3.83</time>
   <energy>
    <i name="e_fr_energy">   -326.25328465 </i>
    <i name="e_wo_entrp">   -326.26368019 </i>
    <i name="e_0_energy">   -326.25588354 </i>
   </energy>
  </scstep>
  <scstep>
   <time name="diag">    0.65    0.65</time>
   <time name="diis">    3.32    3.32</time>
   <time name="orth">    0.09    0.09</time>
   <time name="total">    4.39    4.39</time>
   <energy>
    <i name="e_fr_energy">   -326.24513557 </i>
    <i name="e_wo_entrp">   -326.25464015 </i>
    <i name="e_0_energy">   -326.24751172 </i>
   </energy>
  </scstep>
  <scstep>
   <time name="diag">    0.64    0.64</time>
   <time name="diis">    2.74    2.74</time>
   <time name="orth">    0.09    0.09</time>
   <time name="total">    3.83    3.86</time>
   <energy>
    <i name="e_fr_energy">   -326.24579788 </i>
    <i name="e_wo_entrp">   -326.25553639 </i>
    <i name="e_0_energy">   -326.24823250 </i>
   </energy>
  </scstep>
  <scstep>
   <time name="diag">    0.64    0.64</time>
   <time name="diis">    2.78    2.78</time>
   <time name="orth">    0.09    0.09</time>
   <time name="total">    3.85    3.84</time>
   <energy>
    <i name="e_fr_energy">   -326.24568773 </i>
    <i name="e_wo_entrp">   -326.25523316 </i>
    <i name="e_0_energy">   -326.24807409 </i>
   </energy>
  </scstep>
  <scstep>
   <time name="diag">    0.64    0.64</time>
   <time name="diis">    1.83    1.83</time>
   <time name="orth">    0.09    0.09</time>
   <time name="total">    2.61    2.61</time>
   <energy>
    <i name="alphaZ">    338.06241684 </i>
    <i name="ewald">  -9991.73134594 </i>
    <i name="hartreedc">  -1698.05696746 </i>
    <i name="XCdc">    227.37439644 </i>
    <i name="pawpsdc">  25674.56329083 </i>
    <i name="pawaedc"> -25143.35587140 </i>
    <i name="eentropy">      0.00961029 </i>
    <i name="bandstr">    621.38491697 </i>
    <i name="atom">   9645.50393724 </i>
    <i name="e_fr_energy">   -326.24561619 </i>
    <i name="e_wo_entrp">   -326.25522648 </i>
    <i name="e_0_energy">   -326.24801876 </i>
   </energy>
  </scstep>
  <structure>
   <crystal>
    <varray name="basis" >
     <v>       8.32495477       0.00000000       0.00000000 </v>
     <v>       0.00000000       8.32495477       0.00000000 </v>
     <v>       0.00000000       0.00000000       8.32495477 </v>
    </varray>
    <i name="volume">    576.95992333 </i>
    <varray name="rec_basis" >
     <v>       0.12012077      -0.00000000       0.00000000 </v>
     <v>      -0.00000000       0.12012077       0.00000000 </v>
     <v>      -0.00000000      -0.00000000       0.12012077 </v>
    </varray>
   </crystal>
   <varray name="positions" >
    <v>       0.87500000       0.87500000       0.12500000 </v>
    <v>       0.37500000       0.12500000       0.37500000 </v>
    <v>       0.62500000       0.87500000       0.37500000 </v>
    <v>       0.12500000       0.12500000       0.12500000 </v>
    <v>       0.25000000       0.75000000       0.25000000 </v>
    <v>       0.00000000       0.00000000       0.50000000 </v>
    <v>       0.87500000       0.37500000       0.62500000 </v>
    <v>       0.37500000       0.62500000       0.87500000 </v>
    <v>       0.62500000       0.37500000       0.87500000 </v>
    <v>       0.12500000       0.62500000       0.62500000 </v>
    <v>       0.25000000       0.25000000       0.75000000 </v>
    <v>       0.00000000       0.50000000       0.00000000 </v>
    <v>       0.37500000       0.87500000       0.62500000 </v>
    <v>       0.87500000       0.12500000       0.87500000 </v>
    <v>       0.12500000       0.87500000       0.87500000 </v>
    <v>       0.62500000       0.12500000       0.62500000 </v>
    <v>       0.75000000       0.75000000       0.75000000 </v>
    <v>       0.50000000       0.00000000       0.00000000 </v>
    <v>       0.37500000       0.37500000       0.12500000 </v>
    <v>       0.87500000       0.62500000       0.37500000 </v>
    <v>       0.12500000       0.37500000       0.37500000 </v>
    <v>       0.62500000       0.62500000       0.12500000 </v>
    <v>       0.75000000       0.25000000       0.25000000 </v>
    <v>       0.50000000       0.50000000       0.50000000 </v>
    <v>       0.37630293       0.37630293       0.37630293 </v>
    <v>       0.87369707       0.12630293       0.12630293 </v>
    <v>       0.62630293       0.12630293       0.37369707 </v>
    <v>       0.12630293       0.87369707       0.12630293 </v>
    <v>       0.12369707       0.12369707       0.37630293 </v>
    <v>       0.12369707       0.37630293       0.12369707 </v>
    <v>       0.37369707       0.87369707       0.37369707 </v>
    <v>       0.37630293       0.12369707       0.12369707 </v>
    <v>       0.37630293       0.87630293       0.87630293 </v>
    <v>       0.87369707       0.62630293       0.62630293 </v>
    <v>       0.62630293       0.62630293       0.87369707 </v>
    <v>       0.12630293       0.37369707       0.62630293 </v>
    <v>       0.12369707       0.62369707       0.87630293 </v>
    <v>       0.12369707       0.87630293       0.62369707 </v>
    <v>       0.37369707       0.37369707       0.87369707 </v>
    <v>       0.37630293       0.62369707       0.62369707 </v>
    <v>       0.87630293       0.37630293       0.87630293 </v>
    <v>       0.37369707       0.12630293       0.62630293 </v>
    <v>       0.12630293       0.12630293       0.87369707 </v>
    <v>       0.62630293       0.87369707       0.62630293 </v>
    <v>       0.62369707       0.12369707       0.87630293 </v>
    <v>       0.62369707       0.37630293       0.62369707 </v>
    <v>       0.87369707       0.87369707       0.87369707 </v>
    <v>       0.87630293       0.12369707       0.62369707 </v>
    <v>       0.87630293       0.87630293       0.37630293 </v>
    <v>       0.37369707       0.62630293       0.12630293 </v>
    <v>       0.12630293       0.62630293       0.37369707 </v>
    <v>       0.62630293       0.37369707       0.12630293 </v>
    <v>       0.62369707       0.62369707       0.37630293 </v>
    <v>       0.62369707       0.87630293       0.12369707 </v>
    <v>       0.87369707       0.37369707       0.37369707 </v>
    <v>       0.87630293       0.62369707       0.12369707 </v>
   </varray>
  </structure>
  <varray name="forces" >
   <v>      -0.00000000      -0.00000000      -0.00000000 </v>
   <v>      -0.00000000      -0.00000000      -0.00000000 </v>
   <v>      -0.00000000      -0.00000000      -0.00000000 </v>
   <v>      -0.00000000      -0.00000000      -0.00000000 </v>
   <v>      -0.00000000      -0.00000000      -0.00000000 </v>
   <v>      -0.00000000      -0.00000000      -0.00000000 </v>
   <v>      -0.00000000      -0.00000000      -0.00000000 </v>
   <v>      -0.00000000      -0.00000000      -0.00000000 </v>
   <v>      -0.00000000      -0.00000000      -0.00000000 </v>
   <v>      -0.00000000      -0.00000000      -0.00000000 </v>
   <v>      -0.00000000      -0.00000000      -0.00000000 </v>
   <v>      -0.00000000      -0.00000000      -0.00000000 </v>
   <v>      -0.00000000      -0.00000000      -0.00000000 </v>
   <v>      -0.00000000      -0.00000000      -0.00000000 </v>
   <v>      -0.00000000      -0.00000000      -0.00000000 </v>
   <v>      -0.00000000      -0.00000000      -0.00000000 </v>
   <v>      -0.00000000      -0.00000000      -0.00000000 </v>
   <v>      -0.00000000      -0.00000000      -0.00000000 </v>
   <v>      -0.00000000      -0.00000000      -0.00000000 </v>
   <v>      -0.00000000      -0.00000000      -0.00000000 </v>
   <v>      -0.00000000      -0.00000000      -0.00000000 </v>
   <v>      -0.00000000      -0.00000000      -0.00000000 </v>
   <v>      -0.00000000      -0.00000000      -0.00000000 </v>
   <v>      -0.00000000      -0.00000000      -0.00000000 </v>
   <v>       0.04314173       0.04314173       0.04314173 </v>
   <v>      -0.04314173       0.04314173       0.04314173 </v>
   <v>       0.04314173       0.04314173      -0.04314173 </v>
   <v>       0.04314173      -0.04314173       0.04314173 </v>
   <v>      -0.04314173      -0.04314173       0.04314173 </v>
   <v>      -0.04314173       0.04314173      -0.04314173 </v>
   <v>      -0.04314173      -0.04314173      -0.04314173 </v>
   <v>       0.04314173      -0.04314173      -0.04314173 </v>
   <v>       0.04314173       0.04314173       0.04314173 </v>
   <v>      -0.04314173       0.04314173       0.04314173 </v>
   <v>       0.04314173       0.04314173      -0.04314173 </v>
   <v>       0.04314173      -0.04314173       0.04314173 </v>
   <v>      -0.04314173      -0.04314173       0.04314173 </v>
   <v>      -0.04314173       0.04314173      -0.04314173 </v>
   <v>      -0.04314173      -0.04314173      -0.04314173 </v>
   <v>       0.04314173      -0.04314173      -0.04314173 </v>
   <v>       0.04314173       0.04314173       0.04314173 </v>
   <v>      -0.04314173       0.04314173       0.04314173 </v>
   <v>       0.04314173       0.04314173      -0.04314173 </v>
   <v>       0.04314173      -0.04314173       0.04314173 </v>
   <v>      -0.04314173      -0.04314173       0.04314173 </v>
   <v>      -0.04314173       0.04314173      -0.04314173 </v>
   <v>      -0.04314173      -0.04314173      -0.04314173 </v>
   <v>       0.04314173      -0.04314173      -0.04314173 </v>
   <v>       0.04314173       0.04314173       0.04314173 </v>
   <v>      -0.04314173       0.04314173       0.04314173 </v>
   <v>       0.04314173       0.04314173      -0.04314173 </v>
   <v>       0.04314173      -0.04314173       0.04314173 </v>
   <v>      -0.04314173      -0.04314173       0.04314173 </v>
   <v>      -0.04314173       0.04314173      -0.04314173 </v>
   <v>      -0.04314173      -0.04314173      -0.04314173 </v>
   <v>       0.04314173      -0.04314173      -0.04314173 </v>
  </varray>
  <varray name="stress" >
   <v>     168.76154478       0.00000000       0.00000000 </v>
   <v>       0.00000000     168.76154478       0.00000000 </v>
   <v>       0.00000000       0.00000000     168.76154478 </v>
  </varray>
  <energy>
   <i name="e_fr_energy">   -326.24561619 </i>
   <i name="e_wo_entrp">   -326.24801876 </i>
   <i name="e_0_energy">      0.00961029 </i>
  </energy>
  <time name="totalsc">   63.92   63.97</time>
 </calculation>
 <calculation>
  <scstep>
   <time name="dav">    5.03    5.03</time>
   <time name="total">    5.38    5.38</time>
   <energy>
    <i name="alphaZ">    338.06241684 </i>
    <i name="ewald">  -9992.28040965 </i>
    <i name="hartreedc">  -1696.65931748 </i>
    <i name="XCdc">    227.35711038 </i>
    <i name="pawpsdc">  25669.13584657 </i>
    <i name="pawaedc"> -25137.92788577 </i>
    <i name="eentropy">      0.00856387 </i>
    <i name="bandstr">    620.55513553 </i>
    <i name="atom">   9645.50393724 </i>
    <i name="e_fr_energy">   -326.24460247 </i>
    <i name="e_wo_entrp">   -326.25316634 </i>
    <i name="e_0_energy">   -326.24674343 </i>
   </energy>
  </scstep>
  <scstep>
   <time name="diag">    0.64    0.64</time>
   <time name="diis">    2.69    2.69</time>
   <time name="orth">    0.09    0.09</time>
   <time name="total">    3.76    3.76</time>
   <energy>
    <i name="e_fr_energy">   -326.24565673 </i>
    <i name="e_wo_entrp">   -326.25412208 </i>
    <i name="e_0_energy">   -326.24777307 </i>
   </energy>
  </scstep>
  <scstep>
   <time name="diag">    0.64    0.64</time>
   <time name="diis">    2.22    2.22</time>
   <time name="orth">    0.09    0.09</time>
   <time name="total">    3.29    3.29</time>
   <energy>
    <i name="e_fr_energy">   -326.24549456 </i>
    <i name="e_wo_entrp">   -326.25397570 </i>
    <i name="e_0_energy">   -326.24761485 </i>
   </energy>
  </scstep>
  <scstep>
   <time name="diag">    0.63    0.63</time>
   <time name="diis">    2.20    2.20</time>
   <time name="orth">    0.08    0.08</time>
   <time name="total">    2.97    2.97</time>
   <energy>
    <i name="alphaZ">    338.06241684 </i>
    <i name="ewald">  -9992.28040965 </i>
    <i name="hartreedc">  -1697.04886564 </i>
    <i name="XCdc">    227.38428227 </i>
    <i name="pawpsdc">  25703.43065986 </i>
    <i name="pawaedc"> -25172.23513913 </i>
    <i name="eentropy">      0.00853984 </i>
    <i name="bandstr">    620.92914936 </i>
    <i name="atom">   9645.50393724 </i>
    <i name="e_fr_energy">   -326.24542901 </i>
    <i name="e_wo_entrp">   -326.25396885 </i>
    <i name="e_0_energy">   -326.24756397 </i>
   </energy>
  </scstep>
  <structure>
   <crystal>
    <varray name="basis" >
     <v>       8.32495477       0.00000000       0.00000000 </v>
     <v>       0.00000000       8.32495477       0.00000000 </v>
     <v>       0.00000000       0.00000000       8.32495477 </v>
    </varray>
    <i name="volume">    576.95992333 </i>
    <varray name="rec_basis" >
     <v>       0.12012077      -0.00000000       0.00000000 </v>
     <v>      -0.00000000       0.12012077       0.00000000 </v>
     <v>      -0.00000000      -0.00000000       0.12012077 </v>
    </varray>
   </crystal>
   <varray name="positions" >
    <v>       0.87500000       0.87500000       0.12500000 </v>
    <v>       0.37500000       0.12500000       0.37500000 </v>
    <v>       0.62500000       0.87500000       0.37500000 </v>
    <v>       0.12500000       0.12500000       0.12500000 </v>
    <v>       0.25000000       0.75000000       0.25000000 </v>
    <v>      -0.00000000      -0.00000000       0.50000000 </v>
    <v>       0.87500000       0.37500000       0.62500000 </v>
    <v>       0.37500000       0.62500000       0.87500000 </v>
    <v>       0.62500000       0.37500000       0.87500000 </v>
    <v>       0.12500000       0.62500000       0.62500000 </v>
    <v>       0.25000000       0.25000000       0.75000000 </v>
    <v>      -0.00000000       0.50000000      -0.00000000 </v>
    <v>       0.37500000       0.87500000       0.62500000 </v>
    <v>       0.87500000       0.12500000       0.87500000 </v>
    <v>       0.12500000       0.87500000       0.87500000 </v>
    <v>       0.62500000       0.12500000       0.62500000 </v>
    <v>       0.75000000       0.75000000       0.75000000 </v>
    <v>       0.50000000      -0.00000000      -0.00000000 </v>
    <v>       0.37500000       0.37500000       0.12500000 </v>
    <v>       0.87500000       0.62500000       0.37500000 </v>
    <v>       0.12500000       0.37500000       0.37500000 </v>
    <v>       0.62500000       0.62500000       0.12500000 </v>
    <v>       0.75000000       0.25000000       0.25000000 </v>
    <v>       0.50000000       0.50000000       0.50000000 </v>
    <v>       0.37655294       0.37655294       0.37655294 </v>
    <v>       0.87344706       0.12655294       0.12655294 </v>
    <v>       0.62655294       0.12655294       0.37344706 </v>
    <v>       0.12655294       0.87344706       0.12655294 </v>
    <v>       0.12344706       0.12344706       0.37655294 </v>
    <v>       0.12344706       0.37655294       0.12344706 </v>
    <v>       0.37344706       0.87344706       0.37344706 </v>
    <v>       0.37655294       0.12344706       0.12344706 </v>
    <v>       0.37655294       0.87655294       0.87655294 </v>
    <v>       0.87344706       0.62655294       0.62655294 </v>
    <v>       0.62655294       0.62655294       0.87344706 </v>
    <v>       0.12655294       0.37344706       0.62655294 </v>
    <v>       0.12344706       0.62344706       0.87655294 </v>
    <v>       0.12344706       0.87655294       0.62344706 </v>
    <v>       0.37344706       0.37344706       0.87344706 </v>
    <v>       0.37655294       0.62344706       0.62344706 </v>
    <v>       0.87655294       0.37655294       0.87655294 </v>
    <v>       0.37344706       0.12655294       0.62655294 </v>
    <v>       0.12655294       0.12655294       0.87344706 </v>
    <v>       0.62655294       0.87344706       0.62655294 </v>
    <v>       0.62344706       0.12344706       0.87655294 </v>
    <v>       0.62344706       0.37655294       0.62344706 </v>
    <v>       0.87344706       0.87344706       0.87344706 </v>
    <v>       0.87655294       0.12344706       0.62344706 </v>
    <v>       0.87655294       0.87655294       0.37655294 </v>
    <v>       0.37344706       0.62655294       0.12655294 </v>
    <v>       0.12655294       0.62655294       0.37344706 </v>
    <v>       0.62655294       0.37344706       0.12655294 </v>
    <v>       0.62344706       0.62344706       0.37655294 </v>
    <v>       0.62344706       0.87655294       0.12344706 </v>
    <v>       0.87344706       0.37344706       0.37344706 </v>
    <v>       0.87655294       0.62344706       0.12344706 </v>
   </varray>
  </structure>
  <varray name="forces" >
   <v>       0.00000000      -0.00000000      -0.00000000 </v>
   <v>       0.00000000      -0.00000000      -0.00000000 </v>
   <v>       0.00000000      -0.00000000      -0.00000000 </v>
   <v>       0.00000000      -0.00000000      -0.00000000 </v>
   <v>       0.00000000      -0.00000000      -0.00000000 </v>
   <v>       0.00000000      -0.00000000      -0.00000000 </v>
   <v>       0.00000000      -0.00000000      -0.00000000 </v>
   <v>       0.00000000      -0.00000000      -0.00000000 </v>
   <v>       0.00000000      -0.00000000      -0.00000000 </v>
   <v>       0.00000000      -0.00000000      -0.00000000 </v>
   <v>       0.00000000      -0.00000000      -0.00000000 </v>
   <v>       0.00000000      -0.00000000      -0.00000000 </v>
   <v>       0.00000000      -0.00000000      -0.00000000 </v>
   <v>       0.00000000      -0.00000000      -0.00000000 </v>
   <v>       0.00000000      -0.00000000      -0.00000000 </v>
   <v>       0.00000000      -0.00000000      -0.00000000 </v>
   <v>       0.00000000      -0.00000000      -0.00000000 </v>
   <v>       0.00000000      -0.00000000      -0.00000000 </v>
   <v>       0.00000000      -0.00000000      -0.00000000 </v>
   <v>       0.00000000      -0.00000000      -0.00000000 </v>
   <v>       0.00000000      -0.00000000      -0.00000000 </v>
   <v>       0.00000000      -0.00000000      -0.00000000 </v>
   <v>       0.00000000      -0.00000000      -0.00000000 </v>
   <v>       0.00000000      -0.00000000      -0.00000000 </v>
   <v>      -0.04401859      -0.04401859      -0.04401859 </v>
   <v>       0.04401859      -0.04401859      -0.04401859 </v>
   <v>      -0.04401859      -0.04401859       0.04401859 </v>
   <v>      -0.04401859       0.04401859      -0.04401859 </v>
   <v>       0.04401859       0.04401859      -0.04401859 </v>
   <v>       0.04401859      -0.04401859       0.04401859 </v>
   <v>       0.04401859       0.04401859       0.04401859 </v>
   <v>      -0.04401859       0.04401859       0.04401859 </v>
   <v>      -0.04401859      -0.04401859      -0.04401859 </v>
   <v>       0.04401859      -0.04401859      -0.04401859 </v>
   <v>      -0.04401859      -0.04401859       0.04401859 </v>
   <v>      -0.04401859       0.04401859      -0.04401859 </v>
   <v>       0.04401859       0.04401859      -0.04401859 </v>
   <v>       0.04401859      -0.04401859       0.04401859 </v>
   <v>       0.04401859       0.04401859       0.04401859 </v>
   <v>      -0.04401859       0.04401859       0.04401859 </v>
   <v>      -0.04401859      -0.04401859      -0.04401859 </v>
   <v>       0.04401859      -0.04401859      -0.04401859 </v>
   <v>      -0.04401859      -0.04401859       0.04401859 </v>
   <v>      -0.04401859       0.04401859      -0.04401859 </v>
   <v>       0.04401859       0.04401859      -0.04401859 </v>
   <v>       0.04401859      -0.04401859       0.04401859 </v>
   <v>       0.04401859       0.04401859       0.04401859 </v>
   <v>      -0.04401859       0.04401859       0.04401859 </v>
   <v>      -0.04401859      -0.04401859      -0.04401859 </v>
   <v>       0.04401859      -0.04401859      -0.04401859 </v>
   <v>      -0.04401859      -0.04401859       0.04401859 </v>
   <v>      -0.04401859       0.04401859      -0.04401859 </v>
   <v>       0.04401859       0.04401859      -0.04401859 </v>
   <v>       0.04401859      -0.04401859       0.04401859 </v>
   <v>       0.04401859       0.04401859       0.04401859 </v>
   <v>      -0.04401859       0.04401859       0.04401859 </v>
  </varray>
  <varray name="stress" >
   <v>     168.83760348       0.00000000       0.00000000 </v>
   <v>       0.00000000     168.83760348       0.00000000 </v>
   <v>       0.00000000       0.00000000     168.83760348 </v>
  </varray>
  <energy>
   <i name="e_fr_energy">   -326.24542901 </i>
   <i name="e_wo_entrp">   -326.24756397 </i>
   <i name="e_0_energy">      0.00853984 </i>
  </energy>
  <time name="totalsc">   21.63   21.66</time>
 </calculation>
 <calculation>
  <scstep>
   <time name="dav">    5.07    5.47</time>
   <time name="total">    5.84    6.74</time>
   <energy>
    <i name="alphaZ">    338.06241684 </i>
    <i name="ewald">  -9992.01798960 </i>
    <i name="hartreedc">  -1697.84025477 </i>
    <i name="XCdc">    227.39992008 </i>
    <i name="pawpsdc">  25714.42990194 </i>
    <i name="pawaedc"> -25183.23726080 </i>
    <i name="eentropy">      0.00906334 </i>
    <i name="bandstr">    621.44269500 </i>
    <i name="atom">   9645.50393724 </i>
    <i name="e_fr_energy">   -326.24757074 </i>
    <i name="e_wo_entrp">   -326.25663408 </i>
    <i name="e_0_energy">   -326.24983657 </i>
   </energy>
  </scstep>
  <scstep>
   <time name="diag">    0.63    0.63</time>
   <time name="diis">    2.59    2.59</time>
   <time name="orth">    0.08    0.08</time>
   <time name="total">    3.65    3.65</time>
   <energy>
    <i name="e_fr_energy">   -326.24775457 </i>
    <i name="e_wo_entrp">   -326.25686165 </i>
    <i name="e_0_energy">   -326.25003134 </i>
   </energy>
  </scstep>
  <scstep>
   <time name="diag">    0.63    0.63</time>
   <time name="diis">    1.68    1.68</time>
   <time name="orth">    0.09    0.09</time>
   <time name="total">    2.46    2.46</time>
   <energy>
    <i name="alphaZ">    338.06241684 </i>
    <i name="ewald">  -9992.01798960 </i>
    <i name="hartreedc">  -1697.50620898 </i>
    <i name="XCdc">    227.37924646 </i>
    <i name="pawpsdc">  25702.62302657 </i>
    <i name="pawaedc"> -25171.42444733 </i>
    <i name="eentropy">      0.00910140 </i>
    <i name="bandstr">    621.12321612 </i>
    <i name="atom">   9645.50393724 </i>
    <i name="e_fr_energy">   -326.24770128 </i>
    <i name="e_wo_entrp">   -326.25680268 </i>
    <i name="e_0_energy">   -326.24997663 </i>
   </energy>
  </scstep>
  <structure>
   <crystal>
    <varray name="basis" >
     <v>       8.32495477       0.00000000       0.00000000 </v>
     <v>       0.00000000       8.32495477       0.00000000 </v>
     <v>       0.00000000       0.00000000       8.32495477 </v>
    </varray>
    <i name="volume">    576.95992333 </i>
    <varray name="rec_basis" >
     <v>       0.12012077      -0.00000000       0.00000000 </v>
     <v>      -0.00000000       0.12012077       0.00000000 </v>
     <v>      -0.00000000      -0.00000000       0.12012077 </v>
    </varray>
   </crystal>
   <varray name="positions" >
    <v>       0.87500000       0.87500000       0.12500000 </v>
    <v>       0.37500000       0.12500000       0.37500000 </v>
    <v>       0.62500000       0.87500000       0.37500000 </v>
    <v>       0.12500000       0.12500000       0.12500000 </v>
    <v>       0.25000000       0.75000000       0.25000000 </v>
    <v>      -0.00000000      -0.00000000       0.50000000 </v>
    <v>       0.87500000       0.37500000       0.62500000 </v>
    <v>       0.37500000       0.62500000       0.87500000 </v>
    <v>       0.62500000       0.37500000       0.87500000 </v>
    <v>       0.12500000       0.62500000       0.62500000 </v>
    <v>       0.25000000       0.25000000       0.75000000 </v>
    <v>      -0.00000000       0.50000000      -0.00000000 </v>
    <v>       0.37500000       0.87500000       0.62500000 </v>
    <v>       0.87500000       0.12500000       0.87500000 </v>
    <v>       0.12500000       0.87500000       0.87500000 </v>
    <v>       0.62500000       0.12500000       0.62500000 </v>
    <v>       0.75000000       0.75000000       0.75000000 </v>
    <v>       0.50000000      -0.00000000      -0.00000000 </v>
    <v>       0.37500000       0.37500000       0.12500000 </v>
    <v>       0.87500000       0.62500000       0.37500000 </v>
    <v>       0.12500000       0.37500000       0.37500000 </v>
    <v>       0.62500000       0.62500000       0.12500000 </v>
    <v>       0.75000000       0.25000000       0.25000000 </v>
    <v>       0.50000000       0.50000000       0.50000000 </v>
    <v>       0.37642668       0.37642668       0.37642668 </v>
    <v>       0.87357332       0.12642668       0.12642668 </v>
    <v>       0.62642668       0.12642668       0.37357332 </v>
    <v>       0.12642668       0.87357332       0.12642668 </v>
    <v>       0.12357332       0.12357332       0.37642668 </v>
    <v>       0.12357332       0.37642668       0.12357332 </v>
    <v>       0.37357332       0.87357332       0.37357332 </v>
    <v>       0.37642668       0.12357332       0.12357332 </v>
    <v>       0.37642668       0.87642668       0.87642668 </v>
    <v>       0.87357332       0.62642668       0.62642668 </v>
    <v>       0.62642668       0.62642668       0.87357332 </v>
    <v>       0.12642668       0.37357332       0.62642668 </v>
    <v>       0.12357332       0.62357332       0.87642668 </v>
    <v>       0.12357332       0.87642668       0.62357332 </v>
    <v>       0.37357332       0.37357332       0.87357332 </v>
    <v>       0.37642668       0.62357332       0.62357332 </v>
    <v>       0.87642668       0.37642668       0.87642668 </v>
    <v>       0.37357332       0.12642668       0.62642668 </v>
    <v>       0.12642668       0.12642668       0.87357332 </v>
    <v>       0.62642668       0.87357332       0.62642668 </v>
    <v>       0.62357332       0.12357332       0.87642668 </v>
    <v>       0.62357332       0.37642668       0.62357332 </v>
    <v>       0.87357332       0.87357332       0.87357332 </v>
    <v>       0.87642668       0.12357332       0.62357332 </v>
    <v>       0.87642668       0.87642668       0.37642668 </v>
    <v>       0.37357332       0.62642668       0.12642668 </v>
    <v>       0.12642668       0.62642668       0.37357332 </v>
    <v>       0.62642668       0.37357332       0.12642668 </v>
    <v>       0.62357332       0.62357332       0.37642668 </v>
    <v>       0.62357332       0.87642668       0.12357332 </v>
    <v>       0.87357332       0.37357332       0.37357332 </v>
    <v>       0.87642668       0.62357332       0.12357332 </v>
   </varray>
  </structure>
  <varray name="forces" >
   <v>       0.00000000       0.00000000       0.00000000 </v>
   <v>       0.00000000       0.00000000       0.00000000 </v>
   <v>       0.00000000       0.00000000       0.00000000 </v>
   <v>       0.00000000       0.00000000       0.00000000 </v>
   <v>       0.00000000       0.00000000       0.00000000 </v>
   <v>       0.00000000       0.00000000       0.00000000 </v>
   <v>       0.00000000       0.00000000       0.00000000 </v>
   <v>       0.00000000       0.00000000       0.00000000 </v>
   <v>       0.00000000       0.00000000       0.00000000 </v>
   <v>       0.00000000       0.00000000       0.00000000 </v>
   <v>       0.00000000       0.00000000       0.00000000 </v>
   <v>       0.00000000       0.00000000       0.00000000 </v>
   <v>       0.00000000       0.00000000       0.00000000 </v>
   <v>       0.00000000       0.00000000       0.00000000 </v>
   <v>       0.00000000       0.00000000       0.00000000 </v>
   <v>       0.00000000       0.00000000       0.00000000 </v>
   <v>       0.00000000       0.00000000       0.00000000 </v>
   <v>       0.00000000       0.00000000       0.00000000 </v>
   <v>       0.00000000       0.00000000       0.00000000 </v>
   <v>       0.00000000       0.00000000       0.00000000 </v>
   <v>       0.00000000       0.00000000       0.00000000 </v>
   <v>       0.00000000       0.00000000       0.00000000 </v>
   <v>       0.00000000       0.00000000       0.00000000 </v>
   <v>       0.00000000       0.00000000       0.00000000 </v>
   <v>      -0.00129662      -0.00129662      -0.00129662 </v>
   <v>       0.00129662      -0.00129662      -0.00129662 </v>
   <v>      -0.00129662      -0.00129662       0.00129662 </v>
   <v>      -0.00129662       0.00129662      -0.00129662 </v>
   <v>       0.00129662       0.00129662      -0.00129662 </v>
   <v>       0.00129662      -0.00129662       0.00129662 </v>
   <v>       0.00129662       0.00129662       0.00129662 </v>
   <v>      -0.00129662       0.00129662       0.00129662 </v>
   <v>      -0.00129662      -0.00129662      -0.00129662 </v>
   <v>       0.00129662      -0.00129662      -0.00129662 </v>
   <v>      -0.00129662      -0.00129662       0.00129662 </v>
   <v>      -0.00129662       0.00129662      -0.00129662 </v>
   <v>       0.00129662       0.00129662      -0.00129662 </v>
   <v>       0.00129662      -0.00129662       0.00129662 </v>
   <v>       0.00129662       0.00129662       0.00129662 </v>
   <v>      -0.00129662       0.00129662       0.00129662 </v>
   <v>      -0.00129662      -0.00129662      -0.00129662 </v>
   <v>       0.00129662      -0.00129662      -0.00129662 </v>
   <v>      -0.00129662      -0.00129662       0.00129662 </v>
   <v>      -0.00129662       0.00129662      -0.00129662 </v>
   <v>       0.00129662       0.00129662      -0.00129662 </v>
   <v>       0.00129662      -0.00129662       0.00129662 </v>
   <v>       0.00129662       0.00129662       0.00129662 </v>
   <v>      -0.00129662       0.00129662       0.00129662 </v>
   <v>      -0.00129662      -0.00129662      -0.00129662 </v>
   <v>       0.00129662      -0.00129662      -0.00129662 </v>
   <v>      -0.00129662      -0.00129662       0.00129662 </v>
   <v>      -0.00129662       0.00129662      -0.00129662 </v>
   <v>       0.00129662       0.00129662      -0.00129662 </v>
   <v>       0.00129662      -0.00129662       0.00129662 </v>
   <v>       0.00129662       0.00129662       0.00129662 </v>
   <v>      -0.00129662       0.00129662       0.00129662 </v>
  </varray>
  <varray name="stress" >
   <v>     168.79952178       0.00000000       0.00000000 </v>
   <v>       0.00000000     168.79952178       0.00000000 </v>
   <v>       0.00000000       0.00000000     168.79952178 </v>
  </varray>
  <energy>
   <i name="e_fr_energy">   -326.24770128 </i>
   <i name="e_wo_entrp">   -326.24997663 </i>
   <i name="e_0_energy">      0.00910140 </i>
  </energy>
  <time name="totalsc">   18.39   19.29</time>
  <eigenvalues>
   <array>
    <dimension dim="1">band</dimension>
    <dimension dim="2">kpoint</dimension>
    <dimension dim="3">spin</dimension>
    <field>eigene</field>
    <field>occ</field>
    <set>
     <set comment="spin 1">
      <set comment="kpoint 1">
       <r>   -9.1176    1.0000 </r>
       <r>   -7.9951    1.0000 </r>
       <r>   -7.9951    1.0000 </r>
       <r>   -7.9951    1.0000 </r>
       <r>   -7.9950    1.0000 </r>
       <r>   -7.9950    1.0000 </r>
       <r>   -7.9950    1.0000 </r>
       <r>   -7.5233    1.0000 </r>
       <r>   -7.2456    1.0000 </r>
       <r>   -7.2456    1.0000 </r>
       <r>   -7.2456    1.0000 </r>
       <r>   -7.2456    1.0000 </r>
       <r>   -7.2456    1.0000 </r>
       <r>   -7.2456    1.0000 </r>
       <r>   -7.1398    1.0000 </r>
       <r>   -6.0580    1.0000 </r>
       <r>   -6.0580    1.0000 </r>
       <r>   -6.0580    1.0000 </r>
       <r>   -6.0580    1.0000 </r>
       <r>   -6.0580    1.0000 </r>
       <r>   -6.0580    1.0000 </r>
       <r>   -5.9036    1.0000 </r>
       <r>   -5.9036    1.0000 </r>
       <r>   -5.9036    1.0000 </r>
       <r>   -0.4661    1.0000 </r>
       <r>   -0.4211    1.0000 </r>
       <r>   -0.4211    1.0000 </r>
       <r>   -0.4211    1.0000 </r>
       <r>    0.0750    1.0000 </r>
       <r>    0.0750    1.0000 </r>
       <r>    0.0750    1.0000 </r>
       <r>    0.0750    1.0000 </r>
       <r>    0.0750    1.0000 </r>
       <r>    0.0750    1.0000 </r>
       <r>    0.7237    1.0000 </r>
       <r>    0.7237    1.0000 </r>
       <r>    0.7237    1.0000 </r>
       <r>    0.7237    1.0000 </r>
       <r>    0.7237    1.0000 </r>
       <r>    0.7237    1.0000 </r>
       <r>    1.2963    1.0000 </r>
       <r>    1.2963    1.0000 </r>
       <r>    1.2963    1.0000 </r>
       <r>    1.6926    1.0000 </r>
       <r>    1.6926    1.0000 </r>
       <r>    1.6926    1.0000 </r>
       <r>    1.6926    1.0000 </r>
       <r>    1.6926    1.0000 </r>
       <r>    1.6926    1.0000 </r>
       <r>    1.9038    1.0000 </r>
       <r>    1.9038    1.0000 </r>
       <r>    2.1811    1.0000 </r>
       <r>    2.1811    1.0000 </r>
       <r>    2.1811    1.0000 </r>
       <r>    2.1811    1.0000 </r>
       <r>    2.1811    1.0000 </r>
       <r>    2.1811    1.0000 </r>
       <r>    3.3602    1.0000 </r>
       <r>    3.3602    1.0000 </r>
       <r>    3.3602    1.0000 </r>
       <r>    3.3602    1.0000 </r>
       <r>    3.3602    1.0000 </r>
       <r>    3.3602    1.0000 </r>
       <r>    3.5465    1.0000 </r>
       <r>    3.5465    1.0000 </r>
       <r>    3.5465    1.0000 </r>
       <r>    3.5465    1.0000 </r>
       <r>    3.5465    1.0000 </r>
       <r>    3.5465    1.0000 </r>
       <r>    3.5787    1.0000 </r>
       <r>    3.5787    1.0000 </r>
       <r>    3.5787    1.0000 </r>
       <r>    3.5788    1.0000 </r>
       <r>    3.5788    1.0000 </r>
       <r>    3.5788    1.0000 </r>
       <r>    3.8489    1.0000 </r>
       <r>    3.8489    1.0000 </r>
       <r>    3.8489    1.0000 </r>
       <r>    4.2515    1.0000 </r>
       <r>    4.2515    1.0000 </r>
       <r>    4.2515    1.0000 </r>
       <r>    4.2515    1.0000 </r>
       <r>    4.2515    1.0000 </r>
       <r>    4.2515    1.0000 </r>
       <r>    5.5115    1.0000 </r>
       <r>    5.5115    1.0000 </r>
       <r>    5.5115    1.0000 </r>
       <r>    6.2083    1.0000 </r>
       <r>    6.2083    1.0000 </r>
       <r>    6.2083    1.0000 </r>
       <r>    6.2083    1.0000 </r>
       <r>    6.2083    1.0000 </r>
       <r>    6.2083    1.0000 </r>
       <r>    6.4114    1.0000 </r>
       <r>    6.6931    1.0000 </r>
       <r>    6.6931    1.0000 </r>
       <r>    6.6931    1.0000 </r>
       <r>    9.2409    1.0000 </r>
       <r>    9.2409    1.0000 </r>
       <r>    9.2409    1.0000 </r>
       <r>    9.2409    1.0000 </r>
       <r>    9.2409    1.0000 </r>
       <r>    9.2409    1.0000 </r>
       <r>    9.3158    1.0000 </r>
       <r>    9.3158    1.0000 </r>
       <r>    9.3158    1.0000 </r>
       <r>    9.9173    1.0000 </r>
       <r>    9.9173    1.0000 </r>
       <r>    9.9173    1.0000 </r>
       <r>    9.9173    1.0000 </r>
       <r>    9.9173    1.0000 </r>
       <r>    9.9173    1.0000 </r>
       <r>   10.1696    1.0000 </r>
       <r>   10.1696    1.0000 </r>
       <r>   10.1696    1.0000 </r>
       <r>   10.1696    1.0000 </r>
       <r>   10.1696    1.0000 </r>
       <r>   10.1696    1.0000 </r>
       <r>   10.1915    1.0000 </r>
       <r>   10.1915    1.0000 </r>
       <r>   10.1915    1.0000 </r>
       <r>   10.5272    1.0000 </r>
       <r>   10.5272    1.0000 </r>
       <r>   10.5272    1.0000 </r>
       <r>   10.5272    1.0000 </r>
       <r>   10.5272    1.0000 </r>
       <r>   10.5272    1.0000 </r>
       <r>   12.0428    0.0000 </r>
       <r>   12.1144    0.0000 </r>
       <r>   12.1144    0.0000 </r>
       <r>   12.1144    0.0000 </r>
       <r>   12.1144    0.0000 </r>
       <r>   12.1144    0.0000 </r>
       <r>   12.1144    0.0000 </r>
       <r>   12.2969    0.0000 </r>
       <r>   12.2969    0.0000 </r>
       <r>   12.6540    0.0000 </r>
       <r>   12.6540    0.0000 </r>
       <r>   12.6540    0.0000 </r>
       <r>   12.6540    0.0000 </r>
       <r>   12.6540    0.0000 </r>
       <r>   12.6540    0.0000 </r>
       <r>   12.6729    0.0000 </r>
       <r>   12.6729    0.0000 </r>
       <r>   12.6729    0.0000 </r>
       <r>   12.6729    0.0000 </r>
       <r>   12.6729    0.0000 </r>
       <r>   12.6729    0.0000 </r>
       <r>   13.7263    0.0000 </r>
       <r>   13.7263    0.0000 </r>
       <r>   13.7263    0.0000 </r>
       <r>   13.8564    0.0000 </r>
       <r>   13.8564    0.0000 </r>
       <r>   14.0808    0.0000 </r>
       <r>   15.1466    0.0000 </r>
       <r>   15.1493    0.0000 </r>
      </set>
      <set comment="kpoint 2">
       <r>   -9.0621    1.0000 </r>
       <r>   -8.3170    1.0000 </r>
       <r>   -7.9738    1.0000 </r>
       <r>   -7.9738    1.0000 </r>
       <r>   -7.9737    1.0000 </r>
       <r>   -7.9737    1.0000 </r>
       <r>   -7.7804    1.0000 </r>
       <r>   -7.5419    1.0000 </r>
       <r>   -7.3203    1.0000 </r>
       <r>   -7.2956    1.0000 </r>
       <r>   -7.2956    1.0000 </r>
       <r>   -7.2956    1.0000 </r>
       <r>   -7.2956    1.0000 </r>
       <r>   -7.1643    1.0000 </r>
       <r>   -6.9899    1.0000 </r>
       <r>   -6.0437    1.0000 </r>
       <r>   -6.0437    1.0000 </r>
       <r>   -6.0210    1.0000 </r>
       <r>   -6.0210    1.0000 </r>
       <r>   -6.0210    1.0000 </r>
       <r>   -6.0210    1.0000 </r>
       <r>   -5.9938    1.0000 </r>
       <r>   -5.9189    1.0000 </r>
       <r>   -5.9189    1.0000 </r>
       <r>   -0.3951    1.0000 </r>
       <r>   -0.3951    1.0000 </r>
       <r>   -0.3450    1.0000 </r>
       <r>   -0.2966    1.0000 </r>
       <r>   -0.0018    1.0000 </r>
       <r>   -0.0018    1.0000 </r>
       <r>    0.0937    1.0000 </r>
       <r>    0.0937    1.0000 </r>
       <r>    0.0937    1.0000 </r>
       <r>    0.0937    1.0000 </r>
       <r>    0.4807    1.0000 </r>
       <r>    0.6566    1.0000 </r>
       <r>    0.6566    1.0000 </r>
       <r>    0.6566    1.0000 </r>
       <r>    0.6566    1.0000 </r>
       <r>    0.8517    1.0000 </r>
       <r>    0.8877    1.0000 </r>
       <r>    1.1602    1.0000 </r>
       <r>    1.4156    1.0000 </r>
       <r>    1.4156    1.0000 </r>
       <r>    1.6719    1.0000 </r>
       <r>    1.6719    1.0000 </r>
       <r>    1.6719    1.0000 </r>
       <r>    1.6719    1.0000 </r>
       <r>    1.9181    1.0000 </r>
       <r>    1.9669    1.0000 </r>
       <r>    2.1557    1.0000 </r>
       <r>    2.1557    1.0000 </r>
       <r>    2.1557    1.0000 </r>
       <r>    2.1557    1.0000 </r>
       <r>    2.2197    1.0000 </r>
       <r>    2.2197    1.0000 </r>
       <r>    2.4887    1.0000 </r>
       <r>    2.8635    1.0000 </r>
       <r>    3.1495    1.0000 </r>
       <r>    3.1495    1.0000 </r>
       <r>    3.1495    1.0000 </r>
       <r>    3.1495    1.0000 </r>
       <r>    3.3726    1.0000 </r>
       <r>    3.3726    1.0000 </r>
       <r>    3.5626    1.0000 </r>
       <r>    3.5626    1.0000 </r>
       <r>    3.5626    1.0000 </r>
       <r>    3.5626    1.0000 </r>
       <r>    3.5638    1.0000 </r>
       <r>    3.7892    1.0000 </r>
       <r>    3.7892    1.0000 </r>
       <r>    3.8333    1.0000 </r>
       <r>    3.8444    1.0000 </r>
       <r>    3.9182    1.0000 </r>
       <r>    4.0042    1.0000 </r>
       <r>    4.0042    1.0000 </r>
       <r>    4.0042    1.0000 </r>
       <r>    4.0042    1.0000 </r>
       <r>    4.2779    1.0000 </r>
       <r>    4.2779    1.0000 </r>
       <r>    4.2779    1.0000 </r>
       <r>    4.2779    1.0000 </r>
       <r>    4.4430    1.0000 </r>
       <r>    4.4430    1.0000 </r>
       <r>    5.3539    1.0000 </r>
       <r>    5.3539    1.0000 </r>
       <r>    5.3752    1.0000 </r>
       <r>    6.0325    1.0000 </r>
       <r>    6.0325    1.0000 </r>
       <r>    6.0325    1.0000 </r>
       <r>    6.0325    1.0000 </r>
       <r>    6.0615    1.0000 </r>
       <r>    6.2334    1.0000 </r>
       <r>    6.2334    1.0000 </r>
       <r>    6.6067    1.0000 </r>
       <r>    6.6067    1.0000 </r>
       <r>    7.1000    1.0000 </r>
       <r>    8.5622    1.0000 </r>
       <r>    9.2032    1.0000 </r>
       <r>    9.3045    1.0000 </r>
       <r>    9.3045    1.0000 </r>
       <r>    9.3045    1.0000 </r>
       <r>    9.3045    1.0000 </r>
       <r>    9.3287    1.0000 </r>
       <r>    9.5688    1.0000 </r>
       <r>    9.5688    1.0000 </r>
       <r>    9.5688    1.0000 </r>
       <r>    9.5688    1.0000 </r>
       <r>    9.6514    1.0000 </r>
       <r>    9.6514    1.0000 </r>
       <r>    9.7724    1.0000 </r>
       <r>    9.8896    1.0000 </r>
       <r>    9.8896    1.0000 </r>
       <r>   10.0784    1.0000 </r>
       <r>   10.0784    1.0000 </r>
       <r>   10.0784    1.0000 </r>
       <r>   10.0784    1.0000 </r>
       <r>   10.1179    1.0000 </r>
       <r>   10.1563    1.0000 </r>
       <r>   10.1563    1.0000 </r>
       <r>   10.7818    0.9980 </r>
       <r>   10.7818    0.9980 </r>
       <r>   10.7833    0.9979 </r>
       <r>   11.0276    0.5569 </r>
       <r>   11.0276    0.5569 </r>
       <r>   11.0276    0.5568 </r>
       <r>   11.0276    0.5568 </r>
       <r>   11.8042    0.0000 </r>
       <r>   11.8042    0.0000 </r>
       <r>   11.8042    0.0000 </r>
       <r>   11.8042    0.0000 </r>
       <r>   12.0555    0.0000 </r>
       <r>   12.2469    0.0000 </r>
       <r>   12.2603    0.0000 </r>
       <r>   12.2856    0.0000 </r>
       <r>   12.3027    0.0000 </r>
       <r>   12.3928    0.0000 </r>
       <r>   12.5078    0.0000 </r>
       <r>   12.5078    0.0000 </r>
       <r>   12.6518    0.0000 </r>
       <r>   12.6518    0.0000 </r>
       <r>   12.6518    0.0000 </r>
       <r>   12.6518    0.0000 </r>
       <r>   13.0113    0.0000 </r>
       <r>   13.0113    0.0000 </r>
       <r>   13.0113    0.0000 </r>
       <r>   13.0113    0.0000 </r>
       <r>   13.2590    0.0000 </r>
       <r>   13.5268    0.0000 </r>
       <r>   13.5400    0.0000 </r>
       <r>   13.6841    0.0000 </r>
       <r>   13.6841    0.0000 </r>
       <r>   14.0155    0.0000 </r>
       <r>   14.4180    0.0000 </r>
       <r>   14.7154    0.0000 </r>
       <r>   14.7934    0.0000 </r>
      </set>
      <set comment="kpoint 3">
       <r>   -8.8992    1.0000 </r>
       <r>   -8.6412    1.0000 </r>
       <r>   -7.9332    1.0000 </r>
       <r>   -7.9332    1.0000 </r>
       <r>   -7.9332    1.0000 </r>
       <r>   -7.9332    1.0000 </r>
       <r>   -7.6673    1.0000 </r>
       <r>   -7.5923    1.0000 </r>
       <r>   -7.3781    1.0000 </r>
       <r>   -7.3781    1.0000 </r>
       <r>   -7.3781    1.0000 </r>
       <r>   -7.3781    1.0000 </r>
       <r>   -7.2917    1.0000 </r>
       <r>   -7.2252    1.0000 </r>
       <r>   -6.6111    1.0000 </r>
       <r>   -6.2473    1.0000 </r>
       <r>   -6.0060    1.0000 </r>
       <r>   -6.0060    1.0000 </r>
       <r>   -5.9648    1.0000 </r>
       <r>   -5.9648    1.0000 </r>
       <r>   -5.9648    1.0000 </r>
       <r>   -5.9648    1.0000 </r>
       <r>   -5.9582    1.0000 </r>
       <r>   -5.9582    1.0000 </r>
       <r>   -0.3089    1.0000 </r>
       <r>   -0.3089    1.0000 </r>
       <r>   -0.1635    1.0000 </r>
       <r>   -0.1635    1.0000 </r>
       <r>    0.0028    1.0000 </r>
       <r>    0.0506    1.0000 </r>
       <r>    0.1365    1.0000 </r>
       <r>    0.1365    1.0000 </r>
       <r>    0.1365    1.0000 </r>
       <r>    0.1365    1.0000 </r>
       <r>    0.3829    1.0000 </r>
       <r>    0.5130    1.0000 </r>
       <r>    0.5221    1.0000 </r>
       <r>    0.5322    1.0000 </r>
       <r>    0.5391    1.0000 </r>
       <r>    0.5391    1.0000 </r>
       <r>    0.5391    1.0000 </r>
       <r>    0.5391    1.0000 </r>
       <r>    1.6392    1.0000 </r>
       <r>    1.6392    1.0000 </r>
       <r>    1.6393    1.0000 </r>
       <r>    1.6393    1.0000 </r>
       <r>    1.7296    1.0000 </r>
       <r>    1.7296    1.0000 </r>
       <r>    2.0900    1.0000 </r>
       <r>    2.0900    1.0000 </r>
       <r>    2.1494    1.0000 </r>
       <r>    2.1494    1.0000 </r>
       <r>    2.1494    1.0000 </r>
       <r>    2.1494    1.0000 </r>
       <r>    2.1525    1.0000 </r>
       <r>    2.3279    1.0000 </r>
       <r>    2.4545    1.0000 </r>
       <r>    2.9022    1.0000 </r>
       <r>    2.9022    1.0000 </r>
       <r>    2.9022    1.0000 </r>
       <r>    2.9022    1.0000 </r>
       <r>    2.9548    1.0000 </r>
       <r>    3.3108    1.0000 </r>
       <r>    3.3487    1.0000 </r>
       <r>    3.3487    1.0000 </r>
       <r>    3.5951    1.0000 </r>
       <r>    3.5951    1.0000 </r>
       <r>    3.8619    1.0000 </r>
       <r>    3.8798    1.0000 </r>
       <r>    3.8798    1.0000 </r>
       <r>    3.8798    1.0000 </r>
       <r>    3.8798    1.0000 </r>
       <r>    4.1575    1.0000 </r>
       <r>    4.1575    1.0000 </r>
       <r>    4.1575    1.0000 </r>
       <r>    4.1575    1.0000 </r>
       <r>    4.4889    1.0000 </r>
       <r>    4.5168    1.0000 </r>
       <r>    4.5168    1.0000 </r>
       <r>    4.5168    1.0000 </r>
       <r>    4.5168    1.0000 </r>
       <r>    4.5791    1.0000 </r>
       <r>    4.7299    1.0000 </r>
       <r>    4.7299    1.0000 </r>
       <r>    5.0052    1.0000 </r>
       <r>    5.0313    1.0000 </r>
       <r>    5.0313    1.0000 </r>
       <r>    5.3906    1.0000 </r>
       <r>    5.6813    1.0000 </r>
       <r>    5.6813    1.0000 </r>
       <r>    5.6813    1.0000 </r>
       <r>    5.6813    1.0000 </r>
       <r>    6.3190    1.0000 </r>
       <r>    6.3190    1.0000 </r>
       <r>    6.4548    1.0000 </r>
       <r>    6.4548    1.0000 </r>
       <r>    7.8163    1.0000 </r>
       <r>    8.3150    1.0000 </r>
       <r>    8.5770    1.0000 </r>
       <r>    8.7981    1.0000 </r>
       <r>    9.1208    1.0000 </r>
       <r>    9.1208    1.0000 </r>
       <r>    9.1208    1.0000 </r>
       <r>    9.1208    1.0000 </r>
       <r>    9.5868    1.0000 </r>
       <r>    9.5868    1.0000 </r>
       <r>    9.5868    1.0000 </r>
       <r>    9.5868    1.0000 </r>
       <r>    9.6614    1.0000 </r>
       <r>    9.9119    1.0000 </r>
       <r>    9.9226    1.0000 </r>
       <r>    9.9226    1.0000 </r>
       <r>   10.0147    1.0000 </r>
       <r>   10.0147    1.0000 </r>
       <r>   10.0278    1.0000 </r>
       <r>   10.0278    1.0000 </r>
       <r>   10.0278    1.0000 </r>
       <r>   10.0278    1.0000 </r>
       <r>   10.4397    1.0000 </r>
       <r>   10.4397    1.0000 </r>
       <r>   11.0124    0.7108 </r>
       <r>   11.0124    0.7108 </r>
       <r>   11.0804    0.0764 </r>
       <r>   11.0804    0.0764 </r>
       <r>   11.0804    0.0764 </r>
       <r>   11.0804    0.0764 </r>
       <r>   11.7416    0.0000 </r>
       <r>   11.8901    0.0000 </r>
       <r>   11.8901    0.0000 </r>
       <r>   11.8901    0.0000 </r>
       <r>   11.8901    0.0000 </r>
       <r>   12.0851    0.0000 </r>
       <r>   12.1709    0.0000 </r>
       <r>   12.2942    0.0000 </r>
       <r>   12.3939    0.0000 </r>
       <r>   12.4059    0.0000 </r>
       <r>   12.4059    0.0000 </r>
       <r>   12.4291    0.0000 </r>
       <r>   12.5815    0.0000 </r>
       <r>   12.7147    0.0000 </r>
       <r>   12.7147    0.0000 </r>
       <r>   12.7147    0.0000 </r>
       <r>   12.7147    0.0000 </r>
       <r>   13.0079    0.0000 </r>
       <r>   13.1216    0.0000 </r>
       <r>   13.1216    0.0000 </r>
       <r>   13.3255    0.0000 </r>
       <r>   13.3707    0.0000 </r>
       <r>   13.3707    0.0000 </r>
       <r>   13.3707    0.0000 </r>
       <r>   13.3707    0.0000 </r>
       <r>   13.5836    0.0000 </r>
       <r>   14.2909    0.0000 </r>
       <r>   14.3053    0.0000 </r>
       <r>   14.4452    0.0000 </r>
       <r>   14.5104    0.0000 </r>
      </set>
      <set comment="kpoint 4">
       <r>   -9.0072    1.0000 </r>
       <r>   -8.2761    1.0000 </r>
       <r>   -8.2761    1.0000 </r>
       <r>   -7.9788    1.0000 </r>
       <r>   -7.9426    1.0000 </r>
       <r>   -7.7867    1.0000 </r>
       <r>   -7.7867    1.0000 </r>
       <r>   -7.5609    1.0000 </r>
       <r>   -7.4809    1.0000 </r>
       <r>   -7.3771    1.0000 </r>
       <r>   -7.3771    1.0000 </r>
       <r>   -7.1937    1.0000 </r>
       <r>   -7.1583    1.0000 </r>
       <r>   -7.0274    1.0000 </r>
       <r>   -7.0274    1.0000 </r>
       <r>   -6.0922    1.0000 </r>
       <r>   -6.0374    1.0000 </r>
       <r>   -6.0137    1.0000 </r>
       <r>   -6.0137    1.0000 </r>
       <r>   -6.0060    1.0000 </r>
       <r>   -6.0060    1.0000 </r>
       <r>   -5.9586    1.0000 </r>
       <r>   -5.9258    1.0000 </r>
       <r>   -5.9120    1.0000 </r>
       <r>   -0.4814    1.0000 </r>
       <r>   -0.2816    1.0000 </r>
       <r>   -0.2664    1.0000 </r>
       <r>   -0.1183    1.0000 </r>
       <r>   -0.0536    1.0000 </r>
       <r>   -0.0536    1.0000 </r>
       <r>    0.0345    1.0000 </r>
       <r>    0.0772    1.0000 </r>
       <r>    0.0772    1.0000 </r>
       <r>    0.2452    1.0000 </r>
       <r>    0.3205    1.0000 </r>
       <r>    0.4295    1.0000 </r>
       <r>    0.4295    1.0000 </r>
       <r>    0.7267    1.0000 </r>
       <r>    0.8021    1.0000 </r>
       <r>    0.8021    1.0000 </r>
       <r>    0.8750    1.0000 </r>
       <r>    1.2206    1.0000 </r>
       <r>    1.2206    1.0000 </r>
       <r>    1.3244    1.0000 </r>
       <r>    1.5367    1.0000 </r>
       <r>    1.6044    1.0000 </r>
       <r>    1.6471    1.0000 </r>
       <r>    1.7531    1.0000 </r>
       <r>    1.7898    1.0000 </r>
       <r>    1.7898    1.0000 </r>
       <r>    2.1175    1.0000 </r>
       <r>    2.1175    1.0000 </r>
       <r>    2.2871    1.0000 </r>
       <r>    2.2871    1.0000 </r>
       <r>    2.3777    1.0000 </r>
       <r>    2.5630    1.0000 </r>
       <r>    2.6707    1.0000 </r>
       <r>    2.8973    1.0000 </r>
       <r>    3.1089    1.0000 </r>
       <r>    3.1089    1.0000 </r>
       <r>    3.1793    1.0000 </r>
       <r>    3.1793    1.0000 </r>
       <r>    3.2451    1.0000 </r>
       <r>    3.3549    1.0000 </r>
       <r>    3.3549    1.0000 </r>
       <r>    3.4343    1.0000 </r>
       <r>    3.4976    1.0000 </r>
       <r>    3.5343    1.0000 </r>
       <r>    3.7506    1.0000 </r>
       <r>    3.7875    1.0000 </r>
       <r>    3.7875    1.0000 </r>
       <r>    3.8210    1.0000 </r>
       <r>    3.9296    1.0000 </r>
       <r>    3.9296    1.0000 </r>
       <r>    4.1092    1.0000 </r>
       <r>    4.1644    1.0000 </r>
       <r>    4.1644    1.0000 </r>
       <r>    4.2894    1.0000 </r>
       <r>    4.2968    1.0000 </r>
       <r>    4.3107    1.0000 </r>
       <r>    4.3996    1.0000 </r>
       <r>    4.3996    1.0000 </r>
       <r>    4.6313    1.0000 </r>
       <r>    4.6313    1.0000 </r>
       <r>    4.9954    1.0000 </r>
       <r>    5.2071    1.0000 </r>
       <r>    5.4567    1.0000 </r>
       <r>    5.6504    1.0000 </r>
       <r>    5.8005    1.0000 </r>
       <r>    6.0518    1.0000 </r>
       <r>    6.0518    1.0000 </r>
       <r>    6.0947    1.0000 </r>
       <r>    6.0947    1.0000 </r>
       <r>    6.2035    1.0000 </r>
       <r>    6.5031    1.0000 </r>
       <r>    6.6113    1.0000 </r>
       <r>    7.3798    1.0000 </r>
       <r>    8.6613    1.0000 </r>
       <r>    8.6613    1.0000 </r>
       <r>    8.9684    1.0000 </r>
       <r>    9.1733    1.0000 </r>
       <r>    9.1859    1.0000 </r>
       <r>    9.1859    1.0000 </r>
       <r>    9.3537    1.0000 </r>
       <r>    9.3537    1.0000 </r>
       <r>    9.4709    1.0000 </r>
       <r>    9.5254    1.0000 </r>
       <r>    9.6255    1.0000 </r>
       <r>    9.6415    1.0000 </r>
       <r>    9.6558    1.0000 </r>
       <r>    9.8031    1.0000 </r>
       <r>    9.8031    1.0000 </r>
       <r>    9.8371    1.0000 </r>
       <r>   10.0037    1.0000 </r>
[...]
       <r>   13.1213    0.0000 </r>
       <r>   13.1213    0.0000 </r>
       <r>   13.2348    0.0000 </r>
       <r>   13.2349    0.0000 </r>
       <r>   13.2349    0.0000 </r>
       <r>   13.3759    0.0000 </r>
       <r>   13.3759    0.0000 </r>
       <r>   13.3762    0.0000 </r>
       <r>   13.4985    0.0000 </r>
       <r>   13.4986    0.0000 </r>
       <r>   13.6691    0.0000 </r>
       <r>   13.7784    0.0000 </r>
       <r>   13.7973    0.0000 </r>
       <r>   13.8608    0.0000 </r>
      </set>
     </set>
    </set>
   </array>
  </eigenvalues>
  <separator name="orbital magnetization" >
   <v name="MAGDIPOLOUT">      0.00000000      0.00000000      0.00000000</v>
  </separator>
  <dos>
   <i name="efermi">     11.03302178 </i>
   <total>
    <array>
     <dimension dim="1">gridpoints</dimension>
     <dimension dim="2">spin</dimension>
     <field>energy</field>
     <field>total</field>
     <field>integrated</field>
     <set>
      <set comment="spin 1">
       <r>   -10.3310     0.0000     0.0000 </r>
       <r>   -10.2420     0.0000     0.0000 </r>
       <r>   -10.1530     0.0000     0.0000 </r>
       <r>   -10.0641     0.0000     0.0000 </r>
       <r>    -9.9751     0.0000     0.0000 </r>
       <r>    -9.8861     0.0000     0.0000 </r>
       <r>    -9.7971     0.0000     0.0000 </r>
       <r>    -9.7081     0.0000     0.0000 </r>
       <r>    -9.6192     0.0000     0.0000 </r>
       <r>    -9.5302     0.0000     0.0000 </r>
       <r>    -9.4412     0.0000     0.0000 </r>
       <r>    -9.3522     0.0011     0.0001 </r>
       <r>    -9.2632     0.0056     0.0006 </r>
       <r>    -9.1743    -0.0452    -0.0034 </r>
       <r>    -9.0853     0.3697     0.0295 </r>
       <r>    -8.9963     2.3357     0.2373 </r>
       <r>    -8.9073     2.4932     0.4591 </r>
       <r>    -8.8184     5.2584     0.9270 </r>
       <r>    -8.7294     4.3050     1.3101 </r>
       <r>    -8.6404     4.7551     1.7332 </r>
       <r>    -8.5514     8.2708     2.4691 </r>
       <r>    -8.4624     6.3944     3.0381 </r>
       <r>    -8.3735     9.0612     3.8443 </r>
       <r>    -8.2845     7.1727     4.4826 </r>
       <r>    -8.1955    14.5522     5.7774 </r>
       <r>    -8.1065    12.0553     6.8501 </r>
       <r>    -8.0175     8.6773     7.6222 </r>
       <r>    -7.9286    19.2524     9.3352 </r>
       <r>    -7.8396    22.4266    11.3307 </r>
       <r>    -7.7506    20.9772    13.1972 </r>
       <r>    -7.6616    15.9779    14.6189 </r>
       <r>    -7.5727    14.4898    15.9082 </r>
       <r>    -7.4837    26.1726    18.2370 </r>
       <r>    -7.3947    30.0865    20.9141 </r>
       <r>    -7.3057    22.7275    22.9363 </r>
       <r>    -7.2167    12.8557    24.0802 </r>
       <r>    -7.1278     7.2056    24.7213 </r>
       <r>    -7.0388     8.9553    25.5182 </r>
       <r>    -6.9498    13.1191    26.6855 </r>
       <r>    -6.8608     5.9502    27.2149 </r>
       <r>    -6.7718     3.6627    27.5408 </r>
       <r>    -6.6829    11.6596    28.5783 </r>
       <r>    -6.5939    12.8409    29.7209 </r>
       <r>    -6.5049     4.9899    30.1649 </r>
       <r>    -6.4159     5.4430    30.6492 </r>
       <r>    -6.3270     6.0086    31.1838 </r>
       <r>    -6.2380     4.3967    31.5750 </r>
       <r>    -6.1490     0.4139    31.6119 </r>
       <r>    -6.0600     1.5548    31.7502 </r>
       <r>    -5.9710    75.9435    38.5076 </r>
       <r>    -5.8821   103.0810    47.6796 </r>
       <r>    -5.7931     5.2336    48.1453 </r>
       <r>    -5.7041    -2.0251    47.9651 </r>
       <r>    -5.6151     0.3767    47.9986 </r>
       <r>    -5.5261     0.0158    48.0000 </r>
       <r>    -5.4372     0.0001    48.0000 </r>
       <r>    -5.3482     0.0000    48.0000 </r>
       <r>    -5.2592     0.0000    48.0000 </r>
       <r>    -5.1702     0.0000    48.0000 </r>
       <r>    -5.0812     0.0000    48.0000 </r>
       <r>    -4.9923     0.0000    48.0000 </r>
       <r>    -4.9033     0.0000    48.0000 </r>
       <r>    -4.8143     0.0000    48.0000 </r>
       <r>    -4.7253     0.0000    48.0000 </r>
       <r>    -4.6364     0.0000    48.0000 </r>
       <r>    -4.5474     0.0000    48.0000 </r>
       <r>    -4.4584     0.0000    48.0000 </r>
       <r>    -4.3694     0.0000    48.0000 </r>
       <r>    -4.2804     0.0000    48.0000 </r>
       <r>    -4.1915     0.0000    48.0000 </r>
       <r>    -4.1025     0.0000    48.0000 </r>
       <r>    -4.0135     0.0000    48.0000 </r>
       <r>    -3.9245     0.0000    48.0000 </r>
       <r>    -3.8355     0.0000    48.0000 </r>
       <r>    -3.7466     0.0000    48.0000 </r>
       <r>    -3.6576     0.0000    48.0000 </r>
       <r>    -3.5686     0.0000    48.0000 </r>
       <r>    -3.4796     0.0000    48.0000 </r>
       <r>    -3.3907     0.0000    48.0000 </r>
       <r>    -3.3017     0.0000    48.0000 </r>
       <r>    -3.2127     0.0000    48.0000 </r>
       <r>    -3.1237     0.0000    48.0000 </r>
       <r>    -3.0347     0.0000    48.0000 </r>
       <r>    -2.9458     0.0000    48.0000 </r>
       <r>    -2.8568     0.0000    48.0000 </r>
       <r>    -2.7678     0.0000    48.0000 </r>
       <r>    -2.6788     0.0000    48.0000 </r>
       <r>    -2.5898     0.0000    48.0000 </r>
       <r>    -2.5009     0.0000    48.0000 </r>
       <r>    -2.4119     0.0000    48.0000 </r>
       <r>    -2.3229     0.0000    48.0000 </r>
       <r>    -2.2339     0.0000    48.0000 </r>
       <r>    -2.1450     0.0000    48.0000 </r>
       <r>    -2.0560     0.0000    48.0000 </r>
       <r>    -1.9670     0.0000    48.0000 </r>
       <r>    -1.8780     0.0000    48.0000 </r>
       <r>    -1.7890     0.0000    48.0000 </r>
       <r>    -1.7001     0.0000    48.0000 </r>
       <r>    -1.6111     0.0000    48.0000 </r>
       <r>    -1.5221     0.0000    48.0000 </r>
       <r>    -1.4331     0.0000    48.0000 </r>
       <r>    -1.3441     0.0000    48.0000 </r>
       <r>    -1.2552     0.0000    48.0000 </r>
       <r>    -1.1662     0.0000    48.0000 </r>
       <r>    -1.0772     0.0000    48.0000 </r>
       <r>    -0.9882     0.0000    48.0000 </r>
       <r>    -0.8992     0.0000    48.0000 </r>
       <r>    -0.8103     0.0002    48.0000 </r>
       <r>    -0.7213     0.0135    48.0012 </r>
       <r>    -0.6323     0.0173    48.0028 </r>
       <r>    -0.5433    -0.3770    47.9692 </r>
       <r>    -0.4544     4.8962    48.4049 </r>
       <r>    -0.3654    13.3752    49.5950 </r>
       <r>    -0.2764    26.5165    51.9544 </r>
       <r>    -0.1874    31.8413    54.7876 </r>
       <r>    -0.0984    34.9572    57.8980 </r>
       <r>    -0.0095    37.9869    61.2780 </r>
       <r>     0.0795    26.9661    63.6775 </r>
       <r>     0.1685    36.7575    66.9481 </r>
       <r>     0.2575    20.8833    68.8063 </r>
       <r>     0.3465    26.8077    71.1916 </r>
       <r>     0.4354    11.2180    72.1897 </r>
       <r>     0.5244    17.6791    73.7628 </r>
       <r>     0.6134    20.5283    75.5894 </r>
       <r>     0.7024    22.7463    77.6133 </r>
       <r>     0.7913    23.8687    79.7371 </r>
       <r>     0.8803    12.6498    80.8627 </r>
       <r>     0.9693    13.8568    82.0956 </r>
       <r>     1.0583    14.1125    83.3514 </r>
       <r>     1.1473     6.3140    83.9132 </r>
       <r>     1.2362     9.4834    84.7570 </r>
       <r>     1.3252    19.9177    86.5292 </r>
       <r>     1.4142    17.4180    88.0791 </r>
       <r>     1.5032    22.0769    90.0434 </r>
       <r>     1.5922    25.7980    92.3389 </r>
       <r>     1.6811    28.0323    94.8332 </r>
       <r>     1.7701    26.0124    97.1477 </r>
       <r>     1.8591    14.4580    98.4342 </r>
       <r>     1.9481    16.5175    99.9039 </r>
       <r>     2.0370    19.1534   101.6081 </r>
       <r>     2.1260    14.3298   102.8832 </r>
       <r>     2.2150    18.2340   104.5056 </r>
       <r>     2.3040    12.8985   105.6533 </r>
       <r>     2.3930    12.1733   106.7365 </r>
       <r>     2.4819     1.1577   106.8395 </r>
       <r>     2.5709    13.7949   108.0670 </r>
       <r>     2.6599    26.9687   110.4666 </r>
       <r>     2.7489    12.5918   111.5870 </r>
       <r>     2.8379     1.2791   111.7008 </r>
       <r>     2.9268    27.3937   114.1383 </r>
       <r>     3.0158    30.8595   116.8841 </r>
       <r>     3.1048    23.9259   119.0130 </r>
       <r>     3.1938    27.8482   121.4909 </r>
       <r>     3.2827    29.4852   124.1145 </r>
       <r>     3.3717    35.7378   127.2944 </r>
       <r>     3.4607    36.3505   130.5288 </r>
       <r>     3.5497    26.6467   132.8998 </r>
       <r>     3.6387    22.1953   134.8747 </r>
       <r>     3.7276    36.6832   138.1387 </r>
       <r>     3.8166    34.5041   141.2089 </r>
       <r>     3.9056    29.6040   143.8430 </r>
       <r>     3.9946    21.4068   145.7477 </r>
       <r>     4.0836    25.3764   148.0057 </r>
       <r>     4.1725    21.2088   149.8928 </r>
       <r>     4.2615    37.1153   153.1953 </r>
       <r>     4.3505    45.2109   157.2181 </r>
       <r>     4.4395    29.3540   159.8300 </r>
       <r>     4.5285    21.7293   161.7634 </r>
       <r>     4.6174    30.6260   164.4885 </r>
       <r>     4.7064    18.8304   166.1640 </r>
       <r>     4.7954     5.8639   166.6858 </r>
       <r>     4.8844    15.4454   168.0601 </r>
       <r>     4.9733    10.8777   169.0280 </r>
       <r>     5.0623    10.8265   169.9913 </r>
       <r>     5.1513    17.5229   171.5505 </r>
       <r>     5.2403    13.2463   172.7291 </r>
       <r>     5.3293     4.6133   173.1396 </r>
       <r>     5.4182    11.9249   174.2007 </r>
       <r>     5.5072    18.8699   175.8797 </r>
       <r>     5.5962     3.6895   176.2080 </r>
       <r>     5.6852    12.7841   177.3455 </r>
       <r>     5.7742    12.6938   178.4749 </r>
       <r>     5.8631    10.3921   179.3996 </r>
       <r>     5.9521     2.9925   179.6659 </r>
       <r>     6.0411    17.0583   181.1837 </r>
       <r>     6.1301    24.4645   183.3605 </r>
       <r>     6.2190    21.1742   185.2446 </r>
       <r>     6.3080    32.3515   188.1232 </r>
       <r>     6.3970    17.5107   189.6813 </r>
       <r>     6.4860    15.9337   191.0990 </r>
       <r>     6.5750     5.3970   191.5793 </r>
       <r>     6.6639     4.4191   191.9725 </r>
       <r>     6.7529     0.5301   192.0196 </r>
       <r>     6.8419    -0.0491   192.0153 </r>
       <r>     6.9309     0.0059   192.0158 </r>
       <r>     7.0199    -0.0422   192.0120 </r>
       <r>     7.1088     0.6870   192.0732 </r>
       <r>     7.1978     0.4991   192.1176 </r>
       <r>     7.2868    -0.1762   192.1019 </r>
       <r>     7.3758     1.1254   192.2020 </r>
       <r>     7.4647     1.0761   192.2978 </r>
       <r>     7.5537     0.8826   192.3763 </r>
       <r>     7.6427     4.7427   192.7983 </r>
       <r>     7.7317     1.6650   192.9465 </r>
       <r>     7.8207     0.2754   192.9710 </r>
       <r>     7.9096     4.5050   193.3718 </r>
       <r>     7.9986    10.2570   194.2845 </r>
       <r>     8.0876     5.7213   194.7935 </r>
       <r>     8.1766     9.2530   195.6168 </r>
       <r>     8.2656     9.1421   196.4303 </r>
       <r>     8.3545    11.9511   197.4937 </r>
       <r>     8.4435     3.3253   197.7896 </r>
       <r>     8.5325     7.4133   198.4492 </r>
       <r>     8.6215    14.4320   199.7333 </r>
       <r>     8.7105    12.9952   200.8896 </r>
       <r>     8.7994     7.6386   201.5693 </r>
       <r>     8.8884     3.6290   201.8922 </r>
       <r>     8.9774    18.1792   203.5098 </r>
       <r>     9.0664    18.1433   205.1241 </r>
       <r>     9.1553     4.8910   205.5593 </r>
       <r>     9.2443    20.7136   207.4024 </r>
       <r>     9.3333    13.1936   208.5764 </r>
       <r>     9.4223    12.2131   209.6631 </r>
       <r>     9.5113    34.9185   212.7701 </r>
       <r>     9.6002    34.4556   215.8359 </r>
       <r>     9.6892    25.4783   218.1029 </r>
       <r>     9.7782    19.9338   219.8766 </r>
       <r>     9.8672    24.5610   222.0620 </r>
       <r>     9.9562    25.1210   224.2972 </r>
       <r>    10.0451     9.5736   225.1491 </r>
       <r>    10.1341    19.4627   226.8809 </r>
       <r>    10.2231    17.1479   228.4066 </r>
       <r>    10.3121     7.5887   229.0819 </r>
       <r>    10.4010    11.3151   230.0887 </r>
       <r>    10.4900    37.2373   233.4020 </r>
       <r>    10.5790    22.9245   235.4418 </r>
       <r>    10.6680    23.8726   237.5660 </r>
       <r>    10.7570    24.8445   239.7766 </r>
       <r>    10.8459    21.0313   241.6479 </r>
       <r>    10.9349    37.9587   245.0254 </r>
       <r>    11.0239    31.8832   247.8624 </r>
       <r>    11.1129     6.8945   248.4758 </r>
       <r>    11.2019     4.1255   248.8429 </r>
       <r>    11.2908     9.5930   249.6965 </r>
       <r>    11.3798     6.4115   250.2670 </r>
       <r>    11.4688    14.8688   251.5900 </r>
       <r>    11.5578     2.8680   251.8452 </r>
       <r>    11.6467    11.3080   252.8513 </r>
       <r>    11.7357    28.3317   255.3723 </r>
       <r>    11.8247    27.7621   257.8425 </r>
       <r>    11.9137    22.9974   259.8888 </r>
       <r>    12.0027    22.5121   261.8919 </r>
       <r>    12.0916    15.3782   263.2602 </r>
       <r>    12.1806    27.1150   265.6729 </r>
       <r>    12.2696    30.1079   268.3518 </r>
       <r>    12.3586    23.9234   270.4805 </r>
       <r>    12.4476    20.1565   272.2740 </r>
       <r>    12.5365    22.2184   274.2510 </r>
       <r>    12.6255    28.3949   276.7775 </r>
       <r>    12.7145    36.2510   280.0031 </r>
       <r>    12.8035    23.5049   282.0945 </r>
       <r>    12.8925    19.8323   283.8592 </r>
       <r>    12.9814    30.5828   286.5804 </r>
       <r>    13.0704    23.8751   288.7048 </r>
       <r>    13.1594    23.7691   290.8197 </r>
       <r>    13.2484    23.1634   292.8807 </r>
       <r>    13.3373    28.2273   295.3924 </r>
       <r>    13.4263    26.5128   297.7514 </r>
       <r>    13.5153    17.2475   299.2861 </r>
       <r>    13.6043    14.3178   300.5601 </r>
       <r>    13.6933    28.4896   303.0951 </r>
       <r>    13.7822    21.9042   305.0441 </r>
       <r>    13.8712    10.6093   305.9881 </r>
       <r>    13.9602    12.4639   307.0971 </r>
       <r>    14.0492     6.6683   307.6904 </r>
       <r>    14.1382    13.2734   308.8715 </r>
       <r>    14.2271    13.0503   310.0327 </r>
       <r>    14.3161     5.3034   310.5046 </r>
       <r>    14.4051     2.8474   310.7579 </r>
       <r>    14.4941     5.1977   311.2204 </r>
       <r>    14.5830     2.1802   311.4144 </r>
       <r>    14.6720     3.6744   311.7413 </r>
       <r>    14.7610     1.6790   311.8907 </r>
       <r>    14.8500     0.8466   311.9661 </r>
       <r>    14.9390     0.0338   311.9691 </r>
       <r>    15.0279    -0.0292   311.9665 </r>
       <r>    15.1169     0.0873   311.9742 </r>
       <r>    15.2059     0.2818   311.9993 </r>
       <r>    15.2949     0.0125   312.0004 </r>
       <r>    15.3839    -0.0059   311.9999 </r>
       <r>    15.4728     0.0011   312.0000 </r>
       <r>    15.5618     0.0000   312.0000 </r>
       <r>    15.6508     0.0000   312.0000 </r>
       <r>    15.7398     0.0000   312.0000 </r>
       <r>    15.8287     0.0000   312.0000 </r>
       <r>    15.9177     0.0000   312.0000 </r>
       <r>    16.0067     0.0000   312.0000 </r>
       <r>    16.0957     0.0000   312.0000 </r>
       <r>    16.1847     0.0000   312.0000 </r>
       <r>    16.2736     0.0000   312.0000 </r>
       <r>    16.3626     0.0000   312.0000 </r>
      </set>
     </set>
    </array>
   </total>
  </dos>
 </calculation>
 <structure name="finalpos" >
  <crystal>
   <varray name="basis" >
    <v>       8.32495477       0.00000000       0.00000000 </v>
    <v>       0.00000000       8.32495477       0.00000000 </v>
    <v>       0.00000000       0.00000000       8.32495477 </v>
   </varray>
   <i name="volume">    576.95992333 </i>
   <varray name="rec_basis" >
    <v>       0.12012077      -0.00000000       0.00000000 </v>
    <v>      -0.00000000       0.12012077       0.00000000 </v>
    <v>      -0.00000000      -0.00000000       0.12012077 </v>
   </varray>
  </crystal>
  <varray name="positions" >
   <v>       0.87500000       0.87500000       0.12500000 </v>
   <v>       0.37500000       0.12500000       0.37500000 </v>
   <v>       0.62500000       0.87500000       0.37500000 </v>
   <v>       0.12500000       0.12500000       0.12500000 </v>
   <v>       0.25000000       0.75000000       0.25000000 </v>
   <v>      -0.00000000      -0.00000000       0.50000000 </v>
   <v>       0.87500000       0.37500000       0.62500000 </v>
   <v>       0.37500000       0.62500000       0.87500000 </v>
   <v>       0.62500000       0.37500000       0.87500000 </v>
   <v>       0.12500000       0.62500000       0.62500000 </v>
   <v>       0.25000000       0.25000000       0.75000000 </v>
   <v>      -0.00000000       0.50000000      -0.00000000 </v>
   <v>       0.37500000       0.87500000       0.62500000 </v>
   <v>       0.87500000       0.12500000       0.87500000 </v>
   <v>       0.12500000       0.87500000       0.87500000 </v>
   <v>       0.62500000       0.12500000       0.62500000 </v>
   <v>       0.75000000       0.75000000       0.75000000 </v>
   <v>       0.50000000      -0.00000000      -0.00000000 </v>
   <v>       0.37500000       0.37500000       0.12500000 </v>
   <v>       0.87500000       0.62500000       0.37500000 </v>
   <v>       0.12500000       0.37500000       0.37500000 </v>
   <v>       0.62500000       0.62500000       0.12500000 </v>
   <v>       0.75000000       0.25000000       0.25000000 </v>
   <v>       0.50000000       0.50000000       0.50000000 </v>
   <v>       0.37642668       0.37642668       0.37642668 </v>
   <v>       0.87357332       0.12642668       0.12642668 </v>
   <v>       0.62642668       0.12642668       0.37357332 </v>
   <v>       0.12642668       0.87357332       0.12642668 </v>
   <v>       0.12357332       0.12357332       0.37642668 </v>
   <v>       0.12357332       0.37642668       0.12357332 </v>
   <v>       0.37357332       0.87357332       0.37357332 </v>
   <v>       0.37642668       0.12357332       0.12357332 </v>
   <v>       0.37642668       0.87642668       0.87642668 </v>
   <v>       0.87357332       0.62642668       0.62642668 </v>
   <v>       0.62642668       0.62642668       0.87357332 </v>
   <v>       0.12642668       0.37357332       0.62642668 </v>
   <v>       0.12357332       0.62357332       0.87642668 </v>
   <v>       0.12357332       0.87642668       0.62357332 </v>
   <v>       0.37357332       0.37357332       0.87357332 </v>
   <v>       0.37642668       0.62357332       0.62357332 </v>
   <v>       0.87642668       0.37642668       0.87642668 </v>
   <v>       0.37357332       0.12642668       0.62642668 </v>
   <v>       0.12642668       0.12642668       0.87357332 </v>
   <v>       0.62642668       0.87357332       0.62642668 </v>
   <v>       0.62357332       0.12357332       0.87642668 </v>
   <v>       0.62357332       0.37642668       0.62357332 </v>
   <v>       0.87357332       0.87357332       0.87357332 </v>
   <v>       0.87642668       0.12357332       0.62357332 </v>
   <v>       0.87642668       0.87642668       0.37642668 </v>
   <v>       0.37357332       0.62642668       0.12642668 </v>
   <v>       0.12642668       0.62642668       0.37357332 </v>
   <v>       0.62642668       0.37357332       0.12642668 </v>
   <v>       0.62357332       0.62357332       0.37642668 </v>
   <v>       0.62357332       0.87642668       0.12357332 </v>
   <v>       0.87357332       0.37357332       0.37357332 </v>
   <v>       0.87642668       0.62357332       0.12357332 </v>
  </varray>
 </structure>
</modeling>
