unknown system                          
           1
     8.324955    0.000000    0.000000
     0.000000    8.324955    0.000000
     0.000000    0.000000    8.324955
   Si   N 
  24  32
Direct configuration=     1
   0.87500000  0.87500000  0.12500000
   0.37500000  0.12500000  0.37500000
   0.62500000  0.87500000  0.37500000
   0.12500000  0.12500000  0.12500000
   0.25000000  0.75000000  0.25000000
   0.00000000  0.00000000  0.50000000
   0.87500000  0.37500000  0.62500000
   0.37500000  0.62500000  0.87500000
   0.62500000  0.37500000  0.87500000
   0.12500000  0.62500000  0.62500000
   0.25000000  0.25000000  0.75000000
   0.00000000  0.50000000  0.00000000
   0.37500000  0.87500000  0.62500000
   0.87500000  0.12500000  0.87500000
   0.12500000  0.87500000  0.87500000
   0.62500000  0.12500000  0.62500000
   0.75000000  0.75000000  0.75000000
   0.50000000  0.00000000  0.00000000
   0.37500000  0.37500000  0.12500000
   0.87500000  0.62500000  0.37500000
   0.12500000  0.37500000  0.37500000
   0.62500000  0.62500000  0.12500000
   0.75000000  0.25000000  0.25000000
   0.50000000  0.50000000  0.50000000
   0.37630293  0.37630293  0.37630293
   0.87369707  0.12630293  0.12630293
   0.62630293  0.12630293  0.37369707
   0.12630293  0.87369707  0.12630293
   0.12369707  0.12369707  0.37630293
   0.12369707  0.37630293  0.12369707
   0.37369707  0.87369707  0.37369707
   0.37630293  0.12369707  0.12369707
   0.37630293  0.87630293  0.87630293
   0.87369707  0.62630293  0.62630293
   0.62630293  0.62630293  0.87369707
   0.12630293  0.37369707  0.62630293
   0.12369707  0.62369707  0.87630293
   0.12369707  0.87630293  0.62369707
   0.37369707  0.37369707  0.87369707
   0.37630293  0.62369707  0.62369707
   0.87630293  0.37630293  0.87630293
   0.37369707  0.12630293  0.62630293
   0.12630293  0.12630293  0.87369707
   0.62630293  0.87369707  0.62630293
   0.62369707  0.12369707  0.87630293
   0.62369707  0.37630293  0.62369707
   0.87369707  0.87369707  0.87369707
   0.87630293  0.12369707  0.62369707
   0.87630293  0.87630293  0.37630293
   0.37369707  0.62630293  0.12630293
   0.12630293  0.62630293  0.37369707
   0.62630293  0.37369707  0.12630293
   0.62369707  0.62369707  0.37630293
   0.62369707  0.87630293  0.12369707
   0.87369707  0.37369707  0.37369707
   0.87630293  0.62369707  0.12369707
Direct configuration=     2
   0.87500000  0.87500000  0.12500000
   0.37500000  0.12500000  0.37500000
   0.62500000  0.87500000  0.37500000
   0.12500000  0.12500000  0.12500000
   0.25000000  0.75000000  0.25000000
  -0.00000000 -0.00000000  0.50000000
   0.87500000  0.37500000  0.62500000
   0.37500000  0.62500000  0.87500000
   0.62500000  0.37500000  0.87500000
   0.12500000  0.62500000  0.62500000
   0.25000000  0.25000000  0.75000000
  -0.00000000  0.50000000 -0.00000000
   0.37500000  0.87500000  0.62500000
   0.87500000  0.12500000  0.87500000
   0.12500000  0.87500000  0.87500000
   0.62500000  0.12500000  0.62500000
   0.75000000  0.75000000  0.75000000
   0.50000000 -0.00000000 -0.00000000
   0.37500000  0.37500000  0.12500000
   0.87500000  0.62500000  0.37500000
   0.12500000  0.37500000  0.37500000
   0.62500000  0.62500000  0.12500000
   0.75000000  0.25000000  0.25000000
   0.50000000  0.50000000  0.50000000
   0.37655294  0.37655294  0.37655294
   0.87344706  0.12655294  0.12655294
   0.62655294  0.12655294  0.37344706
   0.12655294  0.87344706  0.12655294
   0.12344706  0.12344706  0.37655294
   0.12344706  0.37655294  0.12344706
   0.37344706  0.87344706  0.37344706
   0.37655294  0.12344706  0.12344706
   0.37655294  0.87655294  0.87655294
   0.87344706  0.62655294  0.62655294
   0.62655294  0.62655294  0.87344706
   0.12655294  0.37344706  0.62655294
   0.12344706  0.62344706  0.87655294
   0.12344706  0.87655294  0.62344706
   0.37344706  0.37344706  0.87344706
   0.37655294  0.62344706  0.62344706
   0.87655294  0.37655294  0.87655294
   0.37344706  0.12655294  0.62655294
   0.12655294  0.12655294  0.87344706
   0.62655294  0.87344706  0.62655294
   0.62344706  0.12344706  0.87655294
   0.62344706  0.37655294  0.62344706
   0.87344706  0.87344706  0.87344706
   0.87655294  0.12344706  0.62344706
   0.87655294  0.87655294  0.37655294
   0.37344706  0.62655294  0.12655294
   0.12655294  0.62655294  0.37344706
   0.62655294  0.37344706  0.12655294
   0.62344706  0.62344706  0.37655294
   0.62344706  0.87655294  0.12344706
   0.87344706  0.37344706  0.37344706
   0.87655294  0.62344706  0.12344706
Direct configuration=     3
   0.87500000  0.87500000  0.12500000
   0.37500000  0.12500000  0.37500000
   0.62500000  0.87500000  0.37500000
   0.12500000  0.12500000  0.12500000
   0.25000000  0.75000000  0.25000000
  -0.00000000 -0.00000000  0.50000000
   0.87500000  0.37500000  0.62500000
   0.37500000  0.62500000  0.87500000
   0.62500000  0.37500000  0.87500000
   0.12500000  0.62500000  0.62500000
   0.25000000  0.25000000  0.75000000
  -0.00000000  0.50000000 -0.00000000
   0.37500000  0.87500000  0.62500000
   0.87500000  0.12500000  0.87500000
   0.12500000  0.87500000  0.87500000
   0.62500000  0.12500000  0.62500000
   0.75000000  0.75000000  0.75000000
   0.50000000 -0.00000000 -0.00000000
   0.37500000  0.37500000  0.12500000
   0.87500000  0.62500000  0.37500000
   0.12500000  0.37500000  0.37500000
   0.62500000  0.62500000  0.12500000
   0.75000000  0.25000000  0.25000000
   0.50000000  0.50000000  0.50000000
   0.37642668  0.37642668  0.37642668
   0.87357332  0.12642668  0.12642668
   0.62642668  0.12642668  0.37357332
   0.12642668  0.87357332  0.12642668
   0.12357332  0.12357332  0.37642668
   0.12357332  0.37642668  0.12357332
   0.37357332  0.87357332  0.37357332
   0.37642668  0.12357332  0.12357332
   0.37642668  0.87642668  0.87642668
   0.87357332  0.62642668  0.62642668
   0.62642668  0.62642668  0.87357332
   0.12642668  0.37357332  0.62642668
   0.12357332  0.62357332  0.87642668
   0.12357332  0.87642668  0.62357332
   0.37357332  0.37357332  0.87357332
   0.37642668  0.62357332  0.62357332
   0.87642668  0.37642668  0.87642668
   0.37357332  0.12642668  0.62642668
   0.12642668  0.12642668  0.87357332
   0.62642668  0.87357332  0.62642668
   0.62357332  0.12357332  0.87642668
   0.62357332  0.37642668  0.62357332
   0.87357332  0.87357332  0.87357332
   0.87642668  0.12357332  0.62357332
   0.87642668  0.87642668  0.37642668
   0.37357332  0.62642668  0.12642668
   0.12642668  0.62642668  0.37357332
   0.62642668  0.37357332  0.12642668
   0.62357332  0.62357332  0.37642668
   0.62357332  0.87642668  0.12357332
   0.87357332  0.37357332  0.37357332
   0.87642668  0.62357332  0.12357332
