  56  56   0   0
  0.1196165E+02  0.8749697E-09  0.8749697E-09  0.8749697E-09  0.5000000E-15
  1.000000000000000E-004
  CAR 
 unknown system                          
     13.46854793    -10.72353220  301      8.85002642      1.00000000
    -10.724  0.0000E+00  0.0000E+00
    -10.643  0.0000E+00  0.0000E+00
    -10.562  0.0000E+00  0.0000E+00
    -10.482  0.1886E-32  0.1521E-33
    -10.401  0.7415E-27  0.5979E-28
    -10.320  0.7658E-22  0.6175E-23
    -10.240  0.2070E-17  0.1669E-18
    -10.159  0.1456E-13  0.1174E-14
    -10.078  0.2631E-10  0.2123E-11
     -9.998  0.1211E-07  0.9784E-09
     -9.917  0.1384E-05  0.1126E-06
     -9.836  0.3533E-04  0.2962E-05
     -9.756  0.6177E-04  0.7943E-05
     -9.675 -0.9078E-03 -0.6527E-04
     -9.595  0.6322E-02  0.4445E-03
     -9.514  0.2764E-01  0.2674E-02
     -9.433  0.4313E-01  0.6152E-02
     -9.353  0.6611E-01  0.1148E-01
     -9.272  0.5998E-01  0.1632E-01
     -9.191  0.1012E+00  0.2448E-01
     -9.111  0.1096E+00  0.3332E-01
     -9.030  0.1376E+00  0.4442E-01
     -8.949  0.2129E+00  0.6159E-01
     -8.869  0.1407E+00  0.7294E-01
     -8.788  0.1840E+00  0.8777E-01
     -8.708  0.3850E+00  0.1188E+00
     -8.627  0.3200E+00  0.1446E+00
     -8.546  0.1647E+00  0.1579E+00
     -8.466  0.3118E-01  0.1604E+00
     -8.385 -0.6240E-02  0.1599E+00
     -8.304 -0.1297E-01  0.1589E+00
     -8.224  0.1617E+00  0.1719E+00
     -8.143  0.4046E+00  0.2045E+00
     -8.062  0.3051E+00  0.2291E+00
     -7.982  0.1383E+00  0.2403E+00
     -7.901  0.5125E-01  0.2444E+00
     -7.820  0.3239E-01  0.2470E+00
     -7.740  0.9543E-01  0.2547E+00
     -7.659  0.1623E+00  0.2678E+00
     -7.579  0.6529E-01  0.2731E+00
     -7.498  0.7554E-01  0.2792E+00
     -7.417  0.1675E+00  0.2927E+00
     -7.337  0.1056E+00  0.3012E+00
     -7.256  0.5891E-01  0.3060E+00
     -7.175  0.6736E-01  0.3114E+00
     -7.095  0.5756E-01  0.3160E+00
     -7.014 -0.4105E-01  0.3127E+00
     -6.933  0.2944E+00  0.3365E+00
     -6.853  0.1351E+01  0.4454E+00
     -6.772  0.5042E+00  0.4861E+00
     -6.692 -0.8030E-01  0.4796E+00
     -6.611  0.2995E-02  0.4798E+00
     -6.530  0.2205E-02  0.4800E+00
     -6.450  0.5885E-04  0.4800E+00
     -6.369  0.3109E-06  0.4800E+00
     -6.288  0.3883E-09  0.4800E+00
     -6.208  0.1219E-12  0.4800E+00
     -6.127  0.3304E-17  0.4800E+00
     -6.046  0.0000E+00  0.4800E+00
     -5.966  0.0000E+00  0.4800E+00
     -5.885  0.0000E+00  0.4800E+00
     -5.804  0.0000E+00  0.4800E+00
     -5.724  0.0000E+00  0.4800E+00
     -5.643  0.0000E+00  0.4800E+00
     -5.563  0.0000E+00  0.4800E+00
     -5.482  0.0000E+00  0.4800E+00
     -5.401  0.0000E+00  0.4800E+00
     -5.321  0.0000E+00  0.4800E+00
     -5.240  0.0000E+00  0.4800E+00
     -5.159  0.0000E+00  0.4800E+00
     -5.079  0.0000E+00  0.4800E+00
     -4.998  0.0000E+00  0.4800E+00
     -4.917  0.0000E+00  0.4800E+00
     -4.837  0.0000E+00  0.4800E+00
     -4.756  0.0000E+00  0.4800E+00
     -4.676  0.0000E+00  0.4800E+00
     -4.595  0.0000E+00  0.4800E+00
     -4.514  0.0000E+00  0.4800E+00
     -4.434  0.0000E+00  0.4800E+00
     -4.353  0.0000E+00  0.4800E+00
     -4.272  0.0000E+00  0.4800E+00
     -4.192  0.0000E+00  0.4800E+00
     -4.111  0.0000E+00  0.4800E+00
     -4.030  0.0000E+00  0.4800E+00
     -3.950  0.0000E+00  0.4800E+00
     -3.869  0.0000E+00  0.4800E+00
     -3.788  0.0000E+00  0.4800E+00
     -3.708  0.0000E+00  0.4800E+00
     -3.627  0.0000E+00  0.4800E+00
     -3.547  0.0000E+00  0.4800E+00
     -3.466  0.0000E+00  0.4800E+00
     -3.385  0.0000E+00  0.4800E+00
     -3.305  0.0000E+00  0.4800E+00
     -3.224  0.0000E+00  0.4800E+00
     -3.143  0.0000E+00  0.4800E+00
     -3.063  0.0000E+00  0.4800E+00
     -2.982  0.0000E+00  0.4800E+00
     -2.901  0.0000E+00  0.4800E+00
     -2.821  0.0000E+00  0.4800E+00
     -2.740  0.0000E+00  0.4800E+00
     -2.660  0.0000E+00  0.4800E+00
     -2.579  0.0000E+00  0.4800E+00
     -2.498  0.0000E+00  0.4800E+00
     -2.418  0.0000E+00  0.4800E+00
     -2.337  0.0000E+00  0.4800E+00
     -2.256  0.1687E-31  0.4800E+00
     -2.176  0.7479E-26  0.4800E+00
     -2.095  0.8332E-21  0.4800E+00
     -2.014  0.2451E-16  0.4800E+00
     -1.934  0.1890E-12  0.4800E+00
     -1.853  0.3744E-09  0.4800E+00
     -1.772  0.1842E-06  0.4800E+00
     -1.692  0.2076E-04  0.4800E+00
     -1.611  0.4103E-03  0.4800E+00
     -1.531 -0.7640E-03  0.4800E+00
     -1.450 -0.2804E-02  0.4797E+00
     -1.369  0.6416E-01  0.4849E+00
     -1.289  0.2046E+00  0.5014E+00
     -1.208  0.3463E+00  0.5293E+00
     -1.127  0.2992E+00  0.5535E+00
     -1.047  0.4407E+00  0.5890E+00
     -0.966  0.4467E+00  0.6250E+00
     -0.885  0.3241E+00  0.6512E+00
     -0.805  0.2950E+00  0.6750E+00
     -0.724  0.2659E+00  0.6964E+00
     -0.643  0.1655E+00  0.7097E+00
     -0.563  0.1722E+00  0.7236E+00
     -0.482  0.2058E+00  0.7402E+00
     -0.402  0.2071E+00  0.7569E+00
     -0.321  0.2872E+00  0.7801E+00
     -0.240  0.1775E+00  0.7944E+00
     -0.160  0.1654E+00  0.8077E+00
     -0.079  0.2387E+00  0.8270E+00
      0.002  0.1483E+00  0.8390E+00
      0.082  0.6907E-01  0.8445E+00
      0.163  0.1774E+00  0.8588E+00
      0.244  0.3424E+00  0.8864E+00
      0.324  0.3873E+00  0.9177E+00
      0.405  0.2896E+00  0.9410E+00
      0.485  0.1801E+00  0.9555E+00
      0.566  0.8911E-01  0.9627E+00
      0.647  0.1944E+00  0.9784E+00
      0.727  0.2274E+00  0.9967E+00
      0.808  0.2105E+00  0.1014E+01
      0.889  0.2114E+00  0.1031E+01
      0.969  0.1146E+00  0.1040E+01
      1.050  0.1287E+00  0.1050E+01
      1.131  0.7924E-01  0.1057E+01
      1.211  0.4336E-01  0.1060E+01
      1.292  0.8243E-01  0.1067E+01
      1.373  0.1176E+00  0.1076E+01
      1.453  0.1711E+00  0.1090E+01
      1.534  0.1726E+00  0.1104E+01
      1.614  0.5565E-01  0.1109E+01
      1.695  0.1181E+00  0.1118E+01
      1.776  0.7471E-01  0.1124E+01
      1.856  0.2124E+00  0.1141E+01
      1.937  0.4216E+00  0.1175E+01
      2.018  0.2256E+00  0.1193E+01
      2.098  0.1942E+00  0.1209E+01
      2.179  0.3051E+00  0.1234E+01
      2.260  0.4048E+00  0.1266E+01
      2.340  0.4246E+00  0.1301E+01
      2.421  0.3182E+00  0.1326E+01
      2.501  0.2742E+00  0.1348E+01
      2.582  0.4578E+00  0.1385E+01
      2.663  0.3116E+00  0.1410E+01
      2.743  0.3218E+00  0.1436E+01
      2.824  0.2094E+00  0.1453E+01
      2.905  0.2501E+00  0.1473E+01
      2.985  0.2151E+00  0.1491E+01
      3.066  0.3321E+00  0.1518E+01
      3.147  0.5544E+00  0.1562E+01
      3.227  0.4195E+00  0.1596E+01
      3.308  0.2345E+00  0.1615E+01
      3.389  0.2311E+00  0.1634E+01
      3.469  0.2740E+00  0.1656E+01
      3.550  0.1471E+00  0.1668E+01
      3.630  0.7115E-01  0.1673E+01
      3.711  0.1927E+00  0.1689E+01
      3.792  0.1395E+00  0.1700E+01
      3.872  0.1298E+00  0.1711E+01
      3.953  0.1360E+00  0.1722E+01
      4.034  0.9152E-01  0.1729E+01
      4.114  0.8520E-01  0.1736E+01
      4.195  0.1318E+00  0.1746E+01
      4.276  0.1699E+00  0.1760E+01
      4.356  0.5971E-01  0.1765E+01
      4.437  0.1140E+00  0.1774E+01
      4.517  0.1704E+00  0.1788E+01
      4.598  0.8482E-01  0.1795E+01
      4.679  0.4778E-01  0.1799E+01
      4.759  0.1821E+00  0.1813E+01
      4.840  0.2366E+00  0.1832E+01
      4.921  0.2299E+00  0.1851E+01
      5.001  0.3539E+00  0.1879E+01
      5.082  0.2057E+00  0.1896E+01
      5.163  0.1759E+00  0.1910E+01
      5.243  0.6977E-01  0.1916E+01
      5.324  0.4363E-01  0.1919E+01
      5.405  0.8958E-02  0.1920E+01
      5.485  0.2311E-01  0.1922E+01
      5.566  0.5504E-01  0.1926E+01
      5.646  0.2328E-01  0.1928E+01
      5.727  0.2686E-02  0.1928E+01
      5.808  0.1830E-01  0.1930E+01
      5.888  0.9110E-01  0.1937E+01
      5.969  0.6278E-01  0.1942E+01
      6.050  0.6867E-01  0.1948E+01
      6.130  0.7784E-01  0.1954E+01
      6.211  0.1056E+00  0.1963E+01
      6.292  0.1125E+00  0.1972E+01
      6.372  0.1381E-01  0.1973E+01
      6.453  0.1063E+00  0.1981E+01
      6.533  0.1434E+00  0.1993E+01
      6.614  0.9290E-01  0.2001E+01
      6.695  0.7785E-01  0.2007E+01
      6.775  0.8924E-01  0.2014E+01
      6.856  0.8171E-01  0.2021E+01
      6.937  0.1437E+00  0.2032E+01
      7.017  0.2270E+00  0.2050E+01
      7.098  0.2584E+00  0.2071E+01
      7.179  0.1946E+00  0.2087E+01
      7.259  0.1826E+00  0.2102E+01
      7.340  0.1788E+00  0.2116E+01
      7.421  0.2750E+00  0.2138E+01
      7.501  0.2100E+00  0.2155E+01
      7.582  0.2462E+00  0.2175E+01
      7.662  0.9023E-01  0.2182E+01
      7.743  0.2038E+00  0.2199E+01
      7.824  0.3327E+00  0.2226E+01
      7.904  0.3318E+00  0.2252E+01
      7.985  0.1440E+00  0.2264E+01
      8.066  0.2204E+00  0.2282E+01
      8.146  0.2288E+00  0.2300E+01
      8.227  0.3339E+00  0.2327E+01
      8.308  0.2670E+00  0.2349E+01
      8.388  0.1914E+00  0.2364E+01
      8.469  0.2047E+00  0.2381E+01
      8.549  0.2464E+00  0.2400E+01
      8.630  0.2431E+00  0.2420E+01
      8.711  0.3492E+00  0.2448E+01
      8.791  0.3062E+00  0.2473E+01
      8.872  0.1007E+00  0.2481E+01
      8.953  0.6436E-01  0.2486E+01
      9.033  0.4799E-01  0.2490E+01
      9.114  0.7142E-01  0.2496E+01
      9.195  0.1218E+00  0.2506E+01
      9.275  0.1225E+00  0.2516E+01
      9.356  0.9005E-01  0.2523E+01
      9.437  0.2132E+00  0.2540E+01
      9.517  0.2293E+00  0.2559E+01
      9.598  0.1633E+00  0.2572E+01
      9.678  0.2338E+00  0.2591E+01
      9.759  0.2307E+00  0.2609E+01
      9.840  0.1485E+00  0.2621E+01
      9.920  0.2829E+00  0.2644E+01
     10.001  0.2513E+00  0.2664E+01
     10.082  0.1090E+00  0.2673E+01
     10.162  0.2447E+00  0.2693E+01
     10.243  0.4027E+00  0.2725E+01
     10.324  0.4013E+00  0.2758E+01
     10.404  0.3726E+00  0.2788E+01
     10.485  0.2951E+00  0.2811E+01
     10.565  0.2443E+00  0.2831E+01
     10.646  0.2368E+00  0.2850E+01
     10.727  0.3411E+00  0.2878E+01
     10.807  0.3247E+00  0.2904E+01
     10.888  0.3425E+00  0.2932E+01
     10.969  0.3126E+00  0.2957E+01
     11.049  0.1307E+00  0.2967E+01
     11.130  0.1727E+00  0.2981E+01
     11.211  0.1569E+00  0.2994E+01
     11.291  0.1135E+00  0.3003E+01
     11.372  0.2195E+00  0.3021E+01
     11.453  0.3379E+00  0.3048E+01
     11.533  0.1778E+00  0.3062E+01
     11.614  0.1672E+00  0.3076E+01
     11.694  0.1541E+00  0.3088E+01
     11.775  0.1187E+00  0.3098E+01
     11.856  0.1213E+00  0.3108E+01
     11.936  0.6447E-01  0.3113E+01
     12.017  0.2108E-01  0.3114E+01
     12.098  0.1958E-01  0.3116E+01
     12.178  0.3101E-01  0.3119E+01
     12.259  0.1179E-01  0.3119E+01
     12.340  0.7082E-03  0.3120E+01
     12.420  0.5648E-02  0.3120E+01
     12.501  0.4253E-03  0.3120E+01
     12.582 -0.1967E-03  0.3120E+01
     12.662  0.3121E-04  0.3120E+01
     12.743  0.2479E-05  0.3120E+01
     12.823  0.2693E-07  0.3120E+01
     12.904  0.6259E-10  0.3120E+01
     12.985  0.3481E-13  0.3120E+01
     13.065  0.4846E-17  0.3120E+01
     13.146  0.0000E+00  0.3120E+01
     13.227  0.0000E+00  0.3120E+01
     13.307  0.0000E+00  0.3120E+01
     13.388  0.0000E+00  0.3120E+01
     13.469  0.0000E+00  0.3120E+01
