   56   56  100    1
  0.1196165E+02  0.8749697E-09  0.8749697E-09  0.8749697E-09  0.5000000E-15
  1.000000000000000E-004
  CAR 
 unknown system                          
    248     10    156
 
  0.3742002E-15  0.3742002E-15  0.3742002E-15  0.8000000E-02
    1       -9.623892   1.000000
    2       -8.833165   1.000000
    3       -8.833165   1.000000
    4       -8.833165   1.000000
    5       -8.833165   1.000000
    6       -8.833165   1.000000
    7       -8.833165   1.000000
    8       -8.523957   1.000000
    9       -7.993433   1.000000
   10       -7.939801   1.000000
   11       -7.939801   1.000000
   12       -7.939801   1.000000
   13       -7.939801   1.000000
   14       -7.939801   1.000000
   15       -7.939801   1.000000
   16       -6.948127   1.000000
   17       -6.948127   1.000000
   18       -6.948127   1.000000
   19       -6.948127   1.000000
   20       -6.948127   1.000000
   21       -6.948127   1.000000
   22       -6.844436   1.000000
   23       -6.844436   1.000000
   24       -6.844436   1.000000
   25       -1.390567   1.000000
   26       -1.390567   1.000000
   27       -1.390567   1.000000
   28       -1.105092   1.000000
   29       -1.017607   1.000000
   30       -1.017607   1.000000
   31       -1.017607   1.000000
   32       -1.017607   1.000000
   33       -1.017607   1.000000
   34       -1.017607   1.000000
   35       -0.182610   1.000000
   36       -0.182610   1.000000
   37       -0.182610   1.000000
   38       -0.182610   1.000000
   39       -0.182610   1.000000
   40       -0.182610   1.000000
   41        0.172471   1.000000
   42        0.172471   1.000000
   43        0.172471   1.000000
   44        0.395869   1.000000
   45        0.395869   1.000000
   46        0.395869   1.000000
   47        0.395869   1.000000
   48        0.395869   1.000000
   49        0.395869   1.000000
   50        0.772017   1.000000
   51        0.772017   1.000000
   52        0.772017   1.000000
   53        0.772017   1.000000
   54        0.772017   1.000000
   55        0.772017   1.000000
   56        1.129105   1.000000
   57        1.129105   1.000000
   58        2.423756   1.000000
   59        2.423756   1.000000
   60        2.423756   1.000000
   61        2.423756   1.000000
   62        2.423756   1.000000
   63        2.423756   1.000000
   64        2.465466   1.000000
   65        2.465466   1.000000
   66        2.465466   1.000000
   67        2.465466   1.000000
   68        2.465466   1.000000
   69        2.465466   1.000000
   70        2.511375   1.000000
   71        2.511375   1.000000
   72        2.511375   1.000000
   73        2.511375   1.000000
   74        2.511375   1.000000
   75        2.511375   1.000000
   76        2.657970   1.000000
   77        2.657970   1.000000
   78        2.657970   1.000000
   79        3.073514   1.000000
   80        3.073514   1.000000
   81        3.073514   1.000000
   82        3.073514   1.000000
   83        3.073514   1.000000
   84        3.073514   1.000000
   85        4.130720   1.000000
   86        4.282010   1.000000
   87        4.282010   1.000000
   88        4.282010   1.000000
   89        4.921138   1.000000
   90        4.921138   1.000000
   91        4.921138   1.000000
   92        4.921138   1.000000
   93        4.921138   1.000000
   94        4.921138   1.000000
   95        5.361906   1.000000
   96        5.361906   1.000000
   97        5.361906   1.000000
   98        6.788558   1.000000
   99        6.788558   1.000000
  100        6.788558   1.000000
  101        7.194583   1.000000
  102        7.194583   1.000000
  103        7.194583   1.000000
  104        7.194583   1.000000
  105        7.194583   1.000000
  106        7.194583   1.000000
  107        7.884660   1.000000
  108        7.884660   1.000000
  109        7.884660   1.000000
  110        7.884660   1.000000
  111        7.884660   1.000000
  112        7.884660   1.000000
  113        7.908852   1.000000
  114        7.908852   1.000000
  115        7.908852   1.000000
  116        7.908852   1.000000
  117        7.908852   1.000000
  118        7.908852   1.000000
  119        8.236330   1.000000
  120        8.236330   1.000000
  121        8.236330   1.000000
  122        8.308415   1.000000
  123        8.308415   1.000000
  124        8.308415   1.000000
  125        8.308415   1.000000
  126        8.308415   1.000000
  127        8.308415   1.000000
  128        9.848630   0.000000
  129       10.187483   0.000000
  130       10.187483   0.000000
  131       10.187483   0.000000
  132       10.187483   0.000000
  133       10.187483   0.000000
  134       10.187483   0.000000
  135       10.239034   0.000000
  136       10.239034   0.000000
  137       10.239034   0.000000
  138       10.239034   0.000000
  139       10.239034   0.000000
  140       10.239034   0.000000
  141       10.352056   0.000000
  142       10.352056   0.000000
  143       10.387424   0.000000
  144       10.387424   0.000000
  145       10.387424   0.000000
  146       10.387424   0.000000
  147       10.387424   0.000000
  148       10.387424   0.000000
  149       10.589909   0.000000
  150       11.117143   0.000000
  151       11.117146   0.000000
  152       11.117154   0.000000
  153       12.350987   0.000000
  154       12.363336   0.000000
  155       12.366721   0.000000
  156       12.368908   0.000000
 
  0.2000000E+00  0.3742002E-15  0.3742002E-15  0.4800000E-01
    1       -9.579690   1.000000
    2       -9.030913   1.000000
    3       -8.824629   1.000000
    4       -8.824629   1.000000
    5       -8.824629   1.000000
    6       -8.824629   1.000000
    7       -8.704963   1.000000
    8       -8.536863   1.000000
    9       -8.064094   1.000000
   10       -8.010347   1.000000
   11       -7.966249   1.000000
   12       -7.966249   1.000000
   13       -7.966249   1.000000
   14       -7.966249   1.000000
   15       -7.692660   1.000000
   16       -6.938521   1.000000
   17       -6.938521   1.000000
   18       -6.925584   1.000000
   19       -6.925584   1.000000
   20       -6.925584   1.000000
   21       -6.925584   1.000000
   22       -6.912203   1.000000
   23       -6.854351   1.000000
   24       -6.854351   1.000000
   25       -1.374440   1.000000
   26       -1.374440   1.000000
   27       -1.279754   1.000000
   28       -1.078767   1.000000
   29       -1.078767   1.000000
   30       -1.017382   1.000000
   31       -0.973912   1.000000
   32       -0.973912   1.000000
   33       -0.973912   1.000000
   34       -0.973912   1.000000
   35       -0.428309   1.000000
   36       -0.314758   1.000000
   37       -0.314758   1.000000
   38       -0.314758   1.000000
   39       -0.314758   1.000000
   40       -0.122872   1.000000
   41       -0.089720   1.000000
   42        0.101139   1.000000
   43        0.272371   1.000000
   44        0.272371   1.000000
   45        0.378535   1.000000
   46        0.378535   1.000000
   47        0.378535   1.000000
   48        0.378535   1.000000
   49        0.578760   1.000000
   50        0.810164   1.000000
   51        0.810164   1.000000
   52        0.864720   1.000000
   53        0.864720   1.000000
   54        0.864720   1.000000
   55        0.864720   1.000000
   56        1.185311   1.000000
   57        1.552499   1.000000
   58        1.983456   1.000000
   59        2.103382   1.000000
   60        2.103382   1.000000
   61        2.103382   1.000000
   62        2.103382   1.000000
   63        2.334840   1.000000
   64        2.348641   1.000000
   65        2.348641   1.000000
   66        2.530744   1.000000
   67        2.530744   1.000000
   68        2.530744   1.000000
   69        2.530744   1.000000
   70        2.602811   1.000000
   71        2.602811   1.000000
   72        2.662199   1.000000
   73        2.691317   1.000000
   74        2.888625   1.000000
   75        2.888625   1.000000
   76        2.888625   1.000000
   77        2.888625   1.000000
   78        2.912571   1.000000
   79        3.106722   1.000000
   80        3.106722   1.000000
   81        3.106722   1.000000
   82        3.106722   1.000000
   83        3.245551   1.000000
   84        3.245551   1.000000
   85        4.102014   1.000000
   86        4.102014   1.000000
   87        4.165622   1.000000
   88        4.168593   1.000000
   89        4.760978   1.000000
   90        4.760978   1.000000
   91        4.760978   1.000000
   92        4.760978   1.000000
   93        4.946337   1.000000
   94        4.946337   1.000000
   95        5.269768   1.000000
   96        5.269768   1.000000
   97        5.453225   1.000000
   98        6.722903   1.000000
   99        6.846396   1.000000
  100        7.027582   1.000000
  101        7.144419   1.000000
  102        7.144419   1.000000
  103        7.180125   1.000000
  104        7.180125   1.000000
  105        7.180125   1.000000
  106        7.180125   1.000000
  107        7.532919   1.000000
  108        7.533879   1.000000
  109        7.533879   1.000000
  110        7.533879   1.000000
  111        7.533879   1.000000
  112        7.734614   1.000000
  113        7.856385   1.000000
  114        7.856385   1.000000
  115        8.016437   1.000000
  116        8.016437   1.000000
  117        8.016437   1.000000
  118        8.016437   1.000000
  119        8.220788   1.000000
  120        8.220788   1.000000
  121        8.545000   0.999765
  122        8.545000   0.999765
  123        8.674705   0.998295
  124        8.709110   1.018179
  125        8.709110   1.018179
  126        8.709110   1.018179
  127        8.709110   1.018179
  128        9.744025   0.000000
  129        9.744025   0.000000
  130        9.744025   0.000000
  131        9.744026   0.000000
  132        9.989439   0.000000
  133       10.084189   0.000000
  134       10.084189   0.000000
  135       10.122237   0.000000
  136       10.158923   0.000000
  137       10.314681   0.000000
  138       10.359847   0.000000
  139       10.364977   0.000000
  140       10.386582   0.000000
  141       10.386582   0.000000
  142       10.386583   0.000000
  143       10.386584   0.000000
  144       10.678528   0.000000
  145       10.678529   0.000000
  146       10.678529   0.000000
  147       10.678530   0.000000
  148       10.878612   0.000000
  149       11.045940   0.000000
  150       11.059020   0.000000
  151       11.061286   0.000000
  152       11.061286   0.000000
  153       11.762914   0.000000
  154       12.155543   0.000000
  155       12.160258   0.000000
  156       12.167573   0.000000
 
  0.4000000E+00  0.3742002E-15  0.3742002E-15  0.4800000E-01
    1       -9.451958   1.000000
    2       -9.257153   1.000000
    3       -8.810019   1.000000
    4       -8.810019   1.000000
    5       -8.810019   1.000000
    6       -8.810019   1.000000
    7       -8.626947   1.000000
    8       -8.572628   1.000000
    9       -8.082651   1.000000
   10       -8.049789   1.000000
   11       -8.007963   1.000000
   12       -8.007963   1.000000
   13       -8.007963   1.000000
   14       -8.007963   1.000000
   15       -7.386188   1.000000
   16       -7.104791   1.000000
   17       -6.912866   1.000000
   18       -6.912866   1.000000
   19       -6.890612   1.000000
   20       -6.890612   1.000000
   21       -6.890612   1.000000
   22       -6.890612   1.000000
   23       -6.880623   1.000000
   24       -6.880623   1.000000
   25       -1.315039   1.000000
   26       -1.315039   1.000000
   27       -1.205631   1.000000
   28       -1.205631   1.000000
   29       -0.966985   1.000000
   30       -0.854982   1.000000
   31       -0.854982   1.000000
   32       -0.854982   1.000000
   33       -0.854982   1.000000
   34       -0.773746   1.000000
   35       -0.558057   1.000000
   36       -0.551431   1.000000
   37       -0.551431   1.000000
   38       -0.551431   1.000000
   39       -0.551431   1.000000
   40       -0.520584   1.000000
   41       -0.376180   1.000000
   42       -0.307022   1.000000
   43        0.357007   1.000000
   44        0.357007   1.000000
   45        0.357007   1.000000
   46        0.357007   1.000000
   47        0.521731   1.000000
   48        0.521731   1.000000
   49        0.763049   1.000000
   50        0.763049   1.000000
   51        1.001441   1.000000
   52        1.001441   1.000000
   53        1.001441   1.000000
   54        1.001441   1.000000
   55        1.072630   1.000000
   56        1.351130   1.000000
   57        1.620314   1.000000
   58        1.707882   1.000000
   59        1.846498   1.000000
   60        1.846498   1.000000
   61        1.846498   1.000000
   62        1.846498   1.000000
   63        2.252458   1.000000
   64        2.267606   1.000000
   65        2.267606   1.000000
   66        2.433548   1.000000
   67        2.433548   1.000000
   68        2.717274   1.000000
   69        2.728448   1.000000
   70        2.728449   1.000000
   71        2.728449   1.000000
   72        2.728449   1.000000
   73        3.032097   1.000000
   74        3.032097   1.000000
   75        3.032097   1.000000
   76        3.032097   1.000000
   77        3.254475   1.000000
   78        3.315251   1.000000
   79        3.315251   1.000000
   80        3.315251   1.000000
   81        3.315251   1.000000
   82        3.409826   1.000000
   83        3.496358   1.000000
   84        3.496358   1.000000
   85        3.770493   1.000000
   86        3.770493   1.000000
   87        3.848113   1.000000
   88        3.854657   1.000000
   89        4.456114   1.000000
   90        4.456114   1.000000
   91        4.456114   1.000000
   92        4.456114   1.000000
   93        5.021399   1.000000
   94        5.021399   1.000000
   95        5.136811   1.000000
   96        5.136811   1.000000
   97        5.901611   1.000000
   98        6.462923   1.000000
   99        6.512576   1.000000
  100        6.888493   1.000000
  101        7.011150   1.000000
  102        7.011150   1.000000
  103        7.011150   1.000000
  104        7.011150   1.000000
  105        7.046895   1.000000
  106        7.273594   1.000000
  107        7.515752   1.000000
  108        7.515752   1.000000
  109        7.515752   1.000000
  110        7.515752   1.000000
  111        7.720695   1.000000
  112        7.720695   1.000000
  113        7.841401   1.000000
  114        7.841401   1.000000
  115        8.010093   1.000000
  116        8.010093   1.000000
  117        8.010093   1.000000
  118        8.010093   1.000000
  119        8.311804   1.000000
  120        8.311804   1.000000
  121        8.704712   1.014507
  122        8.704712   1.014507
  123        9.060634   0.004741
  124        9.060634   0.004741
  125        9.060634   0.004741
  126        9.060634   0.004741
  127        9.485037   0.000000
  128        9.517423   0.000000
  129        9.517423   0.000000
  130        9.517423   0.000000
  131        9.517423   0.000000
  132       10.018706   0.000000
  133       10.018706   0.000000
  134       10.025116   0.000000
  135       10.146785   0.000000
  136       10.173210   0.000000
  137       10.227976   0.000000
  138       10.274866   0.000000
  139       10.441245   0.000000
  140       10.441246   0.000000
  141       10.441246   0.000000
  142       10.441247   0.000000
  143       10.620435   0.000000
  144       10.620436   0.000000
  145       10.675504   0.000000
  146       10.931716   0.000000
  147       10.931717   0.000000
  148       10.931718   0.000000
  149       10.931719   0.000000
  150       11.086198   0.000000
  151       11.138441   0.000000
  152       11.268279   0.000000
  153       11.886721   0.000000
  154       11.924571   0.000000
  155       11.944657   0.000000
  156       11.994376   0.000000
 
  0.2000000E+00  0.2000000E+00  0.3742002E-15  0.9600000E-01
    1       -9.536255   1.000000
    2       -9.005999   1.000000
    3       -9.005999   1.000000
    4       -8.841672   1.000000
    5       -8.800155   1.000000
    6       -8.710438   1.000000
    7       -8.710438   1.000000
    8       -8.549827   1.000000
    9       -8.096005   1.000000
   10       -8.096005   1.000000
   11       -8.093641   1.000000
   12       -8.030059   1.000000
   13       -7.860993   1.000000
   14       -7.718567   1.000000
   15       -7.718567   1.000000
   16       -6.985459   1.000000
   17       -6.934747   1.000000
   18       -6.920189   1.000000
   19       -6.920189   1.000000
   20       -6.915320   1.000000
   21       -6.915320   1.000000
   22       -6.886811   1.000000
   23       -6.859395   1.000000
   24       -6.850364   1.000000
   25       -1.396298   1.000000
   26       -1.266855   1.000000
   27       -1.266402   1.000000
   28       -1.081983   1.000000
   29       -1.081983   1.000000
   30       -1.014122   1.000000
   31       -1.000352   1.000000
   32       -1.000352   1.000000
   33       -0.888500   1.000000
   34       -0.833852   1.000000
   35       -0.627359   1.000000
   36       -0.527816   1.000000
   37       -0.527816   1.000000
   38       -0.241666   1.000000
   39       -0.202264   1.000000
   40       -0.202264   1.000000
   41       -0.161235   1.000000
   42        0.131321   1.000000
   43        0.131321   1.000000
   44        0.283956   1.000000
   45        0.358029   1.000000
   46        0.364693   1.000000
   47        0.371663   1.000000
   48        0.453743   1.000000
   49        0.453743   1.000000
   50        0.528294   1.000000
   51        0.852765   1.000000
   52        0.852765   1.000000
   53        0.947831   1.000000
   54        0.947831   1.000000
   55        1.311451   1.000000
   56        1.461129   1.000000
   57        1.710696   1.000000
   58        1.807569   1.000000
   59        2.025845   1.000000
   60        2.096057   1.000000
   61        2.096057   1.000000
   62        2.169809   1.000000
   63        2.169809   1.000000
   64        2.286033   1.000000
   65        2.286033   1.000000
   66        2.355527   1.000000
   67        2.369684   1.000000
   68        2.521067   1.000000
   69        2.568464   1.000000
   70        2.638905   1.000000
   71        2.654600   1.000000
   72        2.654600   1.000000
   73        2.784727   1.000000
   74        2.784727   1.000000
   75        3.037351   1.000000
   76        3.084850   1.000000
   77        3.084850   1.000000
   78        3.127262   1.000000
   79        3.127455   1.000000
   80        3.128017   1.000000
   81        3.206041   1.000000
   82        3.206041   1.000000
   83        3.426752   1.000000
   84        3.426752   1.000000
   85        3.674102   1.000000
   86        3.941679   1.000000
   87        4.165194   1.000000
   88        4.238597   1.000000
   89        4.422803   1.000000
   90        4.770349   1.000000
   91        4.770349   1.000000
   92        4.821965   1.000000
   93        4.821965   1.000000
   94        4.920301   1.000000
   95        5.155424   1.000000
   96        5.290010   1.000000
   97        5.583080   1.000000
   98        6.754516   1.000000
   99        6.754516   1.000000
  100        6.865121   1.000000
  101        7.025212   1.000000
  102        7.037216   1.000000
  103        7.037216   1.000000
  104        7.065411   1.000000
  105        7.196237   1.000000
  106        7.196237   1.000000
  107        7.259488   1.000000
  108        7.324678   1.000000
  109        7.528670   1.000000
  110        7.532672   1.000000
  111        7.619071   1.000000
  112        7.731762   1.000000
  113        7.731762   1.000000
  114        7.983894   1.000000
  115        8.052340   1.000000
  116        8.224930   1.000000
  117        8.365723   1.000000
  118        8.365723   1.000000
  119        8.401736   1.000000
  120        8.401736   1.000000
  121        8.423272   1.000000
  122        8.470702   0.999997
  123        8.470702   0.999997
  124        8.688831   1.003935
  125        8.965147  -0.042078
  126        9.092404   0.002585
  127        9.092404   0.002585
  128        9.238773   0.000002
  129        9.552924   0.000000
  130        9.552924   0.000000
  131        9.842132   0.000000
  132        9.842132   0.000000
  133        9.866744   0.000000
  134       10.135331   0.000000
  135       10.199413   0.000000
  136       10.199414   0.000000
  137       10.290364   0.000000
  138       10.407052   0.000000
  139       10.407052   0.000000
  140       10.409910   0.000000
  141       10.456985   0.000000
  142       10.553452   0.000000
  143       10.639243   0.000000
  144       10.639243   0.000000
  145       10.772626   0.000000
  146       10.799285   0.000000
  147       10.923444   0.000000
  148       10.926909   0.000000
  149       11.043779   0.000000
  150       11.043779   0.000000
  151       11.053244   0.000000
  152       11.423458   0.000000
  153       11.505297   0.000000
  154       11.738894   0.000000
  155       11.788175   0.000000
  156       12.073936   0.000000
 
  0.4000000E+00  0.2000000E+00  0.3742002E-15  0.1920000E+00
    1       -9.411163   1.000000
    2       -9.221701   1.000000
    3       -8.943155   1.000000
    4       -8.877344   1.000000
    5       -8.764097   1.000000
    6       -8.730121   1.000000
    7       -8.638539   1.000000
    8       -8.585718   1.000000
    9       -8.168940   1.000000
   10       -8.155308   1.000000
   11       -8.114326   1.000000
   12       -8.076070   1.000000
   13       -7.806016   1.000000
   14       -7.766452   1.000000
   15       -7.424524   1.000000
   16       -7.164089   1.000000
   17       -6.910371   1.000000
   18       -6.898834   1.000000
   19       -6.898371   1.000000
   20       -6.895263   1.000000
   21       -6.874415   1.000000
   22       -6.874043   1.000000
   23       -6.869536   1.000000
   24       -6.860678   1.000000
   25       -1.366434   1.000000
   26       -1.243499   1.000000
   27       -1.214140   1.000000
   28       -1.112843   1.000000
   29       -1.056752   1.000000
   30       -0.988337   1.000000
   31       -0.961840   1.000000
   32       -0.835127   1.000000
   33       -0.769961   1.000000
   34       -0.728082   1.000000
   35       -0.629163   1.000000
   36       -0.626158   1.000000
   37       -0.620105   1.000000
   38       -0.530258   1.000000
   39       -0.474791   1.000000
   40       -0.418633   1.000000
   41       -0.388372   1.000000
   42       -0.222758   1.000000
   43        0.197680   1.000000
   44        0.217326   1.000000
   45        0.278754   1.000000
   46        0.313305   1.000000
   47        0.490191   1.000000
   48        0.601533   1.000000
   49        0.667800   1.000000
   50        0.739433   1.000000
   51        0.829738   1.000000
   52        1.003027   1.000000
   53        1.043238   1.000000
   54        1.116515   1.000000
   55        1.245143   1.000000
   56        1.496045   1.000000
   57        1.674375   1.000000
   58        1.869168   1.000000
   59        1.894588   1.000000
   60        1.902481   1.000000
   61        2.049158   1.000000
   62        2.062145   1.000000
   63        2.186545   1.000000
   64        2.306966   1.000000
   65        2.310217   1.000000
   66        2.451360   1.000000
   67        2.491622   1.000000
   68        2.511278   1.000000
   69        2.580615   1.000000
   70        2.678200   1.000000
   71        2.744052   1.000000
   72        2.748300   1.000000
   73        2.891114   1.000000
   74        2.993204   1.000000
   75        3.050156   1.000000
   76        3.072620   1.000000
   77        3.172526   1.000000
   78        3.194709   1.000000
   79        3.195004   1.000000
   80        3.200940   1.000000
   81        3.392494   1.000000
   82        3.448871   1.000000
   83        3.463780   1.000000
   84        3.633642   1.000000
   85        3.675633   1.000000
   86        3.827405   1.000000
   87        3.878641   1.000000
   88        4.127812   1.000000
   89        4.244478   1.000000
   90        4.434688   1.000000
   91        4.642470   1.000000
   92        4.783226   1.000000
   93        4.851928   1.000000
   94        4.951991   1.000000
   95        4.984677   1.000000
   96        5.137709   1.000000
   97        6.055274   1.000000
   98        6.404094   1.000000
   99        6.459769   1.000000
  100        6.476424   1.000000
  101        6.615006   1.000000
  102        6.732438   1.000000
  103        7.092559   1.000000
  104        7.152410   1.000000
  105        7.228845   1.000000
  106        7.258917   1.000000
  107        7.412963   1.000000
  108        7.417301   1.000000
  109        7.470530   1.000000
  110        7.632202   1.000000
  111        7.696810   1.000000
  112        7.762470   1.000000
  113        7.870749   1.000000
  114        8.046265   1.000000
  115        8.109593   1.000000
  116        8.130548   1.000000
  117        8.244691   1.000000
  118        8.351840   1.000000
  119        8.354089   1.000000
  120        8.395692   1.000000
  121        8.681490   1.000581
  122        8.716678   1.025053
  123        8.746891   1.049991
  124        8.761819   1.049423
  125        9.173717   0.000092
  126        9.412120   0.000000
  127        9.447031   0.000000
  128        9.457609   0.000000
  129        9.558254   0.000000
  130        9.641914   0.000000
  131        9.678377   0.000000
  132        9.720913   0.000000
  133        9.890914   0.000000
  134       10.149839   0.000000
  135       10.157015   0.000000
  136       10.168613   0.000000
  137       10.228953   0.000000
  138       10.271858   0.000000
  139       10.364256   0.000000
  140       10.381053   0.000000
  141       10.439944   0.000000
  142       10.493625   0.000000
  143       10.533644   0.000000
  144       10.712654   0.000000
  145       10.847913   0.000000
  146       10.858479   0.000000
  147       10.900555   0.000000
  148       10.921911   0.000000
  149       11.148603   0.000000
  150       11.212768   0.000000
  151       11.295642   0.000000
  152       11.423259   0.000000
  153       11.470655   0.000000
  154       11.597599   0.000000
  155       11.770767   0.000000
  156       11.801431   0.000000
 
  0.4000000E+00  0.4000000E+00  0.3742002E-15  0.9600000E-01
    1       -9.294733   1.000000
    2       -9.123668   1.000000
    3       -9.123668   1.000000
    4       -8.991733   1.000000
    5       -8.717125   1.000000
    6       -8.671353   1.000000
    7       -8.671353   1.000000
    8       -8.621434   1.000000
    9       -8.221750   1.000000
   10       -8.181528   1.000000
   11       -8.181528   1.000000
   12       -8.135441   1.000000
   13       -7.635168   1.000000
   14       -7.513018   1.000000
   15       -7.513018   1.000000
   16       -7.306808   1.000000
   17       -6.902799   1.000000
   18       -6.888726   1.000000
   19       -6.888726   1.000000
   20       -6.870469   1.000000
   21       -6.863504   1.000000
   22       -6.862533   1.000000
   23       -6.862533   1.000000
   24       -6.846985   1.000000
   25       -1.375056   1.000000
   26       -1.253528   1.000000
   27       -1.253528   1.000000
   28       -1.129605   1.000000
   29       -0.950733   1.000000
   30       -0.945112   1.000000
   31       -0.901982   1.000000
   32       -0.850200   1.000000
   33       -0.850200   1.000000
   34       -0.808581   1.000000
   35       -0.808581   1.000000
   36       -0.702499   1.000000
   37       -0.584581   1.000000
   38       -0.518570   1.000000
   39       -0.518570   1.000000
   40       -0.328313   1.000000
   41       -0.308327   1.000000
   42       -0.111066   1.000000
   43       -0.005666   1.000000
   44       -0.005666   1.000000
   45        0.203340   1.000000
   46        0.306767   1.000000
   47        0.306767   1.000000
   48        0.611012   1.000000
   49        0.629271   1.000000
   50        0.829588   1.000000
   51        0.829588   1.000000
   52        1.039501   1.000000
   53        1.225361   1.000000
   54        1.254469   1.000000
   55        1.330260   1.000000
   56        1.330260   1.000000
   57        1.925659   1.000000
   58        1.949194   1.000000
   59        1.949194   1.000000
   60        2.121757   1.000000
   61        2.196168   1.000000
   62        2.259460   1.000000
   63        2.259460   1.000000
   64        2.457393   1.000000
   65        2.482650   1.000000
   66        2.486900   1.000000
   67        2.515684   1.000000
   68        2.515684   1.000000
   69        2.552326   1.000000
   70        2.568096   1.000000
   71        2.568822   1.000000
   72        2.568822   1.000000
   73        2.826954   1.000000
   74        2.877337   1.000000
   75        2.877337   1.000000
   76        2.895102   1.000000
   77        3.070867   1.000000
   78        3.124920   1.000000
   79        3.124920   1.000000
   80        3.337956   1.000000
   81        3.367276   1.000000
   82        3.478911   1.000000
   83        3.478911   1.000000
   84        3.707806   1.000000
   85        3.786611   1.000000
   86        3.937000   1.000000
   87        3.937000   1.000000
   88        4.088951   1.000000
   89        4.308128   1.000000
   90        4.543276   1.000000
   91        4.543276   1.000000
   92        4.733772   1.000000
   93        4.918637   1.000000
   94        4.918637   1.000000
   95        4.956574   1.000000
   96        5.108505   1.000000
   97        6.042388   1.000000
   98        6.107142   1.000000
   99        6.107142   1.000000
  100        6.293146   1.000000
  101        6.452026   1.000000
  102        6.899832   1.000000
  103        6.899832   1.000000
  104        7.108799   1.000000
  105        7.249207   1.000000
  106        7.382798   1.000000
  107        7.382798   1.000000
  108        7.473614   1.000000
  109        7.552610   1.000000
  110        7.552610   1.000000
  111        7.770383   1.000000