 running on   16 total cores
 distrk:  each k-point on   16 cores,    1 groups
 distr:  one band on    4 cores,    4 groups
 using from now: INCAR     
 vasp.5.4.4.18Apr17-6-g9f103f2a35 (build Nov 01 2019 12:17:22) complex          
  
 POSCAR found type information on POSCAR  Si N 
 POSCAR found :  2 types and      56 ions
 WARNING: type information on POSCAR and POTCAR are incompatible
 POTCAR overwrites the type information in POSCAR
 typ   1 type information:  Si N 
 WARNING: type information on POSCAR and POTCAR are incompatible
 POTCAR overwrites the type information in POSCAR
 typ   2 type information:  N  Si
 LDA part: xc-table for Pade appr. of Perdew
 generate k-points for:    5    5    5
 POSCAR, INCAR and KPOINTS ok, starting setup
 FFT: planning ...
 WAVECAR not read
 entering main loop
       N       E                     dE             d eps       ncg     rms          rms(c)
DAV:   1     0.860499697133E+03    0.86050E+03   -0.97326E+04  3120   0.116E+03
DAV:   2    -0.245157264540E+03   -0.11057E+04   -0.10597E+04  3944   0.234E+02
DAV:   3    -0.352466583253E+03   -0.10731E+03   -0.10304E+03  3936   0.693E+01
DAV:   4    -0.356593503739E+03   -0.41269E+01   -0.40021E+01  4040   0.126E+01
DAV:   5    -0.356713989147E+03   -0.12049E+00   -0.11950E+00  3912   0.195E+00    0.347E+01
RMM:   6    -0.331602046470E+03    0.25112E+02   -0.15883E+02  3126   0.206E+01    0.158E+01
RMM:   7    -0.330654074406E+03    0.94797E+00   -0.44083E+00  3301   0.323E+00    0.910E+00
RMM:   8    -0.330560154497E+03    0.93920E-01   -0.33472E+00  3120   0.364E+00    0.250E+00
RMM:   9    -0.330339372205E+03    0.22078E+00   -0.45225E-01  3150   0.113E+00    0.683E-01
RMM:  10    -0.330339922086E+03   -0.54988E-03   -0.87023E-02  3398   0.397E-01    0.268E-01
RMM:  11    -0.330340949478E+03   -0.10274E-02   -0.41367E-03  3277   0.115E-01    0.852E-02
RMM:  12    -0.330340965745E+03   -0.16267E-04   -0.29542E-03  3336   0.742E-02    0.573E-02
RMM:  13    -0.330340880807E+03    0.84938E-04   -0.20216E-04  1935   0.258E-02
   1 F= -.33034088E+03 E0= -.33034455E+03  d E =-.330341E+03
 curvature:   0.00 expect dE= 0.000E+00 dE for cont linesearch  0.000E+00
 trial: gam= 0.00000 g(F)=  0.344E-01 g(S)=  0.000E+00 ort = 0.000E+00 (trialstep = 0.100E+01)
 search vector abs. value=  0.344E-01
 bond charge predicted
       N       E                     dE             d eps       ncg     rms          rms(c)
DAV:   1    -0.330347995625E+03   -0.70299E-02   -0.35195E-01  3712   0.154E+00    0.251E-01
RMM:   2    -0.330352366384E+03   -0.43708E-02   -0.58975E-02  3192   0.528E-01    0.285E-01
RMM:   3    -0.330351752565E+03    0.61382E-03   -0.34380E-03  3387   0.878E-02    0.235E-01
RMM:   4    -0.330351526551E+03    0.22601E-03   -0.34330E-03  3126   0.995E-02    0.905E-02
RMM:   5    -0.330351385162E+03    0.14139E-03   -0.40205E-04  2191   0.334E-02    0.355E-02
RMM:   6    -0.330351390709E+03   -0.55469E-05   -0.32774E-04  2231   0.245E-02
   2 F= -.33035139E+03 E0= -.33035466E+03  d E =-.105099E-01
 trial-energy change:   -0.010510  1 .order   -0.010282   -0.034427    0.013862
 step:   0.7129(harm=  0.7129)  dis= 0.00297  next Energy=  -330.353153 (dE=-0.123E-01)
 bond charge predicted
       N       E                     dE             d eps       ncg     rms          rms(c)
DAV:   1    -0.330352976813E+03   -0.15917E-02   -0.28994E-02  3384   0.449E-01    0.717E-02
RMM:   2    -0.330353344942E+03   -0.36813E-03   -0.55348E-03  3189   0.158E-01    0.854E-02
RMM:   3    -0.330353269196E+03    0.75746E-04   -0.24207E-04  1981   0.268E-02
   3 F= -.33035327E+03 E0= -.33035665E+03  d E =-.123884E-01
 curvature:  -0.36 expect dE=-0.148E-07 dE for cont linesearch -0.148E-07
 trial: gam=-0.00110 g(F)=  0.416E-07 g(S)=  0.000E+00 ort = 0.378E-04 (trialstep = 0.943E+00)
 search vector abs. value=  0.100E-09
 reached required accuracy - stopping structural energy minimisation
