 vasp.5.4.4.18Apr17-6-g9f103f2a35 (build Nov 01 2019 12:17:22) complex          
  
 executed on             LinuxIFC date 2023.05.19  18:21:55
 running on   16 total cores
 distrk:  each k-point on   16 cores,    1 groups
 distr:  one band on NCORES_PER_BAND=   4 cores,    4 groups


--------------------------------------------------------------------------------------------------------


 INCAR:
 POTCAR:    PAW_PBE N 08Apr2002                   
 POTCAR:    PAW_PBE Si 05Jan2001                  
 POTCAR:    PAW_PBE N 08Apr2002                   
   VRHFIN =N: s2p3                                                              
   LEXCH  = PE                                                                  
   EATOM  =   264.5486 eV,   19.4438 Ry                                         
                                                                                
   TITEL  = PAW_PBE N 08Apr2002                                                 
   LULTRA =        F    use ultrasoft PP ?                                      
   IUNSCR =        1    unscreen: 0-lin 1-nonlin 2-no                           
   RPACOR =    1.200    partial core radius                                     
   POMASS =   14.001; ZVAL   =    5.000    mass and valenz                      
   RCORE  =    1.500    outmost cutoff radius                                   
   RWIGS  =    1.400; RWIGS  =    0.741    wigner-seitz radius (au A)           
   ENMAX  =  400.000; ENMIN  =  300.000 eV                                      
   ICORE  =        2    local potential                                         
   LCOR   =        T    correct aug charges                                     
   LPAW   =        T    paw PP                                                  
   EAUG   =  627.112                                                            
   DEXC   =    0.000                                                            
   RMAX   =    1.529    core radius for proj-oper                               
   RAUG   =    1.300    factor for augmentation sphere                          
   RDEP   =    1.514    radius for radial grids                                 
   RDEPT  =    1.338    core radius for aug-charge                              
                                                                                
   Atomic configuration                                                         
    4 entries                                                                   
     n  l   j            E        occ.                                          
     1  0  0.50      -384.7179   2.0000                                         
     2  0  0.50       -18.5828   2.0000                                         
     2  1  0.50        -7.0898   3.0000                                         
     3  2  1.50        -6.8029   0.0000                                         
   Description                                                                  
     l       E           TYP  RCUT    TYP  RCUT                                 
     0    -18.5828119     23  1.200                                             
     0    -13.5018863     23  1.200                                             
     1     -7.0897853     23  1.500                                             
     1      9.5240782     23  1.500                                             
     2     -6.8029130      7  1.500                                             
  local pseudopotential read in
  partial core-charges read in
  partial kinetic energy density read in
  atomic valenz-charges read in
  non local Contribution for L=           0  read in
    real space projection operators read in
  non local Contribution for L=           0  read in
    real space projection operators read in
  non local Contribution for L=           1  read in
    real space projection operators read in
  non local Contribution for L=           1  read in
    real space projection operators read in
    PAW grid and wavefunctions read in
 
   number of l-projection  operators is LMAX  =           4
   number of lm-projection operators is LMMAX =           8
 
 POTCAR:    PAW_PBE Si 05Jan2001                  
   VRHFIN =Si: s2p2                                                             
   LEXCH  = PE                                                                  
   EATOM  =   103.0669 eV,    7.5752 Ry                                         
                                                                                
   TITEL  = PAW_PBE Si 05Jan2001                                                
   LULTRA =        F    use ultrasoft PP ?                                      
   IUNSCR =        1    unscreen: 0-lin 1-nonlin 2-no                           
   RPACOR =    1.500    partial core radius                                     
   POMASS =   28.085; ZVAL   =    4.000    mass and valenz                      
   RCORE  =    1.900    outmost cutoff radius                                   
   RWIGS  =    2.480; RWIGS  =    1.312    wigner-seitz radius (au A)           
   ENMAX  =  245.345; ENMIN  =  184.009 eV                                      
   ICORE  =        2    local potential                                         
   LCOR   =        T    correct aug charges                                     
   LPAW   =        T    paw PP                                                  
   EAUG   =  322.069                                                            
   DEXC   =    0.000                                                            
   RMAX   =    1.950    core radius for proj-oper                               
   RAUG   =    1.300    factor for augmentation sphere                          
   RDEP   =    1.993    radius for radial grids                                 
   RDEPT  =    1.837    core radius for aug-charge                              
                                                                                
   Atomic configuration                                                         
    6 entries                                                                   
     n  l   j            E        occ.                                          
     1  0  0.50     -1785.8828   2.0000                                         
     2  0  0.50      -139.4969   2.0000                                         
     2  1  1.50       -95.5546   6.0000                                         
     3  0  0.50       -10.8127   2.0000                                         
     3  1  0.50        -4.0811   2.0000                                         
     3  2  1.50        -4.0817   0.0000                                         
   Description                                                                  
     l       E           TYP  RCUT    TYP  RCUT                                 
     0    -10.8127223     23  1.900                                             
     0     -7.6451159     23  1.900                                             
     1     -4.0811372     23  1.900                                             
     1      2.4879257     23  1.900                                             
     2     -4.0817478      7  1.900                                             
  local pseudopotential read in
  partial core-charges read in
  partial kinetic energy density read in
  atomic valenz-charges read in
  non local Contribution for L=           0  read in
    real space projection operators read in
  non local Contribution for L=           0  read in
    real space projection operators read in
  non local Contribution for L=           1  read in
    real space projection operators read in
  non local Contribution for L=           1  read in
    real space projection operators read in
    PAW grid and wavefunctions read in
 
   number of l-projection  operators is LMAX  =           4
   number of lm-projection operators is LMMAX =           8
 
 Optimization of the real space projectors (new method)

 maximal supplied QI-value         = 25.13
 optimisation between [QCUT,QGAM] = [ 10.05, 20.36] = [ 28.30,116.06] Ry 
 Optimized for a Real-space Cutoff    1.70 Angstroem

   l    n(q)    QCUT    max X(q) W(low)/X(q) W(high)/X(q)  e(spline) 
   0     10    10.053    79.467    0.61E-04    0.98E-04    0.61E-06
   0     10    10.053    66.151    0.60E-04    0.98E-04    0.61E-06
   1     10    10.053     8.350    0.17E-03    0.71E-03    0.45E-05
   1     10    10.053     5.531    0.18E-03    0.77E-03    0.49E-05
 Optimization of the real space projectors (new method)

 maximal supplied QI-value         = 19.84
 optimisation between [QCUT,QGAM] = [ 10.12, 20.44] = [ 28.68,116.96] Ry 
 Optimized for a Real-space Cutoff    1.38 Angstroem

   l    n(q)    QCUT    max X(q) W(low)/X(q) W(high)/X(q)  e(spline) 
   0      8    10.119   159.560    0.58E-04    0.11E-03    0.54E-07
   0      8    10.119   115.863    0.56E-04    0.11E-03    0.54E-07
   1      8    10.119    88.339    0.22E-03    0.17E-03    0.19E-06
   1      8    10.119    48.592    0.22E-03    0.17E-03    0.18E-06
  PAW_PBE N 08Apr2002                   :
 energy of atom  1       EATOM= -264.5486
 kinetic energy error for atom=    0.0736 (will be added to EATOM!!)
  PAW_PBE Si 05Jan2001                  :
 energy of atom  2       EATOM= -103.0669
 kinetic energy error for atom=    0.0012 (will be added to EATOM!!)
 
 
 POSCAR: Si24 N32                                
  positions in direct lattice
  No initial velocities read in
 exchange correlation table for  LEXCH =        8
   RHO(1)=    0.500       N(1)  =     2000
   RHO(2)=  100.500       N(2)  =     4000
 


--------------------------------------------------------------------------------------------------------


 ion  position               nearest neighbor table
   1  0.875  0.875  0.125-  26 2.20  28 2.20  47 2.20  49 2.20  54 2.20  56 2.20
   2  0.375  0.125  0.375-  25 2.20  27 2.20  29 2.20  31 2.20  32 2.20  42 2.20
   3  0.625  0.875  0.375-  27 2.20  31 2.20  44 2.20  49 2.20  53 2.20  54 2.20
   4  0.125  0.125  0.125-  26 2.20  28 2.20  29 2.20  30 2.20  32 2.20  43 2.20
   5  0.250  0.750  0.250-  28 1.87  50 1.87  31 1.87  51 1.87
   6  0.000  0.000  0.500-  38 1.87  48 1.87  29 1.87  49 1.87
   7  0.875  0.375  0.625-  34 2.20  36 2.20  41 2.20  46 2.20  48 2.20  55 2.20
   8  0.375  0.625  0.875-  33 2.20  35 2.20  37 2.20  39 2.20  40 2.20  50 2.20
   9  0.625  0.375  0.875-  35 2.20  39 2.20  41 2.20  45 2.20  46 2.20  52 2.20
  10  0.125  0.625  0.625-  34 2.20  36 2.20  37 2.20  38 2.20  40 2.20  51 2.20
  11  0.250  0.250  0.750-  36 1.87  42 1.87  39 1.87  43 1.87
  12  0.000  0.500  0.000-  30 1.87  56 1.87  41 1.87  37 1.87
  13  0.375  0.875  0.625-  31 2.20  33 2.20  38 2.20  40 2.20  42 2.20  44 2.20
  14  0.875  0.125  0.875-  26 2.20  41 2.20  43 2.20  45 2.20  47 2.20  48 2.20
  15  0.125  0.875  0.875-  28 2.20  33 2.20  37 2.20  38 2.20  43 2.20  47 2.20
  16  0.625  0.125  0.625-  27 2.20  42 2.20  44 2.20  45 2.20  46 2.20  48 2.20
  17  0.750  0.750  0.750-  34 1.87  44 1.87  35 1.87  47 1.87
  18  0.500  0.000  0.000-  32 1.87  54 1.87  45 1.87  33 1.87
  19  0.375  0.375  0.125-  25 2.20  30 2.20  32 2.20  39 2.20  50 2.20  52 2.20
  20  0.875  0.625  0.375-  34 2.20  49 2.20  51 2.20  53 2.20  55 2.20  56 2.20
  21  0.125  0.375  0.375-  25 2.20  29 2.20  30 2.20  36 2.20  51 2.20  55 2.20
  22  0.625  0.625  0.125-  35 2.20  50 2.20  52 2.20  53 2.20  54 2.20  56 2.20
  23  0.750  0.250  0.250-  26 1.87  52 1.87  27 1.87  55 1.87
  24  0.500  0.500  0.500-  40 1.87  46 1.87  25 1.87  53 1.87
  25  0.376  0.376  0.376-  24 1.87  19 2.20  21 2.20   2 2.20  40 3.06  46 3.06  53 3.06  51 3.09
                            27 3.09  50 3.09  42 3.09  52 3.09  36 3.09  30 3.13  32 3.13  29 3.13
  26  0.874  0.126  0.126-  23 1.87   4 2.20  14 2.20   1 2.20  52 3.06  27 3.06  55 3.06  41 3.09
                            45 3.09  49 3.09  29 3.09  54 3.09  30 3.09  43 3.13  28 3.13  47 3.13
  27  0.626  0.126  0.374-  23 1.87   3 2.20  16 2.20   2 2.20  26 3.06  52 3.06  55 3.06  25 3.09
                            49 3.09  32 3.09  46 3.09  54 3.09  48 3.09  42 3.13  44 3.13  31 3.13
  28  0.126  0.874  0.126-   5 1.87   4 2.20   1 2.20  15 2.20  50 3.06  51 3.06  31 3.06  33 3.09
                            37 3.09  49 3.09  29 3.09  32 3.09  56 3.09  26 3.13  43 3.13  47 3.13
  29  0.124  0.124  0.376-   6 1.87   4 2.20   2 2.20  21 2.20  38 3.06  48 3.06  49 3.06  31 3.09
                            55 3.09  42 3.09  26 3.09  36 3.09  28 3.09  30 3.13  32 3.13  25 3.13
  30  0.124  0.376  0.124-  12 1.87   4 2.20  19 2.20  21 2.20  56 3.06  37 3.06  41 3.06  26 3.09
                            43 3.09  50 3.09  51 3.09  55 3.09  39 3.09  29 3.13  32 3.13  25 3.13
  31  0.374  0.874  0.374-   5 1.87   3 2.20   2 2.20  13 2.20  28 3.06  50 3.06  51 3.06  29 3.09
                            53 3.09  32 3.09  38 3.09  40 3.09  54 3.09  42 3.13  44 3.13  27 3.13
  32  0.376  0.124  0.124-  18 1.87   4 2.20   2 2.20  19 2.20  54 3.06  45 3.06  33 3.06  27 3.09
                            39 3.09  43 3.09  28 3.09  52 3.09  31 3.09  30 3.13  29 3.13  25 3.13
  33  0.376  0.876  0.876-  18 1.87  13 2.20  15 2.20   8 2.20  32 3.06  45 3.06  54 3.06  35 3.09
                            43 3.09  44 3.09  42 3.09  50 3.09  28 3.09  38 3.13  40 3.13  37 3.13
  34  0.874  0.626  0.626-  17 1.87  10 2.20   7 2.20  20 2.20  44 3.06  35 3.06  47 3.06  41 3.09
                            37 3.09  46 3.09  38 3.09  49 3.09  53 3.09  51 3.13  36 3.13  55 3.13
  35  0.626  0.626  0.874-  17 1.87   9 2.20   8 2.20  22 2.20  34 3.06  44 3.06  47 3.06  33 3.09
                            41 3.09  46 3.09  40 3.09  54 3.09  56 3.09  50 3.13  52 3.13  39 3.13
  36  0.126  0.374  0.626-  11 1.87  10 2.20   7 2.20  21 2.20  42 3.06  43 3.06  39 3.06  25 3.09
                            40 3.09  41 3.09  29 3.09  37 3.09  48 3.09  34 3.13  51 3.13  55 3.13
  37  0.124  0.624  0.876-  12 1.87  10 2.20   8 2.20  15 2.20  30 3.06  56 3.06  41 3.06  47 3.09
                            39 3.09  34 3.09  36 3.09  50 3.09  28 3.09  38 3.13  40 3.13  33 3.13
  38  0.124  0.876  0.624-   6 1.87  10 2.20  13 2.20  15 2.20  48 3.06  29 3.06  49 3.06  42 3.09
                            43 3.09  47 3.09  31 3.09  34 3.09  51 3.09  37 3.13  40 3.13  33 3.13
  39  0.374  0.374  0.874-  11 1.87   9 2.20   8 2.20  19 2.20  36 3.06  42 3.06  43 3.06  37 3.09
                            45 3.09  30 3.09  32 3.09  40 3.09  46 3.09  50 3.13  52 3.13  35 3.13
  40  0.376  0.624  0.624-  24 1.87  10 2.20  13 2.20   8 2.20  46 3.06  53 3.06  25 3.06  36 3.09
                            39 3.09  44 3.09  31 3.09  51 3.09  35 3.09  38 3.13  37 3.13  33 3.13
  41  0.876  0.376  0.876-  12 1.87   9 2.20   7 2.20  14 2.20  30 3.06  37 3.06  56 3.06  43 3.09
                            35 3.09  34 3.09  26 3.09  52 3.09  36 3.09  46 3.13  48 3.13  45 3.13
  42  0.374  0.126  0.626-  11 1.87   2 2.20  13 2.20  16 2.20  36 3.06  43 3.06  39 3.06  25 3.09
                            38 3.09  29 3.09  33 3.09  45 3.09  46 3.09  27 3.13  44 3.13  31 3.13
  43  0.126  0.126  0.874-  11 1.87   4 2.20  14 2.20  15 2.20  36 3.06  42 3.06  39 3.06  41 3.09
                            33 3.09  30 3.09  32 3.09  38 3.09  48 3.09  28 3.13  26 3.13  47 3.13
  44  0.626  0.874  0.626-  17 1.87  13 2.20  16 2.20   3 2.20  34 3.06  35 3.06  47 3.06  40 3.09
                            45 3.09  33 3.09  48 3.09  49 3.09  53 3.09  42 3.13  27 3.13  31 3.13
  45  0.624  0.124  0.876-  18 1.87  14 2.20  16 2.20   9 2.20  32 3.06  54 3.06  33 3.06  47 3.09
                            39 3.09  44 3.09  26 3.09  52 3.09  42 3.09  46 3.13  48 3.13  41 3.13
  46  0.624  0.376  0.624-  24 1.87   9 2.20  16 2.20   7 2.20  40 3.06  53 3.06  25 3.06  35 3.09
                            39 3.09  27 3.09  42 3.09  34 3.09  55 3.09  45 3.13  48 3.13  41 3.13
  47  0.874  0.874  0.874-  17 1.87  14 2.20  15 2.20   1 2.20  34 3.06  35 3.06  44 3.06  37 3.09
                            45 3.09  38 3.09  48 3.09  54 3.09  56 3.09  28 3.13  26 3.13  43 3.13
  48  0.876  0.124  0.624-   6 1.87   7 2.20  14 2.20  16 2.20  38 3.06  29 3.06  49 3.06  27 3.09
                            43 3.09  44 3.09  47 3.09  36 3.09  55 3.09  46 3.13  45 3.13  41 3.13
  49  0.876  0.876  0.376-   6 1.87   3 2.20   1 2.20  20 2.20  29 3.06  38 3.06  48 3.06  27 3.09
                            51 3.09  28 3.09  44 3.09  26 3.09  34 3.09  54 3.13  56 3.13  53 3.13
  50  0.374  0.626  0.126-   5 1.87   8 2.20  19 2.20  22 2.20  28 3.06  51 3.06  31 3.06  25 3.09
                            33 3.09  37 3.09  30 3.09  53 3.09  54 3.09  35 3.13  52 3.13  39 3.13
  51  0.126  0.626  0.374-   5 1.87  10 2.20  20 2.20  21 2.20  28 3.06  50 3.06  31 3.06  49 3.09
                            25 3.09  40 3.09  30 3.09  38 3.09  56 3.09  36 3.13  34 3.13  55 3.13
  52  0.626  0.374  0.126-  23 1.87  19 2.20  22 2.20   9 2.20  26 3.06  27 3.06  55 3.06  32 3.09
                            41 3.09  45 3.09  53 3.09  25 3.09  56 3.09  50 3.13  35 3.13  39 3.13
  53  0.624  0.624  0.376-  24 1.87  20 2.20  22 2.20   3 2.20  40 3.06  46 3.06  25 3.06  31 3.09
                            55 3.09  34 3.09  50 3.09  52 3.09  44 3.09  54 3.13  56 3.13  49 3.13
  54  0.624  0.876  0.124-  18 1.87   3 2.20   1 2.20  22 2.20  32 3.06  45 3.06  33 3.06  26 3.09
                            27 3.09  35 3.09  31 3.09  47 3.09  50 3.09  53 3.13  56 3.13  49 3.13
  55  0.874  0.374  0.374-  23 1.87  20 2.20  21 2.20   7 2.20  26 3.06  27 3.06  52 3.06  29 3.09
                            53 3.09  48 3.09  30 3.09  46 3.09  56 3.09  36 3.13  34 3.13  51 3.13
  56  0.876  0.624  0.124-  12 1.87   1 2.20  20 2.20  22 2.20  30 3.06  37 3.06  41 3.06  28 3.09
                            35 3.09  47 3.09  51 3.09  52 3.09  55 3.09  54 3.13  53 3.13  49 3.13
 
  LATTYP: Found a simple cubic cell.
 ALAT       =     8.7496973564
  
  Lattice vectors:
  
 A1 = (   8.7496973564,   0.0000000000,   0.0000000000)
 A2 = (   0.0000000000,   8.7496973564,   0.0000000000)
 A3 = (   0.0000000000,   0.0000000000,   8.7496973564)


Analysis of symmetry for initial positions (statically):
=====================================================================
 Subroutine PRICEL returns following result:
 
  LATTYP: Found a face centered cubic cell.
 ALAT       =     8.7496973564
  
  Lattice vectors:
  
 A1 = (   4.3748486782,   4.3748486782,  -0.0000000000)
 A2 = (   4.3748486782,   0.0000000000,  -4.3748486782)
 A3 = (   0.0000000000,   4.3748486782,  -4.3748486782)
 
   4 primitive cells build up your supercell.
 

 Routine SETGRP: Setting up the symmetry group for a 
 simple cubic supercell.


 Subroutine GETGRP returns: Found 48 space group operations
 (whereof 24 operations were pure point group operations)
 out of a pool of 48 trial point group operations.


The static configuration has the point symmetry T_d .
 The point group associated with its full space group is O_h .


Analysis of symmetry for dynamics (positions and initial velocities):
=====================================================================
 Subroutine PRICEL returns following result:
 
  LATTYP: Found a face centered cubic cell.
 ALAT       =     8.7496973564
  
  Lattice vectors:
  
 A1 = (   4.3748486782,   4.3748486782,  -0.0000000000)
 A2 = (   4.3748486782,   0.0000000000,  -4.3748486782)
 A3 = (   0.0000000000,   4.3748486782,  -4.3748486782)
 
   4 primitive cells build up your supercell.
 

 Routine SETGRP: Setting up the symmetry group for a 
 simple cubic supercell.


 Subroutine GETGRP returns: Found 48 space group operations
 (whereof 24 operations were pure point group operations)
 out of a pool of 48 trial point group operations.


The dynamic configuration has the point symmetry T_d .
 The point group associated with its full space group is O_h .


 Subroutine INISYM returns: Found 48 space group operations
 (whereof 24 operations are pure point group operations),
 and found     4 'primitive' translations

 
 
 KPOINTS: Automatic mesh                          

Automatic generation of k-mesh.
 generate k-points for:    5    5    5
Space group operators:
 irot       det(A)        alpha          n_x          n_y          n_z        tau_x        tau_y        tau_z
    1     1.000000     0.000000     1.000000     0.000000     0.000000     0.000000     0.000000    -0.000000
    2     1.000000   120.000000    -0.577350    -0.577350    -0.577350     0.000000     0.000000    -0.000000
    3     1.000000   120.000000     0.577350     0.577350     0.577350     0.000000     0.000000    -0.000000
    4    -1.000000    90.000000     0.000000     0.000000    -1.000000     0.000000     0.000000    -0.000000
    5    -1.000000   180.000000     0.000000    -0.707107    -0.707107     0.000000     0.000000    -0.000000
    6    -1.000000    90.000000     0.000000     1.000000     0.000000     0.000000     0.000000    -0.000000
    7     1.000000   180.000000    -0.000000    -0.000000     1.000000     0.000000     0.000000    -0.000000
    8     1.000000   120.000000    -0.577350     0.577350     0.577350     0.000000     0.000000    -0.000000
    9     1.000000   120.000000    -0.577350     0.577350    -0.577350     0.000000     0.000000    -0.000000
   10    -1.000000    90.000000    -0.000000    -0.000000     1.000000     0.000000     0.000000    -0.000000
   11    -1.000000    90.000000    -1.000000     0.000000    -0.000000     0.000000     0.000000    -0.000000
   12    -1.000000   180.000000    -0.707107     0.000000    -0.707107     0.000000     0.000000    -0.000000
   13     1.000000   120.000000     0.577350    -0.577350     0.577350     0.000000     0.000000    -0.000000
   14     1.000000   120.000000    -0.577350    -0.577350     0.577350     0.000000     0.000000    -0.000000
   15     1.000000   180.000000     1.000000     0.000000     0.000000     0.000000     0.000000    -0.000000
   16    -1.000000    90.000000    -0.000000    -1.000000     0.000000     0.000000     0.000000    -0.000000
   17    -1.000000   180.000000     0.707107     0.707107     0.000000     0.000000     0.000000    -0.000000
   18    -1.000000    90.000000     1.000000    -0.000000    -0.000000     0.000000     0.000000    -0.000000
   19     1.000000   120.000000     0.577350    -0.577350    -0.577350     0.000000     0.000000    -0.000000
   20     1.000000   180.000000    -0.000000     1.000000     0.000000     0.000000     0.000000    -0.000000
   21     1.000000   120.000000     0.577350     0.577350    -0.577350     0.000000     0.000000    -0.000000
   22    -1.000000   180.000000    -0.000000    -0.707107     0.707107     0.000000     0.000000    -0.000000
   23    -1.000000   180.000000     0.707107    -0.707107     0.000000     0.000000     0.000000    -0.000000
   24    -1.000000   180.000000     0.707107     0.000000    -0.707107     0.000000     0.000000    -0.000000
   25    -1.000000     0.000000     1.000000     0.000000     0.000000     0.750000     0.750000    -0.750000
   26    -1.000000   120.000000    -0.577350    -0.577350    -0.577350     0.750000     0.750000    -0.750000
   27    -1.000000   120.000000     0.577350     0.577350     0.577350     0.750000     0.750000    -0.750000
   28     1.000000    90.000000     0.000000     0.000000    -1.000000     0.750000     0.750000    -0.750000
   29     1.000000   180.000000     0.000000    -0.707107    -0.707107     0.750000     0.750000    -0.750000
   30     1.000000    90.000000     0.000000     1.000000     0.000000     0.750000     0.750000    -0.750000
   31    -1.000000   180.000000    -0.000000    -0.000000     1.000000     0.750000     0.750000    -0.750000
   32    -1.000000   120.000000    -0.577350     0.577350     0.577350     0.750000     0.750000    -0.750000
   33    -1.000000   120.000000    -0.577350     0.577350    -0.577350     0.750000     0.750000    -0.750000
   34     1.000000    90.000000    -0.000000    -0.000000     1.000000     0.750000     0.750000    -0.750000
   35     1.000000    90.000000    -1.000000     0.000000    -0.000000     0.750000     0.750000    -0.750000
   36     1.000000   180.000000    -0.707107     0.000000    -0.707107     0.750000     0.750000    -0.750000
   37    -1.000000   120.000000     0.577350    -0.577350     0.577350     0.750000     0.750000    -0.750000
   38    -1.000000   120.000000    -0.577350    -0.577350     0.577350     0.750000     0.750000    -0.750000
   39    -1.000000   180.000000     1.000000     0.000000     0.000000     0.750000     0.750000    -0.750000
   40     1.000000    90.000000    -0.000000    -1.000000     0.000000     0.750000     0.750000    -0.750000
   41     1.000000   180.000000     0.707107     0.707107     0.000000     0.750000     0.750000    -0.750000
   42     1.000000    90.000000     1.000000    -0.000000    -0.000000     0.750000     0.750000    -0.750000
   43    -1.000000   120.000000     0.577350    -0.577350    -0.577350     0.750000     0.750000    -0.750000
   44    -1.000000   180.000000    -0.000000     1.000000     0.000000     0.750000     0.750000    -0.750000
   45    -1.000000   120.000000     0.577350     0.577350    -0.577350     0.750000     0.750000    -0.750000
   46     1.000000   180.000000    -0.000000    -0.707107     0.707107     0.750000     0.750000    -0.750000
   47     1.000000   180.000000     0.707107    -0.707107     0.000000     0.750000     0.750000    -0.750000
   48     1.000000   180.000000     0.707107     0.000000    -0.707107     0.750000     0.750000    -0.750000
 
 Subroutine IBZKPT returns following result:
 ===========================================
 
 Found     10 irreducible k-points:
 
 Following reciprocal coordinates:
            Coordinates               Weight
  0.000000  0.000000  0.000000      1.000000
  0.200000  0.000000  0.000000      6.000000
  0.400000  0.000000  0.000000      6.000000
  0.200000  0.200000  0.000000     12.000000
  0.400000  0.200000  0.000000     24.000000
  0.400000  0.400000  0.000000     12.000000
  0.200000  0.200000  0.200000      8.000000
  0.400000  0.200000  0.200000     24.000000
  0.400000  0.400000  0.200000     24.000000
  0.400000  0.400000  0.400000      8.000000
 
 Following cartesian coordinates:
            Coordinates               Weight
  0.000000  0.000000  0.000000      1.000000
  0.022858  0.000000  0.000000      6.000000
  0.045716  0.000000  0.000000      6.000000
  0.022858  0.022858  0.000000     12.000000
  0.045716  0.022858  0.000000     24.000000
  0.045716  0.045716  0.000000     12.000000
  0.022858  0.022858  0.022858      8.000000
  0.045716  0.022858  0.022858     24.000000
  0.045716  0.045716  0.022858     24.000000
  0.045716  0.045716  0.045716      8.000000
 


--------------------------------------------------------------------------------------------------------




 Dimension of arrays:
   k-points           NKPTS =     10   k-points in BZ     NKDIM =     10   number of bands    NBANDS=    156
   number of dos      NEDOS =    301   number of ions     NIONS =     56
   non local maximal  LDIM  =      4   non local SUM 2l+1 LMDIM =      8
   total plane-waves  NPLWV = 216000
   max r-space proj   IRMAX =   6661   max aug-charges    IRDMAX=  10980
   dimension x,y,z NGX =    60 NGY =   60 NGZ =   60
   dimension x,y,z NGXF=   120 NGYF=  120 NGZF=  120
   support grid    NGXF=   120 NGYF=  120 NGZF=  120
   ions per type =              24  32
   NGX,Y,Z   is equivalent  to a cutoff of  11.40, 11.40, 11.40 a.u.
   NGXF,Y,Z  is equivalent  to a cutoff of  22.80, 22.80, 22.80 a.u.

 SYSTEM =  unknown system                          
 POSCAR =  Si24 N32                                

 Startparameter for this run:
   NWRITE =      2    write-flag & timer
   PREC   = accura    normal or accurate (medium, high low for compatibility)
   ISTART =      0    job   : 0-new  1-cont  2-samecut
   ICHARG =      2    charge: 1-file 2-atom 10-const
   ISPIN  =      1    spin polarized calculation?
   LNONCOLLINEAR =      F non collinear calculations
   LSORBIT =      F    spin-orbit coupling
   INIWAV =      1    electr: 0-lowe 1-rand  2-diag
   LASPH  =      F    aspherical Exc in radial PAW
   METAGGA=      F    non-selfconsistent MetaGGA calc.

 Electronic Relaxation 1
   ENCUT  =  400.0 eV  29.40 Ry    5.42 a.u.  14.27 14.27 14.27*2*pi/ulx,y,z
   ENINI  =  400.0     initial cutoff
   ENAUG  =  627.1 eV  augmentation charge cutoff
   NELM   =     60;   NELMIN=  2; NELMDL= -5     # of ELM steps 
   EDIFF  = 0.1E-03   stopping-criterion for ELM
   LREAL  =      T    real-space projection
   NLSPLINE    = F    spline interpolate recip. space projectors
   LCOMPAT=      F    compatible to vasp.4.4
   GGA_COMPAT  = T    GGA compatible to vasp.4.4-vasp.4.6
   LMAXPAW     = -100 max onsite density
   LMAXMIX     =    2 max onsite mixed and CHGCAR
   VOSKOWN=      0    Vosko Wilk Nusair interpolation
   ROPT   =   -0.00025  -0.00025
 Ionic relaxation
   EDIFFG = 0.1E-02   stopping-criterion for IOM
   NSW    =    100    number of steps for IOM
   NBLOCK =      1;   KBLOCK =    100    inner block; outer block 
   IBRION =      2    ionic relax: 0-MD 1-quasi-New 2-CG
   NFREE  =      1    steps in history (QN), initial steepest desc. (CG)
   ISIF   =      2    stress and relaxation
   IWAVPR =     11    prediction:  0-non 1-charg 2-wave 3-comb
   ISYM   =      2    0-nonsym 1-usesym 2-fastsym
   LCORR  =      T    Harris-Foulkes like correction to forces

   POTIM  = 0.5000    time-step for ionic-motion
   TEIN   =    0.0    initial temperature
   TEBEG  =    0.0;   TEEND  =   0.0 temperature during run
   SMASS  =  -3.00    Nose mass-parameter (am)
   estimated Nose-frequenzy (Omega)   =  0.10E-29 period in steps =****** mass=  -0.175E-26a.u.
   SCALEE = 1.0000    scale energy and forces
   NPACO  =    256;   APACO  = 16.0  distance and # of slots for P.C.
   PSTRESS=    0.0 pullay stress

  Mass of Ions in am
   POMASS =  14.00 28.09
  Ionic Valenz
   ZVAL   =   5.00  4.00
  Atomic Wigner-Seitz radii
   RWIGS  =  -1.00 -1.00
  virtual crystal weights 
   VCA    =   1.00  1.00
   NELECT =     248.0000    total number of electrons
   NUPDOWN=      -1.0000    fix difference up-down

 DOS related values:
   EMIN   =  10.00;   EMAX   =-10.00  energy-range for DOS
   EFERMI =   0.00
   ISMEAR =     2;   SIGMA  =   0.10  broadening in eV -4-tet -1-fermi 0-gaus

 Electronic relaxation 2 (details)
   IALGO  =     68    algorithm
   LDIAG  =      T    sub-space diagonalisation (order eigenvalues)
   LSUBROT=      F    optimize rotation matrix (better conditioning)
   TURBO    =      0    0=normal 1=particle mesh
   IRESTART =      0    0=no restart 2=restart with 2 vectors
   NREBOOT  =      0    no. of reboots
   NMIN     =      0    reboot dimension
   EREF     =   0.00    reference energy to select bands
   IMIX   =      4    mixing-type and parameters
     AMIX     =   0.40;   BMIX     =  1.00
     AMIX_MAG =   1.60;   BMIX_MAG =  1.00
     AMIN     =   0.10
     WC   =   100.;   INIMIX=   1;  MIXPRE=   1;  MAXMIX= -45

 Intra band minimization:
   WEIMIN = 0.0010     energy-eigenvalue tresh-hold
   EBREAK =  0.16E-06  absolut break condition
   DEPER  =   0.30     relativ break condition  

   TIME   =   0.40     timestep for ELM

  volume/ion in A,a.u.               =      11.96        80.72
  Fermi-wavevector in a.u.,A,eV,Ry     =   1.175526  2.221423 18.801376  1.381862
  Thomas-Fermi vector in A             =   2.311905
 
 Write flags
   LWAVE        =      F    write WAVECAR
   LDOWNSAMPLE  =      F    k-point downsampling of WAVECAR
   LCHARG       =      F    write CHGCAR
   LVTOT        =      F    write LOCPOT, total local potential
   LVHAR        =      F    write LOCPOT, Hartree potential only
   LELF         =      F    write electronic localiz. function (ELF)
   LORBIT       =      0    0 simple, 1 ext, 2 COOP (PROOUT), +10 PAW based schemes


 Dipole corrections
   LMONO  =      F    monopole corrections only (constant potential shift)
   LDIPOL =      F    correct potential (dipole corrections)
   IDIPOL =      0    1-x, 2-y, 3-z, 4-all directions 
   EPSILON=  1.0000000 bulk dielectric constant

 Exchange correlation treatment:
   GGA     =    --    GGA type
   LEXCH   =     8    internal setting for exchange type
   VOSKOWN=      0    Vosko Wilk Nusair interpolation
   LHFCALC =     F    Hartree Fock is set to
   LHFONE  =     F    Hartree Fock one center treatment
   AEXX    =    0.0000 exact exchange contribution

 Linear response parameters
   LEPSILON=     F    determine dielectric tensor
   LRPA    =     F    only Hartree local field effects (RPA)
   LNABLA  =     F    use nabla operator in PAW spheres
   LVEL    =     F    velocity operator in full k-point grid
   LINTERFAST=   F  fast interpolation
   KINTER  =     0    interpolate to denser k-point grid
   CSHIFT  =0.1000    complex shift for real part using Kramers Kronig
   OMEGAMAX=  -1.0    maximum frequency
   DEG_THRESHOLD= 0.2000000E-02 threshold for treating states as degnerate
   RTIME   =   -0.100 relaxation time in fs
  (WPLASMAI=    0.000 imaginary part of plasma frequency in eV, 0.658/RTIME)
   DFIELD  = 0.0000000 0.0000000 0.0000000 field for delta impulse in time
 
 Orbital magnetization related:
   ORBITALMAG=     F  switch on orbital magnetization
   LCHIMAG   =     F  perturbation theory with respect to B field
   DQ        =  0.001000  dq finite difference perturbation B field
   LLRAUG    =     F  two centre corrections for induced B field



--------------------------------------------------------------------------------------------------------


 conjugate gradient relaxation of ions
 charge density and potential will be updated during run
 non-spin polarized calculation
 RMM-DIIS sequential band-by-band and
  variant of blocked Davidson during initial phase
 perform sub-space diagonalisation
    before iterative eigenvector-optimisation
 modified Broyden-mixing scheme, WC =      100.0
 initial mixing is a Kerker type mixing with AMIX =  0.4000 and BMIX =      1.0000
 Hartree-type preconditioning will be used
 using additional bands           32
 real space projection scheme for non local part
 use partial core corrections
 calculate Harris-corrections to forces 
   (improved forces if not selfconsistent)
 use gradient corrections 
 use of overlap-Matrix (Vanderbilt PP)
 Methfessel and Paxton  Order N= 2 SIGMA  =   0.10


--------------------------------------------------------------------------------------------------------


  energy-cutoff  :      400.00
  volume of cell :      669.85
      direct lattice vectors                 reciprocal lattice vectors
     8.749697356  0.000000000  0.000000000     0.114289667 -0.000000000  0.000000000
     0.000000000  8.749697356  0.000000000    -0.000000000  0.114289667  0.000000000
     0.000000000  0.000000000  8.749697356    -0.000000000 -0.000000000  0.114289667

  length of vectors
     8.749697356  8.749697356  8.749697356     0.114289667  0.114289667  0.114289667


 
 k-points in units of 2pi/SCALE and weight: Automatic mesh                          
   0.00000000  0.00000000  0.00000000       0.008
   0.02285793  0.00000000  0.00000000       0.048
   0.04571587  0.00000000  0.00000000       0.048
   0.02285793  0.02285793  0.00000000       0.096
   0.04571587  0.02285793  0.00000000       0.192
   0.04571587  0.04571587  0.00000000       0.096
   0.02285793  0.02285793  0.02285793       0.064
   0.04571587  0.02285793  0.02285793       0.192
   0.04571587  0.04571587  0.02285793       0.192
   0.04571587  0.04571587  0.04571587       0.064
 
 k-points in reciprocal lattice and weights: Automatic mesh                          
   0.00000000  0.00000000  0.00000000       0.008
   0.20000000  0.00000000  0.00000000       0.048
   0.40000000  0.00000000  0.00000000       0.048
   0.20000000  0.20000000  0.00000000       0.096
   0.40000000  0.20000000  0.00000000       0.192
   0.40000000  0.40000000  0.00000000       0.096
   0.20000000  0.20000000  0.20000000       0.064
   0.40000000  0.20000000  0.20000000       0.192
   0.40000000  0.40000000  0.20000000       0.192
   0.40000000  0.40000000  0.40000000       0.064
 
 position of ions in fractional coordinates (direct lattice) 
   0.87500000  0.87500000  0.12500000
   0.37500000  0.12500000  0.37500000
   0.62500000  0.87500000  0.37500000
   0.12500000  0.12500000  0.12500000
   0.25000000  0.75000000  0.25000000
   0.00000000  0.00000000  0.50000000
   0.87500000  0.37500000  0.62500000
   0.37500000  0.62500000  0.87500000
   0.62500000  0.37500000  0.87500000
   0.12500000  0.62500000  0.62500000
   0.25000000  0.25000000  0.75000000
   0.00000000  0.50000000  0.00000000
   0.37500000  0.87500000  0.62500000
   0.87500000  0.12500000  0.87500000
   0.12500000  0.87500000  0.87500000
   0.62500000  0.12500000  0.62500000
   0.75000000  0.75000000  0.75000000
   0.50000000  0.00000000  0.00000000
   0.37500000  0.37500000  0.12500000
   0.87500000  0.62500000  0.37500000
   0.12500000  0.37500000  0.37500000
   0.62500000  0.62500000  0.12500000
   0.75000000  0.25000000  0.25000000
   0.50000000  0.50000000  0.50000000
   0.37630293  0.37630293  0.37630293
   0.87369707  0.12630293  0.12630293
   0.62630293  0.12630293  0.37369707
   0.12630293  0.87369707  0.12630293
   0.12369707  0.12369707  0.37630293
   0.12369707  0.37630293  0.12369707
   0.37369707  0.87369707  0.37369707
   0.37630293  0.12369707  0.12369707
   0.37630293  0.87630293  0.87630293
   0.87369707  0.62630293  0.62630293
   0.62630293  0.62630293  0.87369707
   0.12630293  0.37369707  0.62630293
   0.12369707  0.62369707  0.87630293
   0.12369707  0.87630293  0.62369707
   0.37369707  0.37369707  0.87369707
   0.37630293  0.62369707  0.62369707
   0.87630293  0.37630293  0.87630293
   0.37369707  0.12630293  0.62630293
   0.12630293  0.12630293  0.87369707
   0.62630293  0.87369707  0.62630293
   0.62369707  0.12369707  0.87630293
   0.62369707  0.37630293  0.62369707
   0.87369707  0.87369707  0.87369707
   0.87630293  0.12369707  0.62369707
   0.87630293  0.87630293  0.37630293
   0.37369707  0.62630293  0.12630293
   0.12630293  0.62630293  0.37369707
   0.62630293  0.37369707  0.12630293
   0.62369707  0.62369707  0.37630293
   0.62369707  0.87630293  0.12369707
   0.87369707  0.37369707  0.37369707
   0.87630293  0.62369707  0.12369707
 
 position of ions in cartesian coordinates  (Angst):
   7.65598519  7.65598519  1.09371217
   3.28113651  1.09371217  3.28113651
   5.46856085  7.65598519  3.28113651
   1.09371217  1.09371217  1.09371217
   2.18742434  6.56227302  2.18742434
   0.00000000  0.00000000  4.37484868
   7.65598519  3.28113651  5.46856085
   3.28113651  5.46856085  7.65598519
   5.46856085  3.28113651  7.65598519
   1.09371217  5.46856085  5.46856085
   2.18742434  2.18742434  6.56227302
   0.00000000  4.37484868  0.00000000
   3.28113651  7.65598519  5.46856085
   7.65598519  1.09371217  7.65598519
   1.09371217  7.65598519  7.65598519
   5.46856085  1.09371217  5.46856085
   6.56227302  6.56227302  6.56227302
   4.37484868  0.00000000  0.00000000
   3.28113651  3.28113651  1.09371217
   7.65598519  5.46856085  3.28113651
   1.09371217  3.28113651  3.28113651
   5.46856085  5.46856085  1.09371217
   6.56227302  2.18742434  2.18742434
   4.37484868  4.37484868  4.37484868
   3.29253678  3.29253678  3.29253678
   7.64458491  1.10511244  1.10511244
   5.47996112  1.10511244  3.26973623
   1.10511244  7.64458491  1.10511244
   1.08231190  1.08231190  3.29253678
   1.08231190  3.29253678  1.08231190
   3.26973623  7.64458491  3.26973623
   3.29253678  1.08231190  1.08231190
   3.29253678  7.66738546  7.66738546
   7.64458491  5.47996112  5.47996112
   5.47996112  5.47996112  7.64458491
   1.10511244  3.26973623  5.47996112
   1.08231190  5.45716057  7.66738546
   1.08231190  7.66738546  5.45716057
   3.26973623  3.26973623  7.64458491
   3.29253678  5.45716057  5.45716057
   7.66738546  3.29253678  7.66738546
   3.26973623  1.10511244  5.47996112
   1.10511244  1.10511244  7.64458491
   5.47996112  7.64458491  5.47996112
   5.45716057  1.08231190  7.66738546
   5.45716057  3.29253678  5.45716057
   7.64458491  7.64458491  7.64458491
   7.66738546  1.08231190  5.45716057
   7.66738546  7.66738546  3.29253678
   3.26973623  5.47996112  1.10511244
   1.10511244  5.47996112  3.26973623
   5.47996112  3.26973623  1.10511244
   5.45716057  5.45716057  3.29253678
   5.45716057  7.66738546  1.08231190
   7.64458491  3.26973623  3.26973623
   7.66738546  5.45716057  1.08231190
 


--------------------------------------------------------------------------------------------------------


 k-point  1 :   0.0000 0.0000 0.0000  plane waves:   12149
 k-point  2 :   0.2000 0.0000 0.0000  plane waves:   12165
 k-point  3 :   0.4000 0.0000 0.0000  plane waves:   12152
 k-point  4 :   0.2000 0.2000 0.0000  plane waves:   12156
 k-point  5 :   0.4000 0.2000 0.0000  plane waves:   12171
 k-point  6 :   0.4000 0.4000 0.0000  plane waves:   12178
 k-point  7 :   0.2000 0.2000 0.2000  plane waves:   12182
 k-point  8 :   0.4000 0.2000 0.2000  plane waves:   12169
 k-point  9 :   0.4000 0.4000 0.2000  plane waves:   12149
 k-point 10 :   0.4000 0.4000 0.4000  plane waves:   12160

 maximum and minimum number of plane-waves per node :      3056     3028

 maximum number of plane-waves:     12182
 maximum index in each direction: 
   IXMAX=   14   IYMAX=   14   IZMAX=   14
   IXMIN=  -14   IYMIN=  -14   IZMIN=  -14


 real space projection operators:
  total allocation   :      16585.50 KBytes
  max/ min on nodes  :       4146.38       4146.38


 parallel 3D FFT for wavefunctions:
    minimum data exchange during FFTs selected (reduces bandwidth)
 parallel 3D FFT for charge:
    minimum data exchange during FFTs selected (reduces bandwidth)


 total amount of memory used by VASP MPI-rank0    75457. kBytes
=======================================================================

   base      :      30000. kBytes
   nonlr-proj:      11488. kBytes
   fftplans  :       5456. kBytes
   grid      :       8702. kBytes
   one-center:         43. kBytes
   wavefun   :      19768. kBytes
 
     INWAV:  cpu time    0.0000: real time    0.0000
 Broyden mixing: mesh for mixing (old mesh)
   NGX = 29   NGY = 29   NGZ = 29
  (NGX  =120   NGY  =120   NGZ  =120)
  gives a total of  24389 points

 initial charge density was supplied:
 charge density of overlapping atoms calculated
 number of electron     248.0000000 magnetization 
 keeping initial charge density in first step


--------------------------------------------------------------------------------------------------------


 Maximum index for non-local projection operator         1632
 Maximum index for augmentation-charges          755 (set IRDMAX)


--------------------------------------------------------------------------------------------------------


 First call to EWALD:  gamma=   0.203
 Maximum number of real-space cells 3x 3x 3
 Maximum number of reciprocal cells 3x 3x 3

    FEWALD:  cpu time    0.0031: real time    0.0031


--------------------------------------- Iteration      1(   1)  ---------------------------------------


    POTLOK:  cpu time    0.0889: real time    0.0935
    SETDIJ:  cpu time    0.0080: real time    0.0080
     EDDAV:  cpu time   16.1400: real time   16.1294
       DOS:  cpu time    0.0017: real time    0.0017
    --------------------------------------------
      LOOP:  cpu time   16.2386: real time   16.2325

 eigenvalue-minimisations  :  3120
 total energy-change (2. order) : 0.8604997E+03  (-0.9732580E+04)
 number of electron     248.0000000 magnetization 
 augmentation part      248.0000000 magnetization 

 Free energy of the ion-electron system (eV)
  ---------------------------------------------------
  alpha Z        PSCENC =       291.18127604
  Ewald energy   TEWEN  =     -9506.69584371
  -Hartree energ DENC   =     -1562.28505411
  -exchange      EXHF   =         0.00000000
  -V(xc)+E(xc)   XCENC  =       186.51841594
  PAW double counting   =      7738.34714636    -7203.94574617
  entropy T*S    EENTRO =         0.00640284
  eigenvalues    EBANDS =      1271.86916269
  atomic energy  EATOM  =      9645.50393724
  Solvation  Ediel_sol  =         0.00000000
  ---------------------------------------------------
  free energy    TOTEN  =       860.49969713 eV

  energy without entropy =      860.49329430  energy(sigma->0) =      860.49809642


--------------------------------------------------------------------------------------------------------




--------------------------------------- Iteration      1(   2)  ---------------------------------------


     EDDAV:  cpu time   12.6761: real time   12.6718
       DOS:  cpu time    0.0017: real time    0.0017
    --------------------------------------------
      LOOP:  cpu time   12.6778: real time   12.6736

 eigenvalue-minimisations  :  3944
 total energy-change (2. order) :-0.1105657E+04  (-0.1059660E+04)
 number of electron     248.0000000 magnetization 
 augmentation part      248.0000000 magnetization 

 Free energy of the ion-electron system (eV)
  ---------------------------------------------------
  alpha Z        PSCENC =       291.18127604
  Ewald energy   TEWEN  =     -9506.69584371
  -Hartree energ DENC   =     -1562.28505411
  -exchange      EXHF   =         0.00000000
  -V(xc)+E(xc)   XCENC  =       186.51841594
  PAW double counting   =      7738.34714636    -7203.94574617
  entropy T*S    EENTRO =         0.00251688
  eigenvalues    EBANDS =       166.21608698
  atomic energy  EATOM  =      9645.50393724
  Solvation  Ediel_sol  =         0.00000000
  ---------------------------------------------------
  free energy    TOTEN  =      -245.15726454 eV

  energy without entropy =     -245.15978142  energy(sigma->0) =     -245.15789376


--------------------------------------------------------------------------------------------------------




--------------------------------------- Iteration      1(   3)  ---------------------------------------


     EDDAV:  cpu time   13.3712: real time   17.1413
       DOS:  cpu time    0.0018: real time    0.0018
    --------------------------------------------
      LOOP:  cpu time   13.3730: real time   17.1430

 eigenvalue-minimisations  :  3936
 total energy-change (2. order) :-0.1073093E+03  (-0.1030399E+03)
 number of electron     248.0000000 magnetization 
 augmentation part      248.0000000 magnetization 

 Free energy of the ion-electron system (eV)
  ---------------------------------------------------
  alpha Z        PSCENC =       291.18127604
  Ewald energy   TEWEN  =     -9506.69584371
  -Hartree energ DENC   =     -1562.28505411
  -exchange      EXHF   =         0.00000000
  -V(xc)+E(xc)   XCENC  =       186.51841594
  PAW double counting   =      7738.34714636    -7203.94574617
  entropy T*S    EENTRO =        -0.00788076
  eigenvalues    EBANDS =        58.91716590
  atomic energy  EATOM  =      9645.50393724
  Solvation  Ediel_sol  =         0.00000000
  ---------------------------------------------------
  free energy    TOTEN  =      -352.46658325 eV

  energy without entropy =     -352.45870249  energy(sigma->0) =     -352.46461306


--------------------------------------------------------------------------------------------------------




--------------------------------------- Iteration      1(   4)  ---------------------------------------


     EDDAV:  cpu time   14.9278: real time   14.9249
       DOS:  cpu time    0.0019: real time    0.0019
    --------------------------------------------
      LOOP:  cpu time   14.9297: real time   14.9268

 eigenvalue-minimisations  :  4040
 total energy-change (2. order) :-0.4126920E+01  (-0.4002073E+01)
 number of electron     248.0000000 magnetization 
 augmentation part      248.0000000 magnetization 

 Free energy of the ion-electron system (eV)
  ---------------------------------------------------
  alpha Z        PSCENC =       291.18127604
  Ewald energy   TEWEN  =     -9506.69584371
  -Hartree energ DENC   =     -1562.28505411
  -exchange      EXHF   =         0.00000000
  -V(xc)+E(xc)   XCENC  =       186.51841594
  PAW double counting   =      7738.34714636    -7203.94574617
  entropy T*S    EENTRO =        -0.01248044
  eigenvalues    EBANDS =        54.79484509
  atomic energy  EATOM  =      9645.50393724
  Solvation  Ediel_sol  =         0.00000000
  ---------------------------------------------------
  free energy    TOTEN  =      -356.59350374 eV

  energy without entropy =     -356.58102330  energy(sigma->0) =     -356.59038363


--------------------------------------------------------------------------------------------------------




--------------------------------------- Iteration      1(   5)  ---------------------------------------


     EDDAV:  cpu time   15.8115: real time   15.8058
       DOS:  cpu time    0.0019: real time    0.0019
    CHARGE:  cpu time    0.3632: real time    0.3632
    MIXING:  cpu time    0.0023: real time    0.0023
    --------------------------------------------
      LOOP:  cpu time   16.1790: real time   16.1734

 eigenvalue-minimisations  :  3912
 total energy-change (2. order) :-0.1204854E+00  (-0.1195028E+00)
 number of electron     247.9999769 magnetization 
 augmentation part       -1.3876699 magnetization 

 Broyden mixing:
  rms(total) = 0.34678E+01    rms(broyden)= 0.34673E+01
  rms(prec ) = 0.48470E+01
  weight for this iteration     100.00

 Free energy of the ion-electron system (eV)
  ---------------------------------------------------
  alpha Z        PSCENC =       291.18127604
  Ewald energy   TEWEN  =     -9506.69584371
  -Hartree energ DENC   =     -1562.28505411
  -exchange      EXHF   =         0.00000000
  -V(xc)+E(xc)   XCENC  =       186.51841594
  PAW double counting   =      7738.34714636    -7203.94574617
  entropy T*S    EENTRO =        -0.01224308
  eigenvalues    EBANDS =        54.67412233
  atomic energy  EATOM  =      9645.50393724
  Solvation  Ediel_sol  =         0.00000000
  ---------------------------------------------------
  free energy    TOTEN  =      -356.71398915 eV

  energy without entropy =     -356.70174606  energy(sigma->0) =     -356.71092838


--------------------------------------------------------------------------------------------------------




--------------------------------------- Iteration      1(   6)  ---------------------------------------


    POTLOK:  cpu time    0.0868: real time    0.0887
    SETDIJ:  cpu time    0.0079: real time    0.0082
    EDDIAG:  cpu time    0.9489: real time    0.9490
  RMM-DIIS:  cpu time    5.2293: real time    5.2285
    ORTHCH:  cpu time    0.1215: real time    0.1214
       DOS:  cpu time    0.0019: real time    0.0019
    CHARGE:  cpu time    0.3649: real time    0.3649
    MIXING:  cpu time    0.0025: real time    0.0025
    --------------------------------------------
      LOOP:  cpu time    6.7637: real time    6.7650

 eigenvalue-minimisations  :  3126
 total energy-change (2. order) : 0.2511194E+02  (-0.1588343E+02)
 number of electron     247.9999855 magnetization 
 augmentation part       -4.2074147 magnetization 

 Broyden mixing:
  rms(total) = 0.15776E+01    rms(broyden)= 0.15765E+01
  rms(prec ) = 0.17061E+01
  weight for this iteration     100.00

 eigenvalues of (default mixing * dielectric matrix)
  average eigenvalue GAMMA=   0.9002
  0.9002

 Free energy of the ion-electron system (eV)
  ---------------------------------------------------
  alpha Z        PSCENC =       291.18127604
  Ewald energy   TEWEN  =     -9506.69584371
  -Hartree energ DENC   =     -1833.24098260
  -exchange      EXHF   =         0.00000000
  -V(xc)+E(xc)   XCENC  =       204.05793901
  PAW double counting   =     12143.57346000   -11610.38956856
  entropy T*S    EENTRO =         0.01052954
  eigenvalues    EBANDS =       334.39720656
  atomic energy  EATOM  =      9645.50393724
  Solvation  Ediel_sol  =         0.00000000
  ---------------------------------------------------
  free energy    TOTEN  =      -331.60204647 eV

  energy without entropy =     -331.61257601  energy(sigma->0) =     -331.60467886


--------------------------------------------------------------------------------------------------------




--------------------------------------- Iteration      1(   7)  ---------------------------------------


    POTLOK:  cpu time    0.0858: real time    0.0875
    SETDIJ:  cpu time    0.0080: real time    0.0082
    EDDIAG:  cpu time    0.9801: real time    0.9824
  RMM-DIIS:  cpu time    5.4856: real time    5.4931
    ORTHCH:  cpu time    0.1197: real time    0.1198
       DOS:  cpu time    0.0019: real time    0.0019
    CHARGE:  cpu time    0.3604: real time    0.3608
    MIXING:  cpu time    0.0025: real time    0.0025
    --------------------------------------------
      LOOP:  cpu time    7.0441: real time    7.0562

 eigenvalue-minimisations  :  3301
 total energy-change (2. order) : 0.9479721E+00  (-0.4408332E+00)
 number of electron     247.9999856 magnetization 
 augmentation part       -4.2266681 magnetization 

 Broyden mixing:
  rms(total) = 0.90959E+00    rms(broyden)= 0.90953E+00
  rms(prec ) = 0.99045E+00
  weight for this iteration     100.00

 eigenvalues of (default mixing * dielectric matrix)
  average eigenvalue GAMMA=   1.5083
  1.0173  1.9992

 Free energy of the ion-electron system (eV)
  ---------------------------------------------------
  alpha Z        PSCENC =       291.18127604
  Ewald energy   TEWEN  =     -9506.69584371
  -Hartree energ DENC   =     -1804.91480511
  -exchange      EXHF   =         0.00000000
  -V(xc)+E(xc)   XCENC  =       202.41832379
  PAW double counting   =     14959.15407709   -14425.88998002
  entropy T*S    EENTRO =         0.01431641
  eigenvalues    EBANDS =       308.57462386
  atomic energy  EATOM  =      9645.50393724
  Solvation  Ediel_sol  =         0.00000000
  ---------------------------------------------------
  free energy    TOTEN  =      -330.65407441 eV

  energy without entropy =     -330.66839081  energy(sigma->0) =     -330.65765351


--------------------------------------------------------------------------------------------------------




--------------------------------------- Iteration      1(   8)  ---------------------------------------


    POTLOK:  cpu time    0.0851: real time    0.0869
    SETDIJ:  cpu time    0.0080: real time    0.0080
    EDDIAG:  cpu time    0.9789: real time    0.9789
  RMM-DIIS:  cpu time    5.5581: real time    5.5568
    ORTHCH:  cpu time    1.0938: real time    1.0936
       DOS:  cpu time    0.0019: real time    0.0019
    CHARGE:  cpu time    0.3649: real time    0.3649
    MIXING:  cpu time    0.0025: real time    0.0025
    --------------------------------------------
      LOOP:  cpu time    8.0932: real time    8.0934

 eigenvalue-minimisations  :  3120
 total energy-change (2. order) : 0.9391991E-01  (-0.3347171E+00)
 number of electron     247.9999846 magnetization 
 augmentation part       -3.9089345 magnetization 

 Broyden mixing:
  rms(total) = 0.24958E+00    rms(broyden)= 0.24947E+00
  rms(prec ) = 0.37513E+00
  weight for this iteration     100.00

 eigenvalues of (default mixing * dielectric matrix)
  average eigenvalue GAMMA=   1.3863
  2.2916  0.9337  0.9337

 Free energy of the ion-electron system (eV)
  ---------------------------------------------------
  alpha Z        PSCENC =       291.18127604
  Ewald energy   TEWEN  =     -9506.69584371
  -Hartree energ DENC   =     -1770.25991165
  -exchange      EXHF   =         0.00000000
  -V(xc)+E(xc)   XCENC  =       200.52591929
  PAW double counting   =     18942.21590774   -18408.83355411
  entropy T*S    EENTRO =         0.01274705
  eigenvalues    EBANDS =       275.78936761
  atomic energy  EATOM  =      9645.50393724
  Solvation  Ediel_sol  =         0.00000000
  ---------------------------------------------------
  free energy    TOTEN  =      -330.56015450 eV

  energy without entropy =     -330.57290154  energy(sigma->0) =     -330.56334126


--------------------------------------------------------------------------------------------------------




--------------------------------------- Iteration      1(   9)  ---------------------------------------


    POTLOK:  cpu time    0.0859: real time    0.0876
    SETDIJ:  cpu time    0.0077: real time    0.0077
    EDDIAG:  cpu time    1.0009: real time    1.0012
  RMM-DIIS:  cpu time    5.1288: real time    5.1281
    ORTHCH:  cpu time    0.1196: real time    0.1196
       DOS:  cpu time    0.0019: real time    0.0019
    CHARGE:  cpu time    0.3636: real time    0.3636
    MIXING:  cpu time    0.0025: real time    0.0025
    --------------------------------------------
      LOOP:  cpu time    6.7109: real time    6.7122

 eigenvalue-minimisations  :  3150
 total energy-change (2. order) : 0.2207823E+00  (-0.4522460E-01)
 number of electron     247.9999850 magnetization 
 augmentation part       -4.0550709 magnetization 

 Broyden mixing:
  rms(total) = 0.68335E-01    rms(broyden)= 0.68315E-01
  rms(prec ) = 0.90162E-01
  weight for this iteration     100.00

 eigenvalues of (default mixing * dielectric matrix)
  average eigenvalue GAMMA=   1.3172
  2.2417  1.0312  0.9980  0.9980

 Free energy of the ion-electron system (eV)
  ---------------------------------------------------
  alpha Z        PSCENC =       291.18127604
  Ewald energy   TEWEN  =     -9506.69584371
  -Hartree energ DENC   =     -1790.72612186
  -exchange      EXHF   =         0.00000000
  -V(xc)+E(xc)   XCENC  =       201.88912235
  PAW double counting   =     19496.84642830   -18963.56195456
  entropy T*S    EENTRO =         0.01467825
  eigenvalues    EBANDS =       295.20910574
  atomic energy  EATOM  =      9645.50393724
  Solvation  Ediel_sol  =         0.00000000
  ---------------------------------------------------
  free energy    TOTEN  =      -330.33937221 eV

  energy without entropy =     -330.35405045  energy(sigma->0) =     -330.34304177


--------------------------------------------------------------------------------------------------------




--------------------------------------- Iteration      1(  10)  ---------------------------------------


    POTLOK:  cpu time    0.0876: real time    0.0877
    SETDIJ:  cpu time    0.0076: real time    0.0076
    EDDIAG:  cpu time    0.9759: real time    0.9757
  RMM-DIIS:  cpu time    5.5810: real time    5.5796
    ORTHCH:  cpu time    0.1198: real time    0.1198
       DOS:  cpu time    0.0019: real time    0.0019
    CHARGE:  cpu time    0.3654: real time    0.3654
    MIXING:  cpu time    0.0025: real time    0.0025
    --------------------------------------------
      LOOP:  cpu time    7.1418: real time    7.1401

 eigenvalue-minimisations  :  3398
 total energy-change (2. order) :-0.5498808E-03  (-0.8702274E-02)
 number of electron     247.9999851 magnetization 
 augmentation part       -4.1015455 magnetization 

 Broyden mixing:
  rms(total) = 0.26781E-01    rms(broyden)= 0.26740E-01
  rms(prec ) = 0.29790E-01
  weight for this iteration     100.00

 eigenvalues of (default mixing * dielectric matrix)
  average eigenvalue GAMMA=   1.5967
  2.5462  2.5462  0.9109  0.9901  0.9901

 Free energy of the ion-electron system (eV)
  ---------------------------------------------------
  alpha Z        PSCENC =       291.18127604
  Ewald energy   TEWEN  =     -9506.69584371
  -Hartree energ DENC   =     -1793.60587891
  -exchange      EXHF   =         0.00000000
  -V(xc)+E(xc)   XCENC  =       202.09572317
  PAW double counting   =     19468.15841997   -18934.90834380
  entropy T*S    EENTRO =         0.01468799
  eigenvalues    EBANDS =       297.91609991
  atomic energy  EATOM  =      9645.50393724
  Solvation  Ediel_sol  =         0.00000000
  ---------------------------------------------------
  free energy    TOTEN  =      -330.33992209 eV

  energy without entropy =     -330.35461008  energy(sigma->0) =     -330.34359408


--------------------------------------------------------------------------------------------------------




--------------------------------------- Iteration      1(  11)  ---------------------------------------


    POTLOK:  cpu time    0.0835: real time    0.0855
    SETDIJ:  cpu time    0.0077: real time    0.0077
    EDDIAG:  cpu time    0.9468: real time    0.9473
  RMM-DIIS:  cpu time    4.8668: real time    5.8701
    ORTHCH:  cpu time    0.8730: real time    1.6289
       DOS:  cpu time    0.0019: real time    0.0019
    CHARGE:  cpu time    0.3706: real time    0.3713
    MIXING:  cpu time    0.0031: real time    0.0032
    --------------------------------------------
      LOOP:  cpu time    7.1535: real time    8.9159

 eigenvalue-minimisations  :  3277
 total energy-change (2. order) :-0.1027392E-02  (-0.4136671E-03)
 number of electron     247.9999851 magnetization 
 augmentation part       -4.0998943 magnetization 

 Broyden mixing:
  rms(total) = 0.85235E-02    rms(broyden)= 0.85196E-02
  rms(prec ) = 0.11713E-01
  weight for this iteration     100.00

 eigenvalues of (default mixing * dielectric matrix)
  average eigenvalue GAMMA=   1.4643
  2.6163  2.3811  0.9692  0.9692  0.9250  0.9250

 Free energy of the ion-electron system (eV)
  ---------------------------------------------------
  alpha Z        PSCENC =       291.18127604
  Ewald energy   TEWEN  =     -9506.69584371
  -Hartree energ DENC   =     -1793.29958174
  -exchange      EXHF   =         0.00000000
  -V(xc)+E(xc)   XCENC  =       202.12252275
  PAW double counting   =     19385.50483858   -18852.28648103
  entropy T*S    EENTRO =         0.01467418
  eigenvalues    EBANDS =       297.61370820
  atomic energy  EATOM  =      9645.50393724
  Solvation  Ediel_sol  =         0.00000000
  ---------------------------------------------------
  free energy    TOTEN  =      -330.34094948 eV

  energy without entropy =     -330.35562366  energy(sigma->0) =     -330.34461802


--------------------------------------------------------------------------------------------------------




--------------------------------------- Iteration      1(  12)  ---------------------------------------


    POTLOK:  cpu time    0.0853: real time    0.0853
    SETDIJ:  cpu time    0.0076: real time    0.0076
    EDDIAG:  cpu time    1.9034: real time    1.9032
  RMM-DIIS:  cpu time    7.2315: real time    7.2307
    ORTHCH:  cpu time    3.4575: real time    3.4573
       DOS:  cpu time    0.0015: real time    0.0015
    CHARGE:  cpu time    2.2794: real time    2.2792
    MIXING:  cpu time    0.2882: real time    0.2882
    --------------------------------------------
      LOOP:  cpu time   15.2545: real time   15.2531

 eigenvalue-minimisations  :  3336
 total energy-change (2. order) :-0.1626721E-04  (-0.2954200E-03)
 number of electron     247.9999851 magnetization 
 augmentation part       -4.1099618 magnetization 

 Broyden mixing:
  rms(total) = 0.57318E-02    rms(broyden)= 0.57251E-02
  rms(prec ) = 0.78551E-02
  weight for this iteration     100.00

 eigenvalues of (default mixing * dielectric matrix)
  average eigenvalue GAMMA=   1.4507
  2.6662  2.3224  0.9337  0.9337  1.1660  1.0665  1.0665

 Free energy of the ion-electron system (eV)
  ---------------------------------------------------
  alpha Z        PSCENC =       291.18127604
  Ewald energy   TEWEN  =     -9506.69584371
  -Hartree energ DENC   =     -1794.20531377
  -exchange      EXHF   =         0.00000000
  -V(xc)+E(xc)   XCENC  =       202.18049510
  PAW double counting   =     19412.82626738   -18879.60828637
  entropy T*S    EENTRO =         0.01469820
  eigenvalues    EBANDS =       298.46180413
  atomic energy  EATOM  =      9645.50393724
  Solvation  Ediel_sol  =         0.00000000
  ---------------------------------------------------
  free energy    TOTEN  =      -330.34096574 eV

  energy without entropy =     -330.35566395  energy(sigma->0) =     -330.34464030


--------------------------------------------------------------------------------------------------------




--------------------------------------- Iteration      1(  13)  ---------------------------------------


    POTLOK:  cpu time    1.0343: real time    1.0354
    SETDIJ:  cpu time    0.1223: real time    0.1223
    EDDIAG:  cpu time    5.2963: real time    5.2960
  RMM-DIIS:  cpu time    3.5916: real time    3.5911
    ORTHCH:  cpu time    0.1196: real time    0.1196
       DOS:  cpu time    0.0017: real time    0.0017
    --------------------------------------------
      LOOP:  cpu time   10.1659: real time   10.1661

 eigenvalue-minimisations  :  1935
 total energy-change (2. order) : 0.8493762E-04  (-0.2021567E-04)
 number of electron     247.9999851 magnetization 
 augmentation part       -4.1099618 magnetization 

 Free energy of the ion-electron system (eV)
  ---------------------------------------------------
  alpha Z        PSCENC =       291.18127604
  Ewald energy   TEWEN  =     -9506.69584371
  -Hartree energ DENC   =     -1793.82681396
  -exchange      EXHF   =         0.00000000
  -V(xc)+E(xc)   XCENC  =       202.15647881
  PAW double counting   =     19406.65341557   -18873.43151083
  entropy T*S    EENTRO =         0.01468820
  eigenvalues    EBANDS =       298.10349182
  atomic energy  EATOM  =      9645.50393724
  Solvation  Ediel_sol  =         0.00000000
  ---------------------------------------------------
  free energy    TOTEN  =      -330.34088081 eV

  energy without entropy =     -330.35556901  energy(sigma->0) =     -330.34455286


--------------------------------------------------------------------------------------------------------




 average (electrostatic) potential at core
  the test charge radii are     0.7089  0.9892
  (the norm of the test charge is              1.0000)
       1 -61.6277       2 -61.6277       3 -61.6277       4 -61.6277       5 -61.4971
       6 -61.4971       7 -61.6277       8 -61.6277       9 -61.6277      10 -61.6277
      11 -61.4971      12 -61.4971      13 -61.6277      14 -61.6277      15 -61.6277
      16 -61.6277      17 -61.4971      18 -61.4971      19 -61.6277      20 -61.6277
      21 -61.6277      22 -61.6277      23 -61.4971      24 -61.4971      25 -81.8070
      26 -81.8070      27 -81.8070      28 -81.8070      29 -81.8070      30 -81.8070
      31 -81.8070      32 -81.8070      33 -81.8070      34 -81.8070      35 -81.8070
      36 -81.8070      37 -81.8070      38 -81.8070      39 -81.8070      40 -81.8070
      41 -81.8070      42 -81.8070      43 -81.8070      44 -81.8070      45 -81.8070
      46 -81.8070      47 -81.8070      48 -81.8070      49 -81.8070      50 -81.8070
      51 -81.8070      52 -81.8070      53 -81.8070      54 -81.8070      55 -81.8070
      56 -81.8070
 
 
 
 E-fermi :   8.8330     XC(G=0): -11.1559     alpha+bet :-14.5708


 k-point     1 :       0.0000    0.0000    0.0000
  band No.  band energies     occupation 
      1      -9.6475      2.00000
      2      -8.8968      2.00000
      3      -8.8968      2.00000
      4      -8.8968      2.00000
      5      -8.8968      2.00000
      6      -8.8968      2.00000
      7      -8.8968      2.00000
      8      -8.5956      2.00000
      9      -8.0016      2.00000
     10      -7.9094      2.00000
     11      -7.9094      2.00000
     12      -7.9094      2.00000
     13      -7.9094      2.00000
     14      -7.9094      2.00000
     15      -7.9094      2.00000
     16      -6.9150      2.00000
     17      -6.9150      2.00000
     18      -6.9150      2.00000
     19      -6.9150      2.00000
     20      -6.9150      2.00000
     21      -6.9150      2.00000
     22      -6.8103      2.00000
     23      -6.8103      2.00000
     24      -6.8103      2.00000
     25      -1.3932      2.00000
     26      -1.3932      2.00000
     27      -1.3932      2.00000
     28      -1.0429      2.00000
     29      -1.0415      2.00000
     30      -1.0415      2.00000
     31      -1.0415      2.00000
     32      -1.0415      2.00000
     33      -1.0415      2.00000
     34      -1.0415      2.00000
     35      -0.1834      2.00000
     36      -0.1834      2.00000
     37      -0.1834      2.00000
     38      -0.1834      2.00000
     39      -0.1834      2.00000
     40      -0.1834      2.00000
     41       0.1185      2.00000
     42       0.1185      2.00000
     43       0.1185      2.00000
     44       0.3990      2.00000
     45       0.3990      2.00000
     46       0.3990      2.00000
     47       0.3990      2.00000
     48       0.3990      2.00000
     49       0.3990      2.00000
     50       0.7391      2.00000
     51       0.7391      2.00000
     52       0.7391      2.00000
     53       0.7391      2.00000
     54       0.7391      2.00000
     55       0.7391      2.00000
     56       1.1489      2.00000
     57       1.1489      2.00000
     58       2.4462      2.00000
     59       2.4462      2.00000
     60       2.4462      2.00000
     61       2.4462      2.00000
     62       2.4462      2.00000
     63       2.4462      2.00000
     64       2.4784      2.00000
     65       2.4784      2.00000
     66       2.4784      2.00000
     67       2.4784      2.00000
     68       2.4784      2.00000
     69       2.4784      2.00000
     70       2.5187      2.00000
     71       2.5187      2.00000
     72       2.5187      2.00000
     73       2.5187      2.00000
     74       2.5187      2.00000
     75       2.5187      2.00000
     76       2.6301      2.00000
     77       2.6301      2.00000
     78       2.6301      2.00000
     79       3.0581      2.00000
     80       3.0581      2.00000
     81       3.0581      2.00000
     82       3.0581      2.00000
     83       3.0581      2.00000
     84       3.0581      2.00000
     85       4.1127      2.00000
     86       4.3084      2.00000
     87       4.3084      2.00000
     88       4.3084      2.00000
     89       4.9632      2.00000
     90       4.9632      2.00000
     91       4.9632      2.00000
     92       4.9632      2.00000
     93       4.9632      2.00000
     94       4.9632      2.00000
     95       5.4009      2.00000
     96       5.4009      2.00000
     97       5.4009      2.00000
     98       6.7899      2.00000
     99       6.7899      2.00000
    100       6.7899      2.00000
    101       7.1750      2.00000
    102       7.1750      2.00000
    103       7.1750      2.00000
    104       7.1750      2.00000
    105       7.1750      2.00000
    106       7.1750      2.00000
    107       7.8815      2.00000
    108       7.8815      2.00000
    109       7.8815      2.00000
    110       7.8815      2.00000
    111       7.8815      2.00000
    112       7.8815      2.00000
    113       7.8908      2.00000
    114       7.8908      2.00000
    115       7.8908      2.00000
    116       7.8908      2.00000
    117       7.8908      2.00000
    118       7.8908      2.00000
    119       8.2071      2.00000
    120       8.2071      2.00000
    121       8.2071      2.00000
    122       8.2958      2.00000
    123       8.2958      2.00000
    124       8.2958      2.00000
    125       8.2958      2.00000
    126       8.2958      2.00000
    127       8.2958      2.00000
    128       9.9139      0.00000
    129      10.1670      0.00000
    130      10.1670      0.00000
    131      10.1670      0.00000
    132      10.1670      0.00000
    133      10.1670      0.00000
    134      10.1670      0.00000
    135      10.2263      0.00000
    136      10.2263      0.00000
    137      10.2263      0.00000
    138      10.2263      0.00000
    139      10.2263      0.00000
    140      10.2263      0.00000
    141      10.3322      0.00000
    142      10.3322      0.00000
    143      10.3875      0.00000
    144      10.3875      0.00000
    145      10.3875      0.00000
    146      10.3875      0.00000
    147      10.3876      0.00000
    148      10.3876      0.00000
    149      10.5830      0.00000
    150      11.1066      0.00000
    151      11.1066      0.00000
    152      11.1067      0.00000
    153      12.3650      0.00000
    154      12.3916      0.00000
    155      12.4418      0.00000
    156      12.4810      0.00000

 k-point     2 :       0.2000    0.0000    0.0000
  band No.  band energies     occupation 
      1      -9.6044      2.00000
      2      -9.0806      2.00000
      3      -8.8897      2.00000
      4      -8.8897      2.00000
      5      -8.8897      2.00000
      6      -8.8897      2.00000
      7      -8.7750      2.00000
      8      -8.6083      2.00000
      9      -8.0470      2.00000
     10      -8.0174      2.00000
     11      -7.9337      2.00000
     12      -7.9337      2.00000
     13      -7.9337      2.00000
     14      -7.9337      2.00000
     15      -7.6566      2.00000
     16      -6.9053      2.00000
     17      -6.9053      2.00000
     18      -6.8931      2.00000
     19      -6.8931      2.00000
     20      -6.8931      2.00000
     21      -6.8931      2.00000
     22      -6.8778      2.00000
     23      -6.8203      2.00000
     24      -6.8203      2.00000
     25      -1.3793      2.00000
     26      -1.3793      2.00000
     27      -1.2817      2.00000
     28      -1.1001      2.00000
     29      -1.1001      2.00000
     30      -0.9970      2.00000
     31      -0.9970      2.00000
     32      -0.9970      2.00000
     33      -0.9970      2.00000
     34      -0.9581      2.00000
     35      -0.4476      2.00000
     36      -0.3222      2.00000
     37      -0.3222      2.00000
     38      -0.3222      2.00000
     39      -0.3222      2.00000
     40      -0.1254      2.00000
     41      -0.0996      2.00000
     42       0.1444      2.00000
     43       0.2196      2.00000
     44       0.2196      2.00000
     45       0.3757      2.00000
     46       0.3757      2.00000
     47       0.3757      2.00000
     48       0.3757      2.00000
     49       0.5332      2.00000
     50       0.7709      2.00000
     51       0.7709      2.00000
     52       0.8519      2.00000
     53       0.8519      2.00000
     54       0.8519      2.00000
     55       0.8519      2.00000
     56       1.2052      2.00000
     57       1.5560      2.00000
     58       2.0050      2.00000
     59       2.1047      2.00000
     60       2.1047      2.00000
     61       2.1047      2.00000
     62       2.1047      2.00000
     63       2.3050      2.00000
     64       2.3534      2.00000
     65       2.3534      2.00000
     66       2.5424      2.00000
     67       2.5424      2.00000
     68       2.5424      2.00000
     69       2.5424      2.00000
     70       2.5777      2.00000
     71       2.5777      2.00000
     72       2.6550      2.00000
     73       2.7268      2.00000
     74       2.9026      2.00000
     75       2.9026      2.00000
     76       2.9026      2.00000
     77       2.9026      2.00000
     78       2.9361      2.00000
     79       3.0976      2.00000
     80       3.0976      2.00000
     81       3.0976      2.00000
     82       3.0976      2.00000
     83       3.2370      2.00000
     84       3.2370      2.00000
     85       4.1260      2.00000
     86       4.1260      2.00000
     87       4.1676      2.00000
     88       4.1948      2.00000
     89       4.8030      2.00000
     90       4.8030      2.00000
     91       4.8030      2.00000
     92       4.8030      2.00000
     93       4.9880      2.00000
     94       4.9880      2.00000
     95       5.3072      2.00000
     96       5.3072      2.00000
     97       5.4745      2.00000
     98       6.7045      2.00000
     99       6.8478      2.00000
    100       7.0110      2.00000
    101       7.1473      2.00000
    102       7.1473      2.00000
    103       7.1670      2.00000
    104       7.1670      2.00000
    105       7.1670      2.00000
    106       7.1670      2.00000
    107       7.5208      2.00000
    108       7.5208      2.00000
    109       7.5208      2.00000
    110       7.5208      2.00000
    111       7.5348      2.00000
    112       7.7095      2.00000
    113       7.8373      2.00000
    114       7.8373      2.00000
    115       7.9990      2.00000
    116       7.9990      2.00000
    117       7.9990      2.00000
    118       7.9990      2.00000
    119       8.1922      2.00000
    120       8.1922      2.00000
    121       8.5337      1.99938
    122       8.5337      1.99938
    123       8.6648      2.00143
    124       8.6999      2.05063
    125       8.6999      2.05063
    126       8.6999      2.05063
    127       8.6999      2.05063
    128       9.7285      0.00000
    129       9.7285      0.00000
    130       9.7285      0.00000
    131       9.7285      0.00000
    132      10.0452      0.00000
    133      10.0740      0.00000
    134      10.0742      0.00000
    135      10.1024      0.00000
    136      10.1462      0.00000
    137      10.2950      0.00000
    138      10.3410      0.00000
    139      10.3437      0.00000
    140      10.3728      0.00000
    141      10.3729      0.00000
    142      10.3730      0.00000
    143      10.3731      0.00000
    144      10.6753      0.00000
    145      10.6754      0.00000
    146      10.6755      0.00000
    147      10.6757      0.00000
    148      10.8958      0.00000
    149      11.0438      0.00000
    150      11.0476      0.00000
    151      11.0535      0.00000
    152      11.0539      0.00000
    153      11.8021      0.00000
    154      12.1753      0.00000
    155      12.2235      0.00000
    156      12.3328      0.00000

 k-point     3 :       0.4000    0.0000    0.0000
  band No.  band energies     occupation 
      1      -9.4807      2.00000
      2      -9.2938      2.00000
      3      -8.8777      2.00000
      4      -8.8777      2.00000
      5      -8.8777      2.00000
      6      -8.8777      2.00000
      7      -8.6980      2.00000
      8      -8.6438      2.00000
      9      -8.0781      2.00000
     10      -8.0529      2.00000
     11      -7.9718      2.00000
     12      -7.9718      2.00000
     13      -7.9718      2.00000
     14      -7.9718      2.00000
     15      -7.3501      2.00000
     16      -7.0697      2.00000
     17      -6.8794      2.00000
     18      -6.8794      2.00000
     19      -6.8591      2.00000
     20      -6.8591      2.00000
     21      -6.8591      2.00000
     22      -6.8591      2.00000
     23      -6.8468      2.00000
     24      -6.8468      2.00000
     25      -1.3251      2.00000
     26      -1.3251      2.00000
     27      -1.2216      2.00000
     28      -1.2216      2.00000
     29      -0.9664      2.00000
     30      -0.8751      2.00000
     31      -0.8751      2.00000
     32      -0.8751      2.00000
     33      -0.8751      2.00000
     34      -0.7316      2.00000
     35      -0.5816      2.00000
     36      -0.5678      2.00000
     37      -0.5678      2.00000
     38      -0.5678      2.00000
     39      -0.5678      2.00000
     40      -0.5129      2.00000
     41      -0.3873      2.00000
     42      -0.2525      2.00000
     43       0.3517      2.00000
     44       0.3517      2.00000
     45       0.3517      2.00000
     46       0.3517      2.00000
     47       0.4707      2.00000
     48       0.4707      2.00000
     49       0.7144      2.00000
     50       0.7144      2.00000
     51       1.0130      2.00000
     52       1.0130      2.00000
     53       1.0130      2.00000
     54       1.0130      2.00000
     55       1.0340      2.00000
     56       1.3714      2.00000
     57       1.6411      2.00000
     58       1.6747      2.00000
     59       1.8360      2.00000
     60       1.8360      2.00000
[...]
    120       8.4955      1.99997
    121       8.4955      1.99997
    122       8.6239      1.99243
    123       8.6239      1.99243
    124       8.6239      1.99243
    125       9.5105      0.00000
    126       9.5105      0.00000
    127       9.5105      0.00000
    128       9.6772      0.00000
    129       9.6772      0.00000
    130       9.6902      0.00000
    131       9.6902      0.00000
    132       9.6902      0.00000
    133       9.9619      0.00000
    134       9.9619      0.00000
    135       9.9619      0.00000
    136      10.3368      0.00000
    137      10.3368      0.00000
    138      10.3368      0.00000
    139      10.4659      0.00000
    140      10.4659      0.00000
    141      10.5191      0.00000
    142      10.8059      0.00000
    143      10.8059      0.00000
    144      10.8059      0.00000
    145      11.1020      0.00000
    146      11.1020      0.00000
    147      11.1021      0.00000
    148      11.1095      0.00000
    149      11.1097      0.00000
    150      11.1101      0.00000
    151      11.3516      0.00000
    152      11.3540      0.00000
    153      11.3746      0.00000
    154      11.4221      0.00000
    155      11.4302      0.00000
    156      11.4464      0.00000


--------------------------------------------------------------------------------------------------------


 soft charge-density along one line, spin component           1
         0         1         2         3         4         5         6         7         8         9
 total charge-density along one line
 
 pseudopotential strength for first ion, spin component:           1
 12.439  14.910   0.000  -0.000  -0.000   0.000  -0.000  -0.000
 14.910  17.873   0.000  -0.000  -0.000   0.000  -0.000  -0.000
  0.000   0.000  -5.921  -0.003   0.003  -7.907  -0.005   0.005
 -0.000  -0.000  -0.003  -5.921  -0.003  -0.005  -7.907  -0.005
 -0.000  -0.000   0.003  -0.003  -5.921   0.005  -0.005  -7.907
  0.000   0.000  -7.907  -0.005   0.005  -9.846  -0.008   0.008
 -0.000  -0.000  -0.005  -7.907  -0.005  -0.008  -9.846  -0.008
 -0.000  -0.000   0.005  -0.005  -7.907   0.008  -0.008  -9.846
 total augmentation occupancy for first ion, spin component:           1
  5.308  -2.383  -0.000  -0.000   0.000   0.000   0.000   0.000
 -2.383   1.622   0.000   0.000   0.000   0.000   0.000  -0.000
 -0.000   0.000   1.738  -0.044   0.044  -0.249   0.002  -0.002
 -0.000   0.000  -0.044   1.738  -0.044   0.002  -0.249   0.002
  0.000   0.000   0.044  -0.044   1.738  -0.002   0.002  -0.249
  0.000   0.000  -0.249   0.002  -0.002   0.046   0.001  -0.001
  0.000   0.000   0.002  -0.249   0.002   0.001   0.046   0.001
  0.000  -0.000  -0.002   0.002  -0.249  -0.001   0.001   0.046


------------------------ aborting loop because EDIFF is reached ----------------------------------------


    CHARGE:  cpu time    0.3678: real time    0.3678
    FORLOC:  cpu time    0.0320: real time    0.0320
    FORNL :  cpu time    2.3519: real time    2.3514
    STRESS:  cpu time    7.0673: real time    7.0661
    FORCOR:  cpu time    0.1146: real time    0.1145
    FORHAR:  cpu time    0.0504: real time    0.0505
    MIXING:  cpu time    0.0025: real time    0.0025
    OFIELD:  cpu time    0.0000: real time    0.0000

  FORCE on cell =-STRESS in cart. coord.  units (eV):
  Direction    XX          YY          ZZ          XY          YZ          ZX
  --------------------------------------------------------------------------------------
  Alpha Z   291.18128   291.18128   291.18128
  Ewald   -3168.61959 -3168.61959 -3168.61959    -0.00000     0.00000    -0.00000
  Hartree   598.42089   598.42089   598.42089    -0.00000    -0.00000    -0.00000
  E(xc)    -910.16308  -910.16308  -910.16308     0.00000     0.00000    -0.00000
  Local    -828.96535  -828.96535  -828.96535     0.00000     0.00000    -0.00000
  n-local   976.17525   976.59608   978.15129    -0.14050     1.06575     0.21587
  augment  -182.88021  -182.88021  -182.88021    -0.00000     0.00000     0.00000
  Kinetic  3191.06835  3202.75012  3210.62987    -2.50884    -3.06431    -1.27851
  Fock        0.00000     0.00000     0.00000     0.00000     0.00000     0.00000
  -------------------------------------------------------------------------------------
  Total     -22.56907   -22.56907   -22.56907    -0.00000    -0.00000    -0.00000
  in kB     -53.98153   -53.98153   -53.98153    -0.00000    -0.00000    -0.00000
  external pressure =      -53.98 kB  Pullay stress =        0.00 kB


 VOLUME and BASIS-vectors are now :
 -----------------------------------------------------------------------------
  energy-cutoff  :      400.00
  volume of cell :      669.85
      direct lattice vectors                 reciprocal lattice vectors
     8.749697356  0.000000000  0.000000000     0.114289667 -0.000000000  0.000000000
     0.000000000  8.749697356  0.000000000    -0.000000000  0.114289667  0.000000000
     0.000000000  0.000000000  8.749697356    -0.000000000 -0.000000000  0.114289667

  length of vectors
     8.749697356  8.749697356  8.749697356     0.114289667  0.114289667  0.114289667


 FORCES acting on ions
    electron-ion (+dipol)            ewald-force                    non-local-force                 convergence-correction
 -----------------------------------------------------------------------------------------------
   0.257E-11 -.164E-11 -.872E-12   0.301E-13 0.711E-14 -.761E-14   0.177E-20 -.852E-21 -.749E-21   -.884E-13 0.138E-11 -.152E-11
   -.491E-12 -.121E-11 -.811E-12   0.412E-13 0.293E-13 0.666E-14   0.137E-20 -.169E-20 0.254E-21   -.248E-12 0.197E-11 -.109E-11
   -.255E-13 -.363E-12 -.580E-12   0.213E-13 0.178E-13 -.107E-13   0.235E-21 0.999E-21 0.972E-21   0.162E-12 0.113E-11 0.129E-11
   0.297E-12 0.558E-12 0.165E-11   0.888E-14 0.139E-13 -.151E-13   0.912E-21 0.121E-20 0.732E-21   -.896E-12 0.168E-11 0.117E-11
   0.188E-12 0.959E-13 -.339E-12   0.213E-13 0.222E-13 0.488E-13   0.475E-18 -.792E-18 -.363E-17   -.377E-12 0.263E-12 -.102E-11
   -.779E-13 -.394E-14 0.163E-12   -.204E-13 -.400E-13 -.320E-13   0.585E-18 -.887E-18 0.134E-17   -.127E-11 -.123E-12 0.104E-11
   -.195E-11 -.682E-12 -.126E-11   0.321E-13 0.115E-13 0.192E-13   0.120E-20 -.204E-20 -.137E-21   -.160E-13 0.363E-12 -.179E-11
   -.276E-12 0.850E-12 -.143E-11   0.386E-13 0.198E-13 0.799E-14   0.155E-20 -.594E-21 0.193E-22   0.372E-12 0.204E-11 -.108E-11
   0.126E-12 -.201E-12 -.738E-12   0.142E-13 0.142E-13 -.355E-14   0.821E-21 -.350E-21 -.277E-21   0.649E-13 0.114E-11 0.188E-11
   0.294E-12 0.157E-12 0.101E-11   0.178E-14 0.115E-13 -.611E-15   0.307E-21 -.415E-21 -.277E-21   0.455E-12 0.159E-11 0.113E-11
   0.192E-12 -.128E-12 -.122E-12   0.218E-13 0.404E-13 0.591E-13   0.190E-17 0.863E-18 -.612E-18   -.332E-12 0.199E-12 -.604E-12
   -.908E-13 0.130E-12 0.328E-13   -.497E-13 -.639E-13 -.355E-13   0.304E-17 -.225E-17 0.375E-17   -.115E-11 -.108E-11 0.159E-11
   0.212E-12 -.264E-12 -.587E-12   -.763E-14 -.120E-13 -.301E-13   0.202E-20 -.108E-20 -.195E-21   0.968E-13 -.128E-11 0.217E-11
   0.229E-11 -.233E-11 0.180E-13   -.203E-13 0.225E-14 -.178E-14   0.102E-20 -.157E-20 -.207E-21   -.607E-13 -.193E-11 0.172E-11
   0.340E-12 0.224E-12 0.691E-12   -.160E-13 -.355E-14 -.533E-14   0.854E-21 -.101E-20 -.223E-21   -.177E-12 -.779E-12 -.138E-11
   0.391E-12 0.400E-12 0.303E-12   -.480E-13 -.325E-13 -.209E-13   -.267E-21 0.106E-21 -.341E-21   0.189E-12 -.131E-11 -.662E-12
   0.328E-12 -.221E-11 -.147E-11   0.187E-13 0.524E-13 0.302E-13   -.208E-17 0.110E-17 -.387E-18   -.990E-12 0.277E-11 0.254E-12
   0.325E-13 -.807E-14 -.129E-11   -.542E-13 -.275E-13 -.364E-13   -.173E-17 0.543E-18 0.353E-17   0.216E-11 -.209E-11 -.627E-12
   -.753E-12 -.393E-12 0.319E-13   -.118E-13 -.444E-14 0.918E-14   0.277E-20 -.448E-21 -.245E-21   -.274E-13 -.965E-12 0.159E-11
   -.833E-12 0.759E-12 -.811E-12   -.129E-13 0.633E-14 -.426E-13   0.606E-21 -.147E-20 0.123E-20   0.122E-13 -.236E-11 0.506E-12
   0.320E-12 0.237E-12 0.133E-11   -.338E-13 0.195E-13 0.711E-14   0.171E-21 0.117E-20 0.727E-21   -.311E-12 -.118E-11 -.172E-11
   0.996E-12 0.699E-12 0.289E-14   -.568E-13 -.294E-13 -.999E-14   0.315E-21 0.304E-21 0.428E-21   0.664E-13 -.143E-11 -.141E-11
   0.302E-12 -.315E-11 -.243E-11   0.160E-13 0.622E-13 0.488E-13   -.299E-17 0.191E-17 -.419E-17   0.772E-12 0.184E-11 -.110E-11
   0.519E-13 0.839E-12 0.494E-13   -.790E-13 -.657E-13 -.240E-13   -.713E-18 0.140E-17 0.250E-18   0.170E-11 -.169E-11 -.266E-12
   -.293E+01 -.293E+01 -.293E+01   0.349E+01 0.349E+01 0.349E+01   -.554E+00 -.554E+00 -.554E+00   -.399E-02 -.399E-02 -.399E-02
   0.293E+01 -.293E+01 -.293E+01   -.349E+01 0.349E+01 0.349E+01   0.554E+00 -.554E+00 -.554E+00   0.399E-02 -.399E-02 -.399E-02
   -.293E+01 -.293E+01 0.293E+01   0.349E+01 0.349E+01 -.349E+01   -.554E+00 -.554E+00 0.554E+00   -.399E-02 -.399E-02 0.399E-02
   -.293E+01 0.293E+01 -.293E+01   0.349E+01 -.349E+01 0.349E+01   -.554E+00 0.554E+00 -.554E+00   -.399E-02 0.399E-02 -.399E-02
   0.293E+01 0.293E+01 -.293E+01   -.349E+01 -.349E+01 0.349E+01   0.554E+00 0.554E+00 -.554E+00   0.399E-02 0.399E-02 -.399E-02
   0.293E+01 -.293E+01 0.293E+01   -.349E+01 0.349E+01 -.349E+01   0.554E+00 -.554E+00 0.554E+00   0.399E-02 -.399E-02 0.399E-02
   0.293E+01 0.293E+01 0.293E+01   -.349E+01 -.349E+01 -.349E+01   0.554E+00 0.554E+00 0.554E+00   0.399E-02 0.399E-02 0.399E-02
   -.293E+01 0.293E+01 0.293E+01   0.349E+01 -.349E+01 -.349E+01   -.554E+00 0.554E+00 0.554E+00   -.399E-02 0.399E-02 0.399E-02
   -.293E+01 -.293E+01 -.293E+01   0.349E+01 0.349E+01 0.349E+01   -.554E+00 -.554E+00 -.554E+00   -.399E-02 -.399E-02 -.399E-02
   0.293E+01 -.293E+01 -.293E+01   -.349E+01 0.349E+01 0.349E+01   0.554E+00 -.554E+00 -.554E+00   0.399E-02 -.399E-02 -.399E-02
   -.293E+01 -.293E+01 0.293E+01   0.349E+01 0.349E+01 -.349E+01   -.554E+00 -.554E+00 0.554E+00   -.399E-02 -.399E-02 0.399E-02
   -.293E+01 0.293E+01 -.293E+01   0.349E+01 -.349E+01 0.349E+01   -.554E+00 0.554E+00 -.554E+00   -.399E-02 0.399E-02 -.399E-02
   0.293E+01 0.293E+01 -.293E+01   -.349E+01 -.349E+01 0.349E+01   0.554E+00 0.554E+00 -.554E+00   0.399E-02 0.399E-02 -.399E-02
   0.293E+01 -.293E+01 0.293E+01   -.349E+01 0.349E+01 -.349E+01   0.554E+00 -.554E+00 0.554E+00   0.399E-02 -.399E-02 0.399E-02
   0.293E+01 0.293E+01 0.293E+01   -.349E+01 -.349E+01 -.349E+01   0.554E+00 0.554E+00 0.554E+00   0.399E-02 0.399E-02 0.399E-02
   -.293E+01 0.293E+01 0.293E+01   0.349E+01 -.349E+01 -.349E+01   -.554E+00 0.554E+00 0.554E+00   -.399E-02 0.399E-02 0.399E-02
   -.293E+01 -.293E+01 -.293E+01   0.349E+01 0.349E+01 0.349E+01   -.554E+00 -.554E+00 -.554E+00   -.399E-02 -.399E-02 -.399E-02
   0.293E+01 -.293E+01 -.293E+01   -.349E+01 0.349E+01 0.349E+01   0.554E+00 -.554E+00 -.554E+00   0.399E-02 -.399E-02 -.399E-02
   -.293E+01 -.293E+01 0.293E+01   0.349E+01 0.349E+01 -.349E+01   -.554E+00 -.554E+00 0.554E+00   -.399E-02 -.399E-02 0.399E-02
   -.293E+01 0.293E+01 -.293E+01   0.349E+01 -.349E+01 0.349E+01   -.554E+00 0.554E+00 -.554E+00   -.399E-02 0.399E-02 -.399E-02
   0.293E+01 0.293E+01 -.293E+01   -.349E+01 -.349E+01 0.349E+01   0.554E+00 0.554E+00 -.554E+00   0.399E-02 0.399E-02 -.399E-02
   0.293E+01 -.293E+01 0.293E+01   -.349E+01 0.349E+01 -.349E+01   0.554E+00 -.554E+00 0.554E+00   0.399E-02 -.399E-02 0.399E-02
   0.293E+01 0.293E+01 0.293E+01   -.349E+01 -.349E+01 -.349E+01   0.554E+00 0.554E+00 0.554E+00   0.399E-02 0.399E-02 0.399E-02
   -.293E+01 0.293E+01 0.293E+01   0.349E+01 -.349E+01 -.349E+01   -.554E+00 0.554E+00 0.554E+00   -.399E-02 0.399E-02 0.399E-02
   -.293E+01 -.293E+01 -.293E+01   0.349E+01 0.349E+01 0.349E+01   -.554E+00 -.554E+00 -.554E+00   -.399E-02 -.399E-02 -.399E-02
   0.293E+01 -.293E+01 -.293E+01   -.349E+01 0.349E+01 0.349E+01   0.554E+00 -.554E+00 -.554E+00   0.399E-02 -.399E-02 -.399E-02
   -.293E+01 -.293E+01 0.293E+01   0.349E+01 0.349E+01 -.349E+01   -.554E+00 -.554E+00 0.554E+00   -.399E-02 -.399E-02 0.399E-02
   -.293E+01 0.293E+01 -.293E+01   0.349E+01 -.349E+01 0.349E+01   -.554E+00 0.554E+00 -.554E+00   -.399E-02 0.399E-02 -.399E-02
   0.293E+01 0.293E+01 -.293E+01   -.349E+01 -.349E+01 0.349E+01   0.554E+00 0.554E+00 -.554E+00   0.399E-02 0.399E-02 -.399E-02
   0.293E+01 -.293E+01 0.293E+01   -.349E+01 0.349E+01 -.349E+01   0.554E+00 -.554E+00 0.554E+00   0.399E-02 -.399E-02 0.399E-02
   0.293E+01 0.293E+01 0.293E+01   -.349E+01 -.349E+01 -.349E+01   0.554E+00 0.554E+00 0.554E+00   0.399E-02 0.399E-02 0.399E-02
   -.293E+01 0.293E+01 0.293E+01   0.349E+01 -.349E+01 -.349E+01   -.554E+00 0.554E+00 0.554E+00   -.399E-02 0.399E-02 0.399E-02
 -----------------------------------------------------------------------------------------------
   0.215E-11 -.527E-11 -.100E-10   -.431E-13 -.160E-13 -.373E-13   0.111E-15 -.111E-14 -.444E-15   0.109E-12 0.176E-12 -.144E-12
 
 
 POSITION                                       TOTAL-FORCE (eV/Angst)
 -----------------------------------------------------------------------------------
      7.65599      7.65599      1.09371         0.000000     -0.000000     -0.000000
      3.28114      1.09371      3.28114         0.000000     -0.000000     -0.000000
      5.46856      7.65599      3.28114         0.000000     -0.000000      0.000000
      1.09371      1.09371      1.09371         0.000000     -0.000000     -0.000000
      2.18742      6.56227      2.18742         0.000000     -0.000000     -0.000000
     -0.00000     -0.00000      4.37485         0.000000     -0.000000     -0.000000
      7.65599      3.28114      5.46856         0.000000     -0.000000     -0.000000
      3.28114      5.46856      7.65599         0.000000     -0.000000      0.000000
      5.46856      3.28114      7.65599         0.000000     -0.000000     -0.000000
      1.09371      5.46856      5.46856         0.000000     -0.000000     -0.000000
      2.18742      2.18742      6.56227         0.000000     -0.000000      0.000000
      0.00000      4.37485      0.00000         0.000000     -0.000000     -0.000000
      3.28114      7.65599      5.46856         0.000000     -0.000000     -0.000000
      7.65599      1.09371      7.65599         0.000000     -0.000000      0.000000
      1.09371      7.65599      7.65599         0.000000     -0.000000     -0.000000
      5.46856      1.09371      5.46856         0.000000     -0.000000     -0.000000
      6.56227      6.56227      6.56227         0.000000     -0.000000      0.000000
      4.37485      0.00000      0.00000         0.000000     -0.000000     -0.000000
      3.28114      3.28114      1.09371         0.000000     -0.000000     -0.000000
      7.65599      5.46856      3.28114         0.000000     -0.000000      0.000000
      1.09371      3.28114      3.28114         0.000000     -0.000000      0.000000
      5.46856      5.46856      1.09371         0.000000     -0.000000     -0.000000
      6.56227      2.18742      2.18742         0.000000     -0.000000      0.000000
      4.37485      4.37485      4.37485         0.000000     -0.000000     -0.000000
      3.28957      3.28957      3.28957        -0.000095     -0.000095     -0.000095
      7.64755      1.10215      1.10215         0.000095     -0.000095     -0.000095
      5.47700      1.10215      3.27270        -0.000095     -0.000095      0.000095
      1.10215      7.64755      1.10215        -0.000095      0.000095     -0.000095
      1.08528      1.08528      3.28957         0.000095      0.000095     -0.000095
      1.08528      3.28957      1.08528         0.000095     -0.000095      0.000095
      3.27270      7.64755      3.27270         0.000095      0.000095      0.000095
      3.28957      1.08528      1.08528        -0.000095      0.000095      0.000095
      3.28957      7.66442      7.66442        -0.000095     -0.000095     -0.000095
      7.64755      5.47700      5.47700         0.000095     -0.000095     -0.000095
      5.47700      5.47700      7.64755        -0.000095     -0.000095      0.000095
      1.10215      3.27270      5.47700        -0.000095      0.000095     -0.000095
      1.08528      5.46013      7.66442         0.000095      0.000095     -0.000095
      1.08528      7.66442      5.46013         0.000095     -0.000095      0.000095
      3.27270      3.27270      7.64755         0.000095      0.000095      0.000095
      3.28957      5.46013      5.46013        -0.000095      0.000095      0.000095
      7.66442      3.28957      7.66442        -0.000095     -0.000095     -0.000095
      3.27270      1.10215      5.47700         0.000095     -0.000095     -0.000095
      1.10215      1.10215      7.64755        -0.000095     -0.000095      0.000095
      5.47700      7.64755      5.47700        -0.000095      0.000095     -0.000095
      5.46013      1.08528      7.66442         0.000095      0.000095     -0.000095
      5.46013      3.28957      5.46013         0.000095     -0.000095      0.000095
      7.64755      7.64755      7.64755         0.000095      0.000095      0.000095
      7.66442      1.08528      5.46013        -0.000095      0.000095      0.000095
      7.66442      7.66442      3.28957        -0.000095     -0.000095     -0.000095
      3.27270      5.47700      1.10215         0.000095     -0.000095     -0.000095
      1.10215      5.47700      3.27270        -0.000095     -0.000095      0.000095
      5.47700      3.27270      1.10215        -0.000095      0.000095     -0.000095
      5.46013      5.46013      3.28957         0.000095      0.000095     -0.000095
      5.46013      7.66442      1.08528         0.000095     -0.000095      0.000095
      7.64755      3.27270      3.27270         0.000095      0.000095      0.000095
      7.66442      5.46013      1.08528        -0.000095      0.000095      0.000095
 -----------------------------------------------------------------------------------
    total drift:                                0.000000     -0.000000     -0.000000


--------------------------------------------------------------------------------------------------------



  FREE ENERGIE OF THE ION-ELECTRON SYSTEM (eV)
  ---------------------------------------------------
  free  energy   TOTEN  =      -330.35326920 eV

  energy  without entropy=     -330.36678245  energy(sigma->0) =     -330.35664751
 
 d Force = 0.1984250E-02[-0.109E-04, 0.398E-02]  d Energy = 0.1878488E-02 0.106E-03
 d Force = 0.4162501E+00[ 0.399E+00, 0.433E+00]  d Ewald  = 0.4162551E+00-0.496E-05


--------------------------------------------------------------------------------------------------------


    POTLOK:  cpu time    0.0923: real time    0.0923


--------------------------------------------------------------------------------------------------------




--------------------------------------------------------------------------------------------------------


  
 reached required accuracy - stopping structural energy minimisation
     LOOP+:  cpu time   57.5999: real time   72.1995
    4ORBIT:  cpu time    0.0000: real time    0.0000

 total amount of memory used by VASP MPI-rank0    75457. kBytes
=======================================================================

   base      :      30000. kBytes
   nonlr-proj:      11488. kBytes
   fftplans  :       5456. kBytes
   grid      :       8702. kBytes
   one-center:         43. kBytes
   wavefun   :      19768. kBytes
 
  
  
 General timing and accounting informations for this job:
 ========================================================
  
                  Total CPU time used (sec):      276.677
                            User time (sec):      275.982
                          System time (sec):        0.695
                         Elapsed time (sec):      297.263
  
                   Maximum memory used (kb):      100144.
                   Average memory used (kb):           0.
  
                          Minor page faults:       130469
                          Major page faults:            3
                 Voluntary context switches:         5712
