<?xml version="1.0" encoding="ISO-8859-1"?>
<modeling>
 <generator>
  <i name="program" type="string">vasp </i>
  <i name="version" type="string">5.4.4.18Apr17-6-g9f103f2a35  </i>
  <i name="subversion" type="string">(build Nov 01 2019 12:17:22) complex            parallel </i>
  <i name="platform" type="string">LinuxIFC </i>
  <i name="date" type="string">2023 05 19 </i>
  <i name="time" type="string">18:21:55 </i>
 </generator>
 <incar>
  <i type="string" name="PREC">accurate</i>
  <i type="string" name="ALGO"> Fast</i>
  <i type="int" name="IBRION">     2</i>
  <i type="int" name="NSW">   100</i>
  <i type="int" name="ISIF">     2</i>
  <i type="string" name="LREAL"> Auto</i>
  <i type="int" name="ISMEAR">     2</i>
  <i name="SIGMA">      0.10000000</i>
  <i type="logical" name="LWAVE"> F  </i>
  <i type="logical" name="LCHARG"> F  </i>
  <v type="int" name="KPOINT_BSE">    -1     0     0     0</v>
 </incar>
 <structure name="primitive_cell" >
  <crystal>
   <varray name="basis" >
    <v>       4.37484868       4.37484868      -0.00000000 </v>
    <v>       4.37484868       0.00000000      -4.37484868 </v>
    <v>       0.00000000       4.37484868      -4.37484868 </v>
   </varray>
   <i name="volume">    167.46309099 </i>
   <varray name="rec_basis" >
    <v>       0.11428967       0.11428967       0.11428967 </v>
    <v>       0.11428967      -0.11428967      -0.11428967 </v>
    <v>      -0.11428967       0.11428967      -0.11428967 </v>
   </varray>
  </crystal>
  <varray name="positions" >
   <v>      -0.12500000      -0.12500000      -0.12500000 </v>
   <v>       0.12630293      -0.37890880       0.12630293 </v>
   <v>       0.12630293       0.12630293      -0.37890880 </v>
   <v>      -0.37890880       0.12630293       0.12630293 </v>
   <v>       0.12890880      -0.37630293      -0.37630293 </v>
   <v>      -0.37630293      -0.37630293       0.12890880 </v>
   <v>      -0.37630293       0.12890880      -0.37630293 </v>
   <v>      -0.12500000       0.37500000      -0.12500000 </v>
   <v>      -0.12500000      -0.12500000       0.37500000 </v>
   <v>       0.37500000      -0.12500000      -0.12500000 </v>
   <v>      -0.50000000      -0.50000000      -0.50000000 </v>
   <v>       0.25000000       0.25000000       0.25000000 </v>
   <v>       0.12630293       0.12630293       0.12630293 </v>
   <v>      -0.37630293      -0.37630293      -0.37630293 </v>
  </varray>
 </structure>
 <varray name="primitive_index" >
  <v type="int" >        1 </v>
  <v type="int" >       26 </v>
  <v type="int" >       28 </v>
  <v type="int" >       47 </v>
  <v type="int" >       49 </v>
  <v type="int" >       54 </v>
  <v type="int" >       56 </v>
  <v type="int" >        3 </v>
  <v type="int" >       14 </v>
  <v type="int" >        4 </v>
  <v type="int" >       12 </v>
  <v type="int" >       23 </v>
  <v type="int" >       27 </v>
  <v type="int" >       37 </v>
 </varray>
 <kpoints>
  <generation param="Auto">
   <i name="subdivisionlength">     45.00000000 </i>
   <v type="int" name="divisions">       5        5        5 </v>
   <v name="usershift">      0.00000000       0.00000000       0.00000000 </v>
   <v name="genvec1">      0.20000000      -0.00000000       0.00000000 </v>
   <v name="genvec2">      0.00000000       0.20000000       0.00000000 </v>
   <v name="genvec3">      0.00000000      -0.00000000       0.20000000 </v>
   <v name="shift">      0.00000000       0.00000000       0.00000000 </v>
  </generation>
  <varray name="kpointlist" >
   <v>       0.00000000       0.00000000       0.00000000 </v>
   <v>       0.20000000       0.00000000       0.00000000 </v>
   <v>       0.40000000       0.00000000       0.00000000 </v>
   <v>       0.20000000       0.20000000       0.00000000 </v>
   <v>       0.40000000       0.20000000       0.00000000 </v>
   <v>       0.40000000       0.40000000       0.00000000 </v>
   <v>       0.20000000       0.20000000       0.20000000 </v>
   <v>       0.40000000       0.20000000       0.20000000 </v>
   <v>       0.40000000       0.40000000       0.20000000 </v>
   <v>       0.40000000       0.40000000       0.40000000 </v>
  </varray>
  <varray name="weights" >
   <v>       0.00800000 </v>
   <v>       0.04800000 </v>
   <v>       0.04800000 </v>
   <v>       0.09600000 </v>
   <v>       0.19200000 </v>
   <v>       0.09600000 </v>
   <v>       0.06400000 </v>
   <v>       0.19200000 </v>
   <v>       0.19200000 </v>
   <v>       0.06400000 </v>
  </varray>
 </kpoints>
 <parameters>
  <separator name="general" >
   <i type="string" name="SYSTEM">unknown system</i>
   <i type="logical" name="LCOMPAT"> F  </i>
  </separator>
  <separator name="electronic" >
   <i type="string" name="PREC">accura</i>
   <i name="ENMAX">    400.00000000</i>
   <i name="ENAUG">    627.11200000</i>
   <i name="EDIFF">      0.00010000</i>
   <i type="int" name="IALGO">    68</i>
   <i type="int" name="IWAVPR">    11</i>
   <i type="int" name="NBANDS">   156</i>
   <i name="NELECT">    248.00000000</i>
   <i type="int" name="TURBO">     0</i>
   <i type="int" name="IRESTART">     0</i>
   <i type="int" name="NREBOOT">     0</i>
   <i type="int" name="NMIN">     0</i>
   <i name="EREF">      0.00000000</i>
   <separator name="electronic smearing" >
    <i type="int" name="ISMEAR">     2</i>
    <i name="SIGMA">      0.10000000</i>
    <i name="KSPACING">      0.50000000</i>
    <i type="logical" name="KGAMMA"> T  </i>
   </separator>
   <separator name="electronic projectors" >
    <i type="logical" name="LREAL"> T  </i>
    <v name="ROPT">     -0.00025000     -0.00025000</v>
    <i type="int" name="LMAXPAW">  -100</i>
    <i type="int" name="LMAXMIX">     2</i>
    <i type="logical" name="NLSPLINE"> F  </i>
   </separator>
   <separator name="electronic startup" >
    <i type="int" name="ISTART">     0</i>
    <i type="int" name="ICHARG">     2</i>
    <i type="int" name="INIWAV">     1</i>
   </separator>
   <separator name="electronic spin" >
    <i type="int" name="ISPIN">     1</i>
    <i type="logical" name="LNONCOLLINEAR"> F  </i>
    <v name="MAGMOM">      1.00000000      1.00000000      1.00000000      1.00000000      1.00000000      1.00000000      1.00000000      1.00000000      1.00000000      1.00000000      1.00000000      1.00000000      1.00000000      1.00000000      1.00000000      1.00000000      1.00000000      1.00000000      1.00000000      1.00000000
      1.00000000      1.00000000      1.00000000      1.00000000      1.00000000      1.00000000      1.00000000      1.00000000      1.00000000      1.00000000      1.00000000      1.00000000      1.00000000      1.00000000      1.00000000      1.00000000      1.00000000      1.00000000      1.00000000      1.00000000
      1.00000000      1.00000000      1.00000000      1.00000000      1.00000000      1.00000000      1.00000000      1.00000000      1.00000000      1.00000000      1.00000000      1.00000000      1.00000000      1.00000000      1.00000000      1.00000000</v>
    <i name="NUPDOWN">     -1.00000000</i>
    <i type="logical" name="LSORBIT"> F  </i>
    <v name="SAXIS">      0.00000000      0.00000000      1.00000000</v>
    <i type="logical" name="LSPIRAL"> F  </i>
    <v name="QSPIRAL">      0.00000000      0.00000000      0.00000000</v>
    <i type="logical" name="LZEROZ"> F  </i>
   </separator>
   <separator name="electronic exchange-correlation" >
    <i type="logical" name="LASPH"> F  </i>
    <i type="logical" name="LMETAGGA"> F  </i>
   </separator>
   <separator name="electronic convergence" >
    <i type="int" name="NELM">    60</i>
    <i type="int" name="NELMDL">    -5</i>
    <i type="int" name="NELMIN">     2</i>
    <i name="ENINI">    400.00000000</i>
    <separator name="electronic convergence detail" >
     <i type="logical" name="LDIAG"> T  </i>
     <i type="logical" name="LSUBROT"> F  </i>
     <i name="WEIMIN">      0.00100000</i>
     <i name="EBREAK">      0.00000016</i>
     <i name="DEPER">      0.30000000</i>
     <i type="int" name="NRMM">     4</i>
     <i name="TIME">      0.40000000</i>
    </separator>
   </separator>
   <separator name="electronic mixer" >
    <i name="AMIX">      0.40000000</i>
    <i name="BMIX">      1.00000000</i>
    <i name="AMIN">      0.10000000</i>
    <i name="AMIX_MAG">      1.60000000</i>
    <i name="BMIX_MAG">      1.00000000</i>
    <separator name="electronic mixer details" >
     <i type="int" name="IMIX">     4</i>
     <i type="logical" name="MIXFIRST"> F  </i>
     <i type="int" name="MAXMIX">   -45</i>
     <i name="WC">    100.00000000</i>
     <i type="int" name="INIMIX">     1</i>
     <i type="int" name="MIXPRE">     1</i>
     <i type="int" name="MREMOVE">     5</i>
    </separator>
   </separator>
   <separator name="electronic dipolcorrection" >
    <i type="logical" name="LDIPOL"> F  </i>
    <i type="logical" name="LMONO"> F  </i>
    <i type="int" name="IDIPOL">     0</i>
    <i name="EPSILON">      1.00000000</i>
    <v name="DIPOL">   -100.00000000   -100.00000000   -100.00000000</v>
    <i name="EFIELD">      0.00000000</i>
   </separator>
  </separator>
  <separator name="grids" >
   <i type="int" name="NGX">    60</i>
   <i type="int" name="NGY">    60</i>
   <i type="int" name="NGZ">    60</i>
   <i type="int" name="NGXF">   120</i>
   <i type="int" name="NGYF">   120</i>
   <i type="int" name="NGZF">   120</i>
   <i type="logical" name="ADDGRID"> F  </i>
  </separator>
  <separator name="ionic" >
   <i type="int" name="NSW">   100</i>
   <i type="int" name="IBRION">     2</i>
   <i type="int" name="MDALGO">     0</i>
   <i type="int" name="ISIF">     2</i>
   <i name="PSTRESS">      0.00000000</i>
   <i name="EDIFFG">      0.00100000</i>
   <i type="int" name="NFREE">     1</i>
   <i name="POTIM">      0.50000000</i>
   <i name="SMASS">     -3.00000000</i>
   <i name="SCALEE">      1.00000000</i>
  </separator>
  <separator name="ionic md" >
   <i name="TEBEG">      0.00010000</i>
   <i name="TEEND">      0.00010000</i>
   <i type="int" name="NBLOCK">     1</i>
   <i type="int" name="KBLOCK">   100</i>
   <i type="int" name="NPACO">   256</i>
   <i name="APACO">     16.00000000</i>
  </separator>
  <separator name="symmetry" >
   <i type="int" name="ISYM">     2</i>
   <i name="SYMPREC">      0.00001000</i>
  </separator>
  <separator name="dos" >
   <i type="int" name="LORBIT">     0</i>
   <v name="RWIGS">     -1.00000000     -1.00000000</v>
   <i type="int" name="NEDOS">   301</i>
   <i name="EMIN">     10.00000000</i>
   <i name="EMAX">    -10.00000000</i>
   <i name="EFERMI">      0.00000000</i>
  </separator>
  <separator name="writing" >
   <i type="int" name="NWRITE">     2</i>
   <i type="logical" name="LWAVE"> F  </i>
   <i type="logical" name="LDOWNSAMPLE"> F  </i>
   <i type="logical" name="LCHARG"> F  </i>
   <i type="logical" name="LPARD"> F  </i>
   <i type="logical" name="LVTOT"> F  </i>
   <i type="logical" name="LVHAR"> F  </i>
   <i type="logical" name="LELF"> F  </i>
   <i type="logical" name="LOPTICS"> F  </i>
   <v name="STM">      0.00000000      0.00000000      0.00000000      0.00000000      0.00000000      0.00000000      0.00000000</v>
  </separator>
  <separator name="performance" >
   <i type="int" name="NPAR">     4</i>
   <i type="int" name="NSIM">     4</i>
   <i type="int" name="NBLK">    -1</i>
   <i type="logical" name="LPLANE"> T  </i>
   <i type="logical" name="LSCALAPACK"> F  </i>
   <i type="logical" name="LSCAAWARE"> F  </i>
   <i type="logical" name="LSCALU"> F  </i>
   <i type="logical" name="LASYNC"> F  </i>
   <i type="logical" name="LORBITALREAL"> F  </i>
  </separator>
  <separator name="miscellaneous" >
   <i type="int" name="IDIOT">     3</i>
   <i type="int" name="ISPECIAL">     0</i>
   <i type="logical" name="LMUSIC"> F  </i>
   <v name="POMASS">     14.00100000     28.08500000</v>
   <v name="DARWINR">      0.00000000      0.00000000</v>
   <v name="DARWINV">      1.00000000      1.00000000</v>
   <i type="logical" name="LCORR"> T  </i>
  </separator>
  <i type="logical" name="GGA_COMPAT"> T  </i>
  <i type="logical" name="LBERRY"> F  </i>
  <i type="int" name="ICORELEVEL">     0</i>
  <i type="logical" name="LDAU"> F  </i>
  <i type="int" name="I_CONSTRAINED_M">     0</i>
  <separator name="electronic exchange-correlation" >
   <i type="string" name="GGA">--</i>
   <i type="int" name="VOSKOWN">     0</i>
   <i type="logical" name="LHFCALC"> F  </i>
   <i type="string" name="PRECFOCK"></i>
   <i type="logical" name="LSYMGRAD"> F  </i>
   <i type="logical" name="LHFONE"> F  </i>
   <i type="logical" name="LRHFCALC"> F  </i>
   <i type="logical" name="LTHOMAS"> F  </i>
   <i type="logical" name="LMODELHF"> F  </i>
   <i name="ENCUT4O">     -1.00000000</i>
   <i type="int" name="EXXOEP">     0</i>
   <i type="int" name="FOURORBIT">     0</i>
   <i name="AEXX">      0.00000000</i>
   <i name="HFALPHA">      0.00000000</i>
   <i name="MCALPHA">      0.00000000</i>
   <i name="ALDAX">      1.00000000</i>
   <i name="AGGAX">      1.00000000</i>
   <i name="ALDAC">      1.00000000</i>
   <i name="AGGAC">      1.00000000</i>
   <i type="int" name="NKREDX">     1</i>
   <i type="int" name="NKREDY">     1</i>
   <i type="int" name="NKREDZ">     1</i>
   <i type="logical" name="SHIFTRED"> F  </i>
   <i type="logical" name="ODDONLY"> F  </i>
   <i type="logical" name="EVENONLY"> F  </i>
   <i type="int" name="LMAXFOCK">     0</i>
   <i type="int" name="NMAXFOCKAE">     0</i>
   <i type="logical" name="LFOCKAEDFT"> F  </i>
   <i name="HFSCREEN">      0.00000000</i>
   <i name="HFSCREENC">      0.00000000</i>
   <i type="int" name="NBANDSGWLOW">     0</i>
  </separator>
  <separator name="vdW DFT" >
   <i type="logical" name="LUSE_VDW"> F  </i>
   <i name="Zab_VDW">     -0.84910000</i>
   <i name="PARAM1">      0.12340000</i>
   <i name="PARAM2">      1.00000000</i>
   <i name="PARAM3">      0.00000000</i>
  </separator>
  <separator name="model GW" >
   <i type="int" name="MODEL_GW">     0</i>
   <i name="MODEL_EPS0">      7.17698961</i>
   <i name="MODEL_ALPHA">      1.00000000</i>
  </separator>
  <separator name="linear response parameters" >
   <i type="logical" name="LEPSILON"> F  </i>
   <i type="logical" name="LRPA"> F  </i>
   <i type="logical" name="LNABLA"> F  </i>
   <i type="logical" name="LVEL"> F  </i>
   <i type="int" name="KINTER">     0</i>
   <i name="CSHIFT">      0.10000000</i>
   <i name="OMEGAMAX">     -1.00000000</i>
   <i name="DEG_THRESHOLD">      0.00200000</i>
   <i name="RTIME">     -0.10000000</i>
   <i name="WPLASMAI">      0.00000000</i>
   <v name="DFIELD">      0.00000000      0.00000000      0.00000000</v>
   <v name="WPLASMA">      0.00000000      0.00000000      0.00000000      0.00000000      0.00000000      0.00000000      0.00000000      0.00000000      0.00000000</v>
  </separator>
  <separator name="orbital magnetization" >
   <i type="logical" name="NUCIND"> F  </i>
   <v name="MAGPOS">      0.00000000      0.00000000      0.00000000</v>
   <i type="logical" name="LNICSALL"> T  </i>
   <i type="logical" name="ORBITALMAG"> F  </i>
   <i type="logical" name="LMAGBLOCH"> F  </i>
   <i type="logical" name="LCHIMAG"> F  </i>
   <i type="logical" name="LGAUGE"> T  </i>
   <i type="int" name="MAGATOM">     0</i>
   <v name="MAGDIPOL">      0.00000000      0.00000000      0.00000000</v>
   <v name="AVECCONST">      0.00000000      0.00000000      0.00000000</v>
  </separator>
  <separator name="response functions" >
   <i type="logical" name="LADDER"> F  </i>
   <i type="logical" name="LRPAFORCE"> F  </i>
   <i type="logical" name="LFXC"> F  </i>
   <i type="logical" name="LHARTREE"> T  </i>
   <i type="int" name="IBSE">     0</i>
   <v type="int" name="KPOINT">    -1     0     0     0</v>
   <i type="logical" name="LTCTE"> F  </i>
   <i type="logical" name="LTETE"> F  </i>
   <i type="logical" name="LTRIPLET"> F  </i>
   <i type="logical" name="LFXCEPS"> F  </i>
   <i type="logical" name="LFXHEG"> F  </i>
   <i type="int" name="NATURALO">     2</i>
   <i type="logical" name="L2ORDER"> F  </i>
   <i type="logical" name="LMP2LT"> F  </i>
   <i type="logical" name="LUSEW"> F  </i>
   <i name="ENCUTGW">     -2.00000000</i>
   <i name="ENCUTGWSOFT">     -2.00000000</i>
   <i name="ENCUTLF">     -1.00000000</i>
   <i type="int" name="LMAXMP2">    -1</i>
   <i name="SCISSOR">      0.00000000</i>
   <i type="int" name="NOMEGA">     0</i>
   <i type="int" name="NOMEGAR">     0</i>
   <i type="int" name="NBANDSGW">    -1</i>
   <i type="int" name="NBANDSO">    -1</i>
   <i type="int" name="NBANDSV">    -1</i>
   <i type="int" name="NELM">     1</i>
   <i type="int" name="NELMHF">     1</i>
   <i type="int" name="DIM">     3</i>
   <i type="int" name="ANTIRES">     0</i>
   <i name="OMEGAMAX">    -30.00000000</i>
   <i name="OMEGAMIN">    -30.00000000</i>
   <i name="OMEGATL">   -200.00000000</i>
   <i type="int" name="OMEGAGRID">   140</i>
   <i name="CSHIFT">     -0.10000000</i>
   <i type="logical" name="SELFENERGY"> F  </i>
   <i type="logical" name="LSPECTRAL"> F  </i>
   <i type="logical" name="LSPECTRALGW"> F  </i>
   <i type="logical" name="LSINGLES"> F  </i>
   <i type="logical" name="LFERMIGW"> F  </i>
   <i type="logical" name="ODDONLYGW"> F  </i>
   <i type="logical" name="EVENONLYGW"> F  </i>
   <i type="int" name="NKREDLFX">     1</i>
   <i type="int" name="NKREDLFY">     1</i>
   <i type="int" name="NKREDLFZ">     1</i>
   <i type="int" name="MAXMEM">  2800</i>
   <i type="int" name="TELESCOPE">     0</i>
   <i type="int" name="TAUPAR">     1</i>
   <i type="int" name="OMEGAPAR">    -1</i>
   <i name="LAMBDA">      1.00000000</i>
  </separator>
  <separator name="External order field" >
   <i name="OFIELD_KAPPA">      0.00000000</i>
   <v name="OFIELD_K">      0.00000000      0.00000000      0.00000000</v>
   <i name="OFIELD_Q6_NEAR">      0.00000000</i>
   <i name="OFIELD_Q6_FAR">      0.00000000</i>
   <i name="OFIELD_A">      0.00000000</i>
  </separator>
 </parameters>
 <atominfo>
  <atoms>      56 </atoms>
  <types>       2 </types>
  <array name="atoms" >
   <dimension dim="1">ion</dimension>
   <field type="string">element</field>
   <field type="int">atomtype</field>
   <set>
    <rc><c>N </c><c>   1</c></rc>
    <rc><c>N </c><c>   1</c></rc>
    <rc><c>N </c><c>   1</c></rc>
    <rc><c>N </c><c>   1</c></rc>
    <rc><c>N </c><c>   1</c></rc>
    <rc><c>N </c><c>   1</c></rc>
    <rc><c>N </c><c>   1</c></rc>
    <rc><c>N </c><c>   1</c></rc>
    <rc><c>N </c><c>   1</c></rc>
    <rc><c>N </c><c>   1</c></rc>
    <rc><c>N </c><c>   1</c></rc>
    <rc><c>N </c><c>   1</c></rc>
    <rc><c>N </c><c>   1</c></rc>
    <rc><c>N </c><c>   1</c></rc>
    <rc><c>N </c><c>   1</c></rc>
    <rc><c>N </c><c>   1</c></rc>
    <rc><c>N </c><c>   1</c></rc>
    <rc><c>N </c><c>   1</c></rc>
    <rc><c>N </c><c>   1</c></rc>
    <rc><c>N </c><c>   1</c></rc>
    <rc><c>N </c><c>   1</c></rc>
    <rc><c>N </c><c>   1</c></rc>
    <rc><c>N </c><c>   1</c></rc>
    <rc><c>N </c><c>   1</c></rc>
    <rc><c>Si</c><c>   2</c></rc>
    <rc><c>Si</c><c>   2</c></rc>
    <rc><c>Si</c><c>   2</c></rc>
    <rc><c>Si</c><c>   2</c></rc>
    <rc><c>Si</c><c>   2</c></rc>
    <rc><c>Si</c><c>   2</c></rc>
    <rc><c>Si</c><c>   2</c></rc>
    <rc><c>Si</c><c>   2</c></rc>
    <rc><c>Si</c><c>   2</c></rc>
    <rc><c>Si</c><c>   2</c></rc>
    <rc><c>Si</c><c>   2</c></rc>
    <rc><c>Si</c><c>   2</c></rc>
    <rc><c>Si</c><c>   2</c></rc>
    <rc><c>Si</c><c>   2</c></rc>
    <rc><c>Si</c><c>   2</c></rc>
    <rc><c>Si</c><c>   2</c></rc>
    <rc><c>Si</c><c>   2</c></rc>
    <rc><c>Si</c><c>   2</c></rc>
    <rc><c>Si</c><c>   2</c></rc>
    <rc><c>Si</c><c>   2</c></rc>
    <rc><c>Si</c><c>   2</c></rc>
    <rc><c>Si</c><c>   2</c></rc>
    <rc><c>Si</c><c>   2</c></rc>
    <rc><c>Si</c><c>   2</c></rc>
    <rc><c>Si</c><c>   2</c></rc>
    <rc><c>Si</c><c>   2</c></rc>
    <rc><c>Si</c><c>   2</c></rc>
    <rc><c>Si</c><c>   2</c></rc>
    <rc><c>Si</c><c>   2</c></rc>
    <rc><c>Si</c><c>   2</c></rc>
    <rc><c>Si</c><c>   2</c></rc>
    <rc><c>Si</c><c>   2</c></rc>
   </set>
  </array>
  <array name="atomtypes" >
   <dimension dim="1">type</dimension>
   <field type="int">atomspertype</field>
   <field type="string">element</field>
   <field>mass</field>
   <field>valence</field>
   <field type="string">pseudopotential</field>
   <set>
    <rc><c>  24</c><c>N </c><c>     14.00100000</c><c>      5.00000000</c><c>  PAW_PBE N 08Apr2002                   </c></rc>
    <rc><c>  32</c><c>Si</c><c>     28.08500000</c><c>      4.00000000</c><c>  PAW_PBE Si 05Jan2001                  </c></rc>
   </set>
  </array>
 </atominfo>
 <structure name="initialpos" >
  <crystal>
   <varray name="basis" >
    <v>       8.74969736       0.00000000       0.00000000 </v>
    <v>       0.00000000       8.74969736       0.00000000 </v>
    <v>       0.00000000       0.00000000       8.74969736 </v>
   </varray>
   <i name="volume">    669.85236396 </i>
   <varray name="rec_basis" >
    <v>       0.11428967      -0.00000000       0.00000000 </v>
    <v>      -0.00000000       0.11428967       0.00000000 </v>
    <v>      -0.00000000      -0.00000000       0.11428967 </v>
   </varray>
  </crystal>
  <varray name="positions" >
   <v>       0.87500000       0.87500000       0.12500000 </v>
   <v>       0.37500000       0.12500000       0.37500000 </v>
   <v>       0.62500000       0.87500000       0.37500000 </v>
   <v>       0.12500000       0.12500000       0.12500000 </v>
   <v>       0.25000000       0.75000000       0.25000000 </v>
   <v>       0.00000000       0.00000000       0.50000000 </v>
   <v>       0.87500000       0.37500000       0.62500000 </v>
   <v>       0.37500000       0.62500000       0.87500000 </v>
   <v>       0.62500000       0.37500000       0.87500000 </v>
   <v>       0.12500000       0.62500000       0.62500000 </v>
   <v>       0.25000000       0.25000000       0.75000000 </v>
   <v>       0.00000000       0.50000000       0.00000000 </v>
   <v>       0.37500000       0.87500000       0.62500000 </v>
   <v>       0.87500000       0.12500000       0.87500000 </v>
   <v>       0.12500000       0.87500000       0.87500000 </v>
   <v>       0.62500000       0.12500000       0.62500000 </v>
   <v>       0.75000000       0.75000000       0.75000000 </v>
   <v>       0.50000000       0.00000000       0.00000000 </v>
   <v>       0.37500000       0.37500000       0.12500000 </v>
   <v>       0.87500000       0.62500000       0.37500000 </v>
   <v>       0.12500000       0.37500000       0.37500000 </v>
   <v>       0.62500000       0.62500000       0.12500000 </v>
   <v>       0.75000000       0.25000000       0.25000000 </v>
   <v>       0.50000000       0.50000000       0.50000000 </v>
   <v>       0.37630293       0.37630293       0.37630293 </v>
   <v>       0.87369707       0.12630293       0.12630293 </v>
   <v>       0.62630293       0.12630293       0.37369707 </v>
   <v>       0.12630293       0.87369707       0.12630293 </v>
   <v>       0.12369707       0.12369707       0.37630293 </v>
   <v>       0.12369707       0.37630293       0.12369707 </v>
   <v>       0.37369707       0.87369707       0.37369707 </v>
   <v>       0.37630293       0.12369707       0.12369707 </v>
   <v>       0.37630293       0.87630293       0.87630293 </v>
   <v>       0.87369707       0.62630293       0.62630293 </v>
   <v>       0.62630293       0.62630293       0.87369707 </v>
   <v>       0.12630293       0.37369707       0.62630293 </v>
   <v>       0.12369707       0.62369707       0.87630293 </v>
   <v>       0.12369707       0.87630293       0.62369707 </v>
   <v>       0.37369707       0.37369707       0.87369707 </v>
   <v>       0.37630293       0.62369707       0.62369707 </v>
   <v>       0.87630293       0.37630293       0.87630293 </v>
   <v>       0.37369707       0.12630293       0.62630293 </v>
   <v>       0.12630293       0.12630293       0.87369707 </v>
   <v>       0.62630293       0.87369707       0.62630293 </v>
   <v>       0.62369707       0.12369707       0.87630293 </v>
   <v>       0.62369707       0.37630293       0.62369707 </v>
   <v>       0.87369707       0.87369707       0.87369707 </v>
   <v>       0.87630293       0.12369707       0.62369707 </v>
   <v>       0.87630293       0.87630293       0.37630293 </v>
   <v>       0.37369707       0.62630293       0.12630293 </v>
   <v>       0.12630293       0.62630293       0.37369707 </v>
   <v>       0.62630293       0.37369707       0.12630293 </v>
   <v>       0.62369707       0.62369707       0.37630293 </v>
   <v>       0.62369707       0.87630293       0.12369707 </v>
   <v>       0.87369707       0.37369707       0.37369707 </v>
   <v>       0.87630293       0.62369707       0.12369707 </v>
  </varray>
 </structure>
 <calculation>
  <scstep>
   <time name="dav">   16.14   16.13</time>
   <time name="total">   16.24   16.23</time>
   <energy>
    <i name="alphaZ">    291.18127604 </i>
    <i name="ewald">  -9506.69584371 </i>
    <i name="hartreedc">  -1562.28505411 </i>
    <i name="XCdc">    186.51841594 </i>
    <i name="pawpsdc">   7738.34714636 </i>
    <i name="pawaedc">  -7203.94574617 </i>
    <i name="eentropy">      0.00640284 </i>
    <i name="bandstr">   1271.86916269 </i>
    <i name="atom">   9645.50393724 </i>
    <i name="e_fr_energy">    860.49969713 </i>
    <i name="e_wo_entrp">    860.49329430 </i>
    <i name="e_0_energy">    860.49809642 </i>
   </energy>
  </scstep>
  <scstep>
   <time name="dav">   12.68   12.67</time>
   <time name="total">   12.68   12.67</time>
   <energy>
    <i name="e_fr_energy">   -245.15726454 </i>
    <i name="e_wo_entrp">   -245.15978142 </i>
    <i name="e_0_energy">   -245.15789376 </i>
   </energy>
  </scstep>
  <scstep>
   <time name="dav">   13.37   17.14</time>
   <time name="total">   13.37   17.14</time>
   <energy>
    <i name="e_fr_energy">   -352.46658325 </i>
    <i name="e_wo_entrp">   -352.45870249 </i>
    <i name="e_0_energy">   -352.46461306 </i>
   </energy>
  </scstep>
  <scstep>
   <time name="dav">   14.93   14.92</time>
   <time name="total">   14.93   14.93</time>
   <energy>
    <i name="e_fr_energy">   -356.59350374 </i>
    <i name="e_wo_entrp">   -356.58102330 </i>
    <i name="e_0_energy">   -356.59038363 </i>
   </energy>
  </scstep>
  <scstep>
   <time name="dav">   15.81   15.81</time>
   <time name="total">   16.18   16.17</time>
   <energy>
    <i name="e_fr_energy">   -356.71398915 </i>
    <i name="e_wo_entrp">   -356.70174606 </i>
    <i name="e_0_energy">   -356.71092838 </i>
   </energy>
  </scstep>
  <scstep>
   <time name="diag">    0.95    0.95</time>
   <time name="diis">    5.23    5.23</time>
   <time name="orth">    0.12    0.12</time>
   <time name="total">    6.76    6.77</time>
   <energy>
    <i name="e_fr_energy">   -331.60204647 </i>
    <i name="e_wo_entrp">   -331.61257601 </i>
    <i name="e_0_energy">   -331.60467886 </i>
   </energy>
  </scstep>
  <scstep>
   <time name="diag">    0.98    0.98</time>
   <time name="diis">    5.49    5.49</time>
   <time name="orth">    0.12    0.12</time>
   <time name="total">    7.04    7.06</time>
   <energy>
    <i name="e_fr_energy">   -330.65407441 </i>
    <i name="e_wo_entrp">   -330.66839081 </i>
    <i name="e_0_energy">   -330.65765351 </i>
   </energy>
  </scstep>
  <scstep>
   <time name="diag">    0.98    0.98</time>
   <time name="diis">    5.56    5.56</time>
   <time name="orth">    1.09    1.09</time>
   <time name="total">    8.09    8.09</time>
   <energy>
    <i name="e_fr_energy">   -330.56015450 </i>
    <i name="e_wo_entrp">   -330.57290154 </i>
    <i name="e_0_energy">   -330.56334126 </i>
   </energy>
  </scstep>
  <scstep>
   <time name="diag">    1.00    1.00</time>
   <time name="diis">    5.13    5.13</time>
   <time name="orth">    0.12    0.12</time>
   <time name="total">    6.71    6.71</time>
   <energy>
    <i name="e_fr_energy">   -330.33937221 </i>
    <i name="e_wo_entrp">   -330.35405045 </i>
    <i name="e_0_energy">   -330.34304177 </i>
   </energy>
  </scstep>
  <scstep>
   <time name="diag">    0.98    0.98</time>
   <time name="diis">    5.58    5.58</time>
   <time name="orth">    0.12    0.12</time>
   <time name="total">    7.14    7.14</time>
   <energy>
    <i name="e_fr_energy">   -330.33992209 </i>
    <i name="e_wo_entrp">   -330.35461008 </i>
    <i name="e_0_energy">   -330.34359408 </i>
   </energy>
  </scstep>
  <scstep>
   <time name="diag">    0.95    0.95</time>
   <time name="diis">    4.87    5.87</time>
   <time name="orth">    0.87    1.63</time>
   <time name="total">    7.15    8.92</time>
   <energy>
    <i name="e_fr_energy">   -330.34094948 </i>
    <i name="e_wo_entrp">   -330.35562366 </i>
    <i name="e_0_energy">   -330.34461802 </i>
   </energy>
  </scstep>
  <scstep>
   <time name="diag">    1.90    1.90</time>
   <time name="diis">    7.23    7.23</time>
   <time name="orth">    3.46    3.46</time>
   <time name="total">   15.25   15.25</time>
   <energy>
    <i name="e_fr_energy">   -330.34096574 </i>
    <i name="e_wo_entrp">   -330.35566395 </i>
    <i name="e_0_energy">   -330.34464030 </i>
   </energy>
  </scstep>
  <scstep>
   <time name="diag">    5.30    5.30</time>
   <time name="diis">    3.59    3.59</time>
   <time name="orth">    0.12    0.12</time>
   <time name="total">   10.17   10.17</time>
   <energy>
    <i name="alphaZ">    291.18127604 </i>
    <i name="ewald">  -9506.69584371 </i>
    <i name="hartreedc">  -1793.82681396 </i>
    <i name="XCdc">    202.15647881 </i>
    <i name="pawpsdc">  19406.65341557 </i>
    <i name="pawaedc"> -18873.43151083 </i>
    <i name="eentropy">      0.01468820 </i>
    <i name="bandstr">    298.10349182 </i>
    <i name="atom">   9645.50393724 </i>
    <i name="e_fr_energy">   -330.34088081 </i>
    <i name="e_wo_entrp">   -330.35556901 </i>
    <i name="e_0_energy">   -330.34455286 </i>
   </energy>
  </scstep>
  <structure>
   <crystal>
    <varray name="basis" >
     <v>       8.74969736       0.00000000       0.00000000 </v>
     <v>       0.00000000       8.74969736       0.00000000 </v>
     <v>       0.00000000       0.00000000       8.74969736 </v>
    </varray>
    <i name="volume">    669.85236396 </i>
    <varray name="rec_basis" >
     <v>       0.11428967      -0.00000000       0.00000000 </v>
     <v>      -0.00000000       0.11428967       0.00000000 </v>
     <v>      -0.00000000      -0.00000000       0.11428967 </v>
    </varray>
   </crystal>
   <varray name="positions" >
    <v>       0.87500000       0.87500000       0.12500000 </v>
    <v>       0.37500000       0.12500000       0.37500000 </v>
    <v>       0.62500000       0.87500000       0.37500000 </v>
    <v>       0.12500000       0.12500000       0.12500000 </v>
    <v>       0.25000000       0.75000000       0.25000000 </v>
    <v>       0.00000000       0.00000000       0.50000000 </v>
    <v>       0.87500000       0.37500000       0.62500000 </v>
    <v>       0.37500000       0.62500000       0.87500000 </v>
    <v>       0.62500000       0.37500000       0.87500000 </v>
    <v>       0.12500000       0.62500000       0.62500000 </v>
    <v>       0.25000000       0.25000000       0.75000000 </v>
    <v>       0.00000000       0.50000000       0.00000000 </v>
    <v>       0.37500000       0.87500000       0.62500000 </v>
    <v>       0.87500000       0.12500000       0.87500000 </v>
    <v>       0.12500000       0.87500000       0.87500000 </v>
    <v>       0.62500000       0.12500000       0.62500000 </v>
    <v>       0.75000000       0.75000000       0.75000000 </v>
    <v>       0.50000000       0.00000000       0.00000000 </v>
    <v>       0.37500000       0.37500000       0.12500000 </v>
    <v>       0.87500000       0.62500000       0.37500000 </v>
    <v>       0.12500000       0.37500000       0.37500000 </v>
    <v>       0.62500000       0.62500000       0.12500000 </v>
    <v>       0.75000000       0.25000000       0.25000000 </v>
    <v>       0.50000000       0.50000000       0.50000000 </v>
    <v>       0.37630293       0.37630293       0.37630293 </v>
    <v>       0.87369707       0.12630293       0.12630293 </v>
    <v>       0.62630293       0.12630293       0.37369707 </v>
    <v>       0.12630293       0.87369707       0.12630293 </v>
    <v>       0.12369707       0.12369707       0.37630293 </v>
    <v>       0.12369707       0.37630293       0.12369707 </v>
    <v>       0.37369707       0.87369707       0.37369707 </v>
    <v>       0.37630293       0.12369707       0.12369707 </v>
    <v>       0.37630293       0.87630293       0.87630293 </v>
    <v>       0.87369707       0.62630293       0.62630293 </v>
    <v>       0.62630293       0.62630293       0.87369707 </v>
    <v>       0.12630293       0.37369707       0.62630293 </v>
    <v>       0.12369707       0.62369707       0.87630293 </v>
    <v>       0.12369707       0.87630293       0.62369707 </v>
    <v>       0.37369707       0.37369707       0.87369707 </v>
    <v>       0.37630293       0.62369707       0.62369707 </v>
    <v>       0.87630293       0.37630293       0.87630293 </v>
    <v>       0.37369707       0.12630293       0.62630293 </v>
    <v>       0.12630293       0.12630293       0.87369707 </v>
    <v>       0.62630293       0.87369707       0.62630293 </v>
    <v>       0.62369707       0.12369707       0.87630293 </v>
    <v>       0.62369707       0.37630293       0.62369707 </v>
    <v>       0.87369707       0.87369707       0.87369707 </v>
    <v>       0.87630293       0.12369707       0.62369707 </v>
    <v>       0.87630293       0.87630293       0.37630293 </v>
    <v>       0.37369707       0.62630293       0.12630293 </v>
    <v>       0.12630293       0.62630293       0.37369707 </v>
    <v>       0.62630293       0.37369707       0.12630293 </v>
    <v>       0.62369707       0.62369707       0.37630293 </v>
    <v>       0.62369707       0.87630293       0.12369707 </v>
    <v>       0.87369707       0.37369707       0.37369707 </v>
    <v>       0.87630293       0.62369707       0.12369707 </v>
   </varray>
  </structure>
  <varray name="forces" >
   <v>      -0.00000000      -0.00000000       0.00000000 </v>
   <v>      -0.00000000      -0.00000000       0.00000000 </v>
   <v>      -0.00000000      -0.00000000       0.00000000 </v>
   <v>      -0.00000000      -0.00000000       0.00000000 </v>
   <v>      -0.00000000      -0.00000000       0.00000000 </v>
   <v>      -0.00000000      -0.00000000       0.00000000 </v>
   <v>      -0.00000000      -0.00000000       0.00000000 </v>
   <v>      -0.00000000      -0.00000000       0.00000000 </v>
   <v>      -0.00000000      -0.00000000       0.00000000 </v>
   <v>      -0.00000000      -0.00000000       0.00000000 </v>
   <v>      -0.00000000      -0.00000000       0.00000000 </v>
   <v>      -0.00000000      -0.00000000       0.00000000 </v>
   <v>      -0.00000000      -0.00000000       0.00000000 </v>
   <v>      -0.00000000      -0.00000000       0.00000000 </v>
   <v>      -0.00000000      -0.00000000       0.00000000 </v>
   <v>      -0.00000000      -0.00000000       0.00000000 </v>
   <v>      -0.00000000      -0.00000000       0.00000000 </v>
   <v>      -0.00000000      -0.00000000       0.00000000 </v>
   <v>      -0.00000000      -0.00000000       0.00000000 </v>
   <v>      -0.00000000      -0.00000000       0.00000000 </v>
   <v>      -0.00000000      -0.00000000       0.00000000 </v>
   <v>      -0.00000000      -0.00000000       0.00000000 </v>
   <v>      -0.00000000      -0.00000000       0.00000000 </v>
   <v>      -0.00000000      -0.00000000       0.00000000 </v>
   <v>      -0.08621809      -0.08621809      -0.08621809 </v>
   <v>       0.08621809      -0.08621809      -0.08621809 </v>
   <v>      -0.08621809      -0.08621809       0.08621809 </v>
   <v>      -0.08621809       0.08621809      -0.08621809 </v>
   <v>       0.08621809       0.08621809      -0.08621809 </v>
   <v>       0.08621809      -0.08621809       0.08621809 </v>
   <v>       0.08621809       0.08621809       0.08621809 </v>
   <v>      -0.08621809       0.08621809       0.08621809 </v>
   <v>      -0.08621809      -0.08621809      -0.08621809 </v>
   <v>       0.08621809      -0.08621809      -0.08621809 </v>
   <v>      -0.08621809      -0.08621809       0.08621809 </v>
   <v>      -0.08621809       0.08621809      -0.08621809 </v>
   <v>       0.08621809       0.08621809      -0.08621809 </v>
   <v>       0.08621809      -0.08621809       0.08621809 </v>
   <v>       0.08621809       0.08621809       0.08621809 </v>
   <v>      -0.08621809       0.08621809       0.08621809 </v>
   <v>      -0.08621809      -0.08621809      -0.08621809 </v>
   <v>       0.08621809      -0.08621809      -0.08621809 </v>
   <v>      -0.08621809      -0.08621809       0.08621809 </v>
   <v>      -0.08621809       0.08621809      -0.08621809 </v>
   <v>       0.08621809       0.08621809      -0.08621809 </v>
   <v>       0.08621809      -0.08621809       0.08621809 </v>
   <v>       0.08621809       0.08621809       0.08621809 </v>
   <v>      -0.08621809       0.08621809       0.08621809 </v>
   <v>      -0.08621809      -0.08621809      -0.08621809 </v>
   <v>       0.08621809      -0.08621809      -0.08621809 </v>
   <v>      -0.08621809      -0.08621809       0.08621809 </v>
   <v>      -0.08621809       0.08621809      -0.08621809 </v>
   <v>       0.08621809       0.08621809      -0.08621809 </v>
   <v>       0.08621809      -0.08621809       0.08621809 </v>
   <v>       0.08621809       0.08621809       0.08621809 </v>
   <v>      -0.08621809       0.08621809       0.08621809 </v>
  </varray>
  <varray name="stress" >
   <v>     -54.97149093      -0.00000000      -0.00000000 </v>
   <v>      -0.00000000     -54.97149093      -0.00000000 </v>
   <v>      -0.00000000      -0.00000000     -54.97149093 </v>
  </varray>
  <energy>
   <i name="e_fr_energy">   -330.34088081 </i>
   <i name="e_wo_entrp">   -330.34455286 </i>
   <i name="e_0_energy">      0.01468820 </i>
  </energy>
  <time name="totalsc">  156.26  161.80</time>
 </calculation>
 <calculation>
  <scstep>
   <time name="dav">   15.98   15.98</time>
   <time name="total">   16.44   16.44</time>
   <energy>
    <i name="alphaZ">    291.18127604 </i>
    <i name="ewald">  -9505.39098211 </i>
    <i name="hartreedc">  -1796.30860134 </i>
    <i name="XCdc">    202.15295194 </i>
    <i name="pawpsdc">  19398.58619298 </i>
    <i name="pawaedc"> -18865.36121236 </i>
    <i name="eentropy">      0.01310115 </i>
    <i name="bandstr">    299.27534084 </i>
    <i name="atom">   9645.50393724 </i>
    <i name="e_fr_energy">   -330.34799562 </i>
    <i name="e_wo_entrp">   -330.36109677 </i>
    <i name="e_0_energy">   -330.35127091 </i>
   </energy>
  </scstep>
  <scstep>
   <time name="diag">    0.95    0.95</time>
   <time name="diis">    5.19    5.19</time>
   <time name="orth">    0.12    0.12</time>
   <time name="total">    6.72    6.72</time>
   <energy>
    <i name="e_fr_energy">   -330.35236638 </i>
    <i name="e_wo_entrp">   -330.36539880 </i>
    <i name="e_0_energy">   -330.35562449 </i>
   </energy>
  </scstep>
  <scstep>
   <time name="diag">    0.95    0.95</time>
   <time name="diis">    5.46    5.46</time>
   <time name="orth">    0.12    0.12</time>
   <time name="total">    6.99    6.99</time>
   <energy>
    <i name="e_fr_energy">   -330.35175257 </i>
    <i name="e_wo_entrp">   -330.36480014 </i>
    <i name="e_0_energy">   -330.35501446 </i>
   </energy>
  </scstep>
  <scstep>
   <time name="diag">    0.95    0.95</time>
   <time name="diis">    5.20    5.20</time>
   <time name="orth">    0.12    0.12</time>
   <time name="total">    6.74    6.74</time>
   <energy>
    <i name="e_fr_energy">   -330.35152655 </i>
    <i name="e_wo_entrp">   -330.36462057 </i>
    <i name="e_0_energy">   -330.35480006 </i>
   </energy>
  </scstep>
  <scstep>
   <time name="diag">    0.99    0.99</time>
   <time name="diis">    3.78    3.78</time>
   <time name="orth">    0.12    0.12</time>
   <time name="total">    5.36    5.36</time>
   <energy>
    <i name="e_fr_energy">   -330.35138516 </i>
    <i name="e_wo_entrp">   -330.36445845 </i>
    <i name="e_0_energy">   -330.35465348 </i>
   </energy>
  </scstep>
  <scstep>
   <time name="diag">    0.97    0.97</time>
   <time name="diis">    3.90    3.90</time>
   <time name="orth">    0.12    0.12</time>
   <time name="total">    5.09    5.09</time>
   <energy>
    <i name="alphaZ">    291.18127604 </i>
    <i name="ewald">  -9505.39098211 </i>
    <i name="hartreedc">  -1795.71648452 </i>
    <i name="XCdc">    202.12072072 </i>
    <i name="pawpsdc">  19340.95155641 </i>
    <i name="pawaedc"> -18807.70160631 </i>
    <i name="eentropy">      0.01306195 </i>
    <i name="bandstr">    298.68712987 </i>
    <i name="atom">   9645.50393724 </i>
    <i name="e_fr_energy">   -330.35139071 </i>
    <i name="e_wo_entrp">   -330.36445266 </i>
    <i name="e_0_energy">   -330.35465620 </i>
   </energy>
  </scstep>
  <structure>
   <crystal>
    <varray name="basis" >
     <v>       8.74969736       0.00000000       0.00000000 </v>
     <v>       0.00000000       8.74969736       0.00000000 </v>
     <v>       0.00000000       0.00000000       8.74969736 </v>
    </varray>
    <i name="volume">    669.85236396 </i>
    <varray name="rec_basis" >
     <v>       0.11428967      -0.00000000       0.00000000 </v>
     <v>      -0.00000000       0.11428967       0.00000000 </v>
     <v>      -0.00000000      -0.00000000       0.11428967 </v>
    </varray>
   </crystal>
   <varray name="positions" >
    <v>       0.87500000       0.87500000       0.12500000 </v>
    <v>       0.37500000       0.12500000       0.37500000 </v>
    <v>       0.62500000       0.87500000       0.37500000 </v>
    <v>       0.12500000       0.12500000       0.12500000 </v>
    <v>       0.25000000       0.75000000       0.25000000 </v>
    <v>      -0.00000000      -0.00000000       0.50000000 </v>
    <v>       0.87500000       0.37500000       0.62500000 </v>
    <v>       0.37500000       0.62500000       0.87500000 </v>
    <v>       0.62500000       0.37500000       0.87500000 </v>
    <v>       0.12500000       0.62500000       0.62500000 </v>
    <v>       0.25000000       0.25000000       0.75000000 </v>
    <v>      -0.00000000       0.50000000       0.00000000 </v>
    <v>       0.37500000       0.87500000       0.62500000 </v>
    <v>       0.87500000       0.12500000       0.87500000 </v>
    <v>       0.12500000       0.87500000       0.87500000 </v>
    <v>       0.62500000       0.12500000       0.62500000 </v>
    <v>       0.75000000       0.75000000       0.75000000 </v>
    <v>       0.50000000      -0.00000000       0.00000000 </v>
    <v>       0.37500000       0.37500000       0.12500000 </v>
    <v>       0.87500000       0.62500000       0.37500000 </v>
    <v>       0.12500000       0.37500000       0.37500000 </v>
    <v>       0.62500000       0.62500000       0.12500000 </v>
    <v>       0.75000000       0.25000000       0.25000000 </v>
    <v>       0.50000000       0.50000000       0.50000000 </v>
    <v>       0.37582756       0.37582756       0.37582756 </v>
    <v>       0.87417244       0.12582756       0.12582756 </v>
    <v>       0.62582756       0.12582756       0.37417244 </v>
    <v>       0.12582756       0.87417244       0.12582756 </v>
    <v>       0.12417244       0.12417244       0.37582756 </v>
    <v>       0.12417244       0.37582756       0.12417244 </v>
    <v>       0.37417244       0.87417244       0.37417244 </v>
    <v>       0.37582756       0.12417244       0.12417244 </v>
    <v>       0.37582756       0.87582756       0.87582756 </v>
    <v>       0.87417244       0.62582756       0.62582756 </v>
    <v>       0.62582756       0.62582756       0.87417244 </v>
    <v>       0.12582756       0.37417244       0.62582756 </v>
    <v>       0.12417244       0.62417244       0.87582756 </v>
    <v>       0.12417244       0.87582756       0.62417244 </v>
    <v>       0.37417244       0.37417244       0.87417244 </v>
    <v>       0.37582756       0.62417244       0.62417244 </v>
    <v>       0.87582756       0.37582756       0.87582756 </v>
    <v>       0.37417244       0.12582756       0.62582756 </v>
    <v>       0.12582756       0.12582756       0.87417244 </v>
    <v>       0.62582756       0.87417244       0.62582756 </v>
    <v>       0.62417244       0.12417244       0.87582756 </v>
    <v>       0.62417244       0.37582756       0.62417244 </v>
    <v>       0.87417244       0.87417244       0.87417244 </v>
    <v>       0.87582756       0.12417244       0.62417244 </v>
    <v>       0.87582756       0.87582756       0.37582756 </v>
    <v>       0.37417244       0.62582756       0.12582756 </v>
    <v>       0.12582756       0.62582756       0.37417244 </v>
    <v>       0.62582756       0.37417244       0.12582756 </v>
    <v>       0.62417244       0.62417244       0.37582756 </v>
    <v>       0.62417244       0.87582756       0.12417244 </v>
    <v>       0.87417244       0.37417244       0.37417244 </v>
    <v>       0.87582756       0.62417244       0.12417244 </v>
   </varray>
  </structure>
  <varray name="forces" >
   <v>      -0.00000000      -0.00000000      -0.00000000 </v>
   <v>      -0.00000000      -0.00000000      -0.00000000 </v>
   <v>      -0.00000000      -0.00000000      -0.00000000 </v>
   <v>      -0.00000000      -0.00000000      -0.00000000 </v>
   <v>      -0.00000000      -0.00000000      -0.00000000 </v>
   <v>      -0.00000000      -0.00000000      -0.00000000 </v>
   <v>      -0.00000000      -0.00000000      -0.00000000 </v>
   <v>      -0.00000000      -0.00000000      -0.00000000 </v>
   <v>      -0.00000000      -0.00000000      -0.00000000 </v>
   <v>      -0.00000000      -0.00000000      -0.00000000 </v>
   <v>      -0.00000000      -0.00000000      -0.00000000 </v>
   <v>      -0.00000000      -0.00000000      -0.00000000 </v>
   <v>      -0.00000000      -0.00000000      -0.00000000 </v>
   <v>      -0.00000000      -0.00000000      -0.00000000 </v>
   <v>      -0.00000000      -0.00000000      -0.00000000 </v>
   <v>      -0.00000000      -0.00000000      -0.00000000 </v>
   <v>      -0.00000000      -0.00000000      -0.00000000 </v>
   <v>      -0.00000000      -0.00000000      -0.00000000 </v>
   <v>      -0.00000000      -0.00000000      -0.00000000 </v>
   <v>      -0.00000000      -0.00000000      -0.00000000 </v>
   <v>      -0.00000000      -0.00000000      -0.00000000 </v>
   <v>      -0.00000000      -0.00000000      -0.00000000 </v>
   <v>      -0.00000000      -0.00000000      -0.00000000 </v>
   <v>      -0.00000000      -0.00000000      -0.00000000 </v>
   <v>       0.03471611       0.03471611       0.03471611 </v>
   <v>      -0.03471611       0.03471611       0.03471611 </v>
   <v>       0.03471611       0.03471611      -0.03471611 </v>
   <v>       0.03471611      -0.03471611       0.03471611 </v>
   <v>      -0.03471611      -0.03471611       0.03471611 </v>
   <v>      -0.03471611       0.03471611      -0.03471611 </v>
   <v>      -0.03471611      -0.03471611      -0.03471611 </v>
   <v>       0.03471611      -0.03471611      -0.03471611 </v>
   <v>       0.03471611       0.03471611       0.03471611 </v>
   <v>      -0.03471611       0.03471611       0.03471611 </v>
   <v>       0.03471611       0.03471611      -0.03471611 </v>
   <v>       0.03471611      -0.03471611       0.03471611 </v>
   <v>      -0.03471611      -0.03471611       0.03471611 </v>
   <v>      -0.03471611       0.03471611      -0.03471611 </v>
   <v>      -0.03471611      -0.03471611      -0.03471611 </v>
   <v>       0.03471611      -0.03471611      -0.03471611 </v>
   <v>       0.03471611       0.03471611       0.03471611 </v>
   <v>      -0.03471611       0.03471611       0.03471611 </v>
   <v>       0.03471611       0.03471611      -0.03471611 </v>
   <v>       0.03471611      -0.03471611       0.03471611 </v>
   <v>      -0.03471611      -0.03471611       0.03471611 </v>
   <v>      -0.03471611       0.03471611      -0.03471611 </v>
   <v>      -0.03471611      -0.03471611      -0.03471611 </v>
   <v>       0.03471611      -0.03471611      -0.03471611 </v>
   <v>       0.03471611       0.03471611       0.03471611 </v>
   <v>      -0.03471611       0.03471611       0.03471611 </v>
   <v>       0.03471611       0.03471611      -0.03471611 </v>
   <v>       0.03471611      -0.03471611       0.03471611 </v>
   <v>      -0.03471611      -0.03471611       0.03471611 </v>
   <v>      -0.03471611       0.03471611      -0.03471611 </v>
   <v>      -0.03471611      -0.03471611      -0.03471611 </v>
   <v>       0.03471611      -0.03471611      -0.03471611 </v>
  </varray>
  <varray name="stress" >
   <v>     -53.44764974      -0.00000000      -0.00000000 </v>
   <v>      -0.00000000     -53.44764974      -0.00000000 </v>
   <v>      -0.00000000      -0.00000000     -53.44764974 </v>
  </varray>
  <energy>
   <i name="e_fr_energy">   -330.35139071 </i>
   <i name="e_wo_entrp">   -330.35465620 </i>
   <i name="e_0_energy">      0.01306195 </i>
  </energy>
  <time name="totalsc">   58.73   58.74</time>
 </calculation>
 <calculation>
  <scstep>
   <time name="dav">   24.03   24.03</time>
   <time name="total">   24.49   24.50</time>
   <energy>
    <i name="alphaZ">    291.18127604 </i>
    <i name="ewald">  -9505.80723719 </i>
    <i name="hartreedc">  -1795.02255448 </i>
    <i name="XCdc">    202.12288896 </i>
    <i name="pawpsdc">  19341.96176402 </i>
    <i name="pawaedc"> -18808.71220508 </i>
    <i name="eentropy">      0.01348890 </i>
    <i name="bandstr">    298.40566478 </i>
    <i name="atom">   9645.50393724 </i>
    <i name="e_fr_energy">   -330.35297681 </i>
    <i name="e_wo_entrp">   -330.36646571 </i>
    <i name="e_0_energy">   -330.35634904 </i>
   </energy>
  </scstep>
  <scstep>
   <time name="diag">   13.16   25.88</time>
   <time name="diis">    4.24    5.48</time>
   <time name="orth">    0.12    0.12</time>
   <time name="total">   18.51   33.09</time>
   <energy>
    <i name="e_fr_energy">   -330.35334494 </i>
    <i name="e_wo_entrp">   -330.36686466 </i>
    <i name="e_0_energy">   -330.35672487 </i>
   </energy>
  </scstep>
  <scstep>
   <time name="diag">    0.93    0.93</time>
   <time name="diis">    3.35    3.35</time>
   <time name="orth">    0.12    0.12</time>
   <time name="total">    4.49    4.50</time>
   <energy>
    <i name="alphaZ">    291.18127604 </i>
    <i name="ewald">  -9505.80723719 </i>
    <i name="hartreedc">  -1795.21133111 </i>
    <i name="XCdc">    202.13165784 </i>
    <i name="pawpsdc">  19347.30416566 </i>
    <i name="pawaedc"> -18814.05944724 </i>
    <i name="eentropy">      0.01351325 </i>
    <i name="bandstr">    298.59019630 </i>
    <i name="atom">   9645.50393724 </i>
    <i name="e_fr_energy">   -330.35326920 </i>
    <i name="e_wo_entrp">   -330.36678245 </i>
    <i name="e_0_energy">   -330.35664751 </i>
   </energy>
  </scstep>
  <structure>
   <crystal>
    <varray name="basis" >
     <v>       8.74969736       0.00000000       0.00000000 </v>
     <v>       0.00000000       8.74969736       0.00000000 </v>
     <v>       0.00000000       0.00000000       8.74969736 </v>
    </varray>
    <i name="volume">    669.85236396 </i>
    <varray name="rec_basis" >
     <v>       0.11428967      -0.00000000       0.00000000 </v>
     <v>      -0.00000000       0.11428967       0.00000000 </v>
     <v>      -0.00000000      -0.00000000       0.11428967 </v>
    </varray>
   </crystal>
   <varray name="positions" >
    <v>       0.87500000       0.87500000       0.12500000 </v>
    <v>       0.37500000       0.12500000       0.37500000 </v>
    <v>       0.62500000       0.87500000       0.37500000 </v>
    <v>       0.12500000       0.12500000       0.12500000 </v>
    <v>       0.25000000       0.75000000       0.25000000 </v>
    <v>      -0.00000000      -0.00000000       0.50000000 </v>
    <v>       0.87500000       0.37500000       0.62500000 </v>
    <v>       0.37500000       0.62500000       0.87500000 </v>
    <v>       0.62500000       0.37500000       0.87500000 </v>
    <v>       0.12500000       0.62500000       0.62500000 </v>
    <v>       0.25000000       0.25000000       0.75000000 </v>
    <v>      -0.00000000       0.50000000       0.00000000 </v>
    <v>       0.37500000       0.87500000       0.62500000 </v>
    <v>       0.87500000       0.12500000       0.87500000 </v>
    <v>       0.12500000       0.87500000       0.87500000 </v>
    <v>       0.62500000       0.12500000       0.62500000 </v>
    <v>       0.75000000       0.75000000       0.75000000 </v>
    <v>       0.50000000      -0.00000000       0.00000000 </v>
    <v>       0.37500000       0.37500000       0.12500000 </v>
    <v>       0.87500000       0.62500000       0.37500000 </v>
    <v>       0.12500000       0.37500000       0.37500000 </v>
    <v>       0.62500000       0.62500000       0.12500000 </v>
    <v>       0.75000000       0.25000000       0.25000000 </v>
    <v>       0.50000000       0.50000000       0.50000000 </v>
    <v>       0.37596402       0.37596402       0.37596402 </v>
    <v>       0.87403598       0.12596402       0.12596402 </v>
    <v>       0.62596402       0.12596402       0.37403598 </v>
    <v>       0.12596402       0.87403598       0.12596402 </v>
    <v>       0.12403598       0.12403598       0.37596402 </v>
    <v>       0.12403598       0.37596402       0.12403598 </v>
    <v>       0.37403598       0.87403598       0.37403598 </v>
    <v>       0.37596402       0.12403598       0.12403598 </v>
    <v>       0.37596402       0.87596402       0.87596402 </v>
    <v>       0.87403598       0.62596402       0.62596402 </v>
    <v>       0.62596402       0.62596402       0.87403598 </v>
    <v>       0.12596402       0.37403598       0.62596402 </v>
    <v>       0.12403598       0.62403598       0.87596402 </v>
    <v>       0.12403598       0.87596402       0.62403598 </v>
    <v>       0.37403598       0.37403598       0.87403598 </v>
    <v>       0.37596402       0.62403598       0.62403598 </v>
    <v>       0.87596402       0.37596402       0.87596402 </v>
    <v>       0.37403598       0.12596402       0.62596402 </v>
    <v>       0.12596402       0.12596402       0.87403598 </v>
    <v>       0.62596402       0.87403598       0.62596402 </v>
    <v>       0.62403598       0.12403598       0.87596402 </v>
    <v>       0.62403598       0.37596402       0.62403598 </v>
    <v>       0.87403598       0.87403598       0.87403598 </v>
    <v>       0.87596402       0.12403598       0.62403598 </v>
    <v>       0.87596402       0.87596402       0.37596402 </v>
    <v>       0.37403598       0.62596402       0.12596402 </v>
    <v>       0.12596402       0.62596402       0.37403598 </v>
    <v>       0.62596402       0.37403598       0.12596402 </v>
    <v>       0.62403598       0.62403598       0.37596402 </v>
    <v>       0.62403598       0.87596402       0.12403598 </v>
    <v>       0.87403598       0.37403598       0.37403598 </v>
    <v>       0.87596402       0.62403598       0.12403598 </v>
   </varray>
  </structure>
  <varray name="forces" >
   <v>       0.00000000      -0.00000000      -0.00000000 </v>
   <v>       0.00000000      -0.00000000      -0.00000000 </v>
   <v>       0.00000000      -0.00000000       0.00000000 </v>
   <v>       0.00000000      -0.00000000      -0.00000000 </v>
   <v>       0.00000000      -0.00000000      -0.00000000 </v>
   <v>       0.00000000      -0.00000000      -0.00000000 </v>
   <v>       0.00000000      -0.00000000      -0.00000000 </v>
   <v>       0.00000000      -0.00000000       0.00000000 </v>
   <v>       0.00000000      -0.00000000      -0.00000000 </v>
   <v>       0.00000000      -0.00000000      -0.00000000 </v>
   <v>       0.00000000      -0.00000000       0.00000000 </v>
   <v>       0.00000000      -0.00000000      -0.00000000 </v>
   <v>       0.00000000      -0.00000000      -0.00000000 </v>
   <v>       0.00000000      -0.00000000       0.00000000 </v>
   <v>       0.00000000      -0.00000000      -0.00000000 </v>
   <v>       0.00000000      -0.00000000      -0.00000000 </v>
   <v>       0.00000000      -0.00000000       0.00000000 </v>
   <v>       0.00000000      -0.00000000      -0.00000000 </v>
   <v>       0.00000000      -0.00000000      -0.00000000 </v>
   <v>       0.00000000      -0.00000000       0.00000000 </v>
   <v>       0.00000000      -0.00000000       0.00000000 </v>
   <v>       0.00000000      -0.00000000      -0.00000000 </v>
   <v>       0.00000000      -0.00000000       0.00000000 </v>
   <v>       0.00000000      -0.00000000      -0.00000000 </v>
   <v>      -0.00009478      -0.00009478      -0.00009478 </v>
   <v>       0.00009478      -0.00009478      -0.00009478 </v>
   <v>      -0.00009478      -0.00009478       0.00009478 </v>
   <v>      -0.00009478       0.00009478      -0.00009478 </v>
   <v>       0.00009478       0.00009478      -0.00009478 </v>
   <v>       0.00009478      -0.00009478       0.00009478 </v>
   <v>       0.00009478       0.00009478       0.00009478 </v>
   <v>      -0.00009478       0.00009478       0.00009478 </v>
   <v>      -0.00009478      -0.00009478      -0.00009478 </v>
   <v>       0.00009478      -0.00009478      -0.00009478 </v>
   <v>      -0.00009478      -0.00009478       0.00009478 </v>
   <v>      -0.00009478       0.00009478      -0.00009478 </v>
   <v>       0.00009478       0.00009478      -0.00009478 </v>
   <v>       0.00009478      -0.00009478       0.00009478 </v>
   <v>       0.00009478       0.00009478       0.00009478 </v>
   <v>      -0.00009478       0.00009478       0.00009478 </v>
   <v>      -0.00009478      -0.00009478      -0.00009478 </v>
   <v>       0.00009478      -0.00009478      -0.00009478 </v>
   <v>      -0.00009478      -0.00009478       0.00009478 </v>
   <v>      -0.00009478       0.00009478      -0.00009478 </v>
   <v>       0.00009478       0.00009478      -0.00009478 </v>
   <v>       0.00009478      -0.00009478       0.00009478 </v>
   <v>       0.00009478       0.00009478       0.00009478 </v>
   <v>      -0.00009478       0.00009478       0.00009478 </v>
   <v>      -0.00009478      -0.00009478      -0.00009478 </v>
   <v>       0.00009478      -0.00009478      -0.00009478 </v>
   <v>      -0.00009478      -0.00009478       0.00009478 </v>
   <v>      -0.00009478       0.00009478      -0.00009478 </v>
   <v>       0.00009478       0.00009478      -0.00009478 </v>
   <v>       0.00009478      -0.00009478       0.00009478 </v>
   <v>       0.00009478       0.00009478       0.00009478 </v>
   <v>      -0.00009478       0.00009478       0.00009478 </v>
  </varray>
  <varray name="stress" >
   <v>     -53.98152917      -0.00000000      -0.00000000 </v>
   <v>      -0.00000000     -53.98152917      -0.00000000 </v>
   <v>      -0.00000000      -0.00000000     -53.98152917 </v>
  </varray>
  <energy>
   <i name="e_fr_energy">   -330.35326920 </i>
   <i name="e_wo_entrp">   -330.35664751 </i>
   <i name="e_0_energy">      0.01351325 </i>
  </energy>
  <time name="totalsc">   57.60   72.20</time>
  <eigenvalues>
   <array>
    <dimension dim="1">band</dimension>
    <dimension dim="2">kpoint</dimension>
    <dimension dim="3">spin</dimension>
    <field>eigene</field>
    <field>occ</field>
    <set>
     <set comment="spin 1">
      <set comment="kpoint 1">
       <r>   -9.6239    1.0000 </r>
       <r>   -8.8332    1.0000 </r>
       <r>   -8.8332    1.0000 </r>
       <r>   -8.8332    1.0000 </r>
       <r>   -8.8332    1.0000 </r>
       <r>   -8.8332    1.0000 </r>
       <r>   -8.8332    1.0000 </r>
       <r>   -8.5240    1.0000 </r>
       <r>   -7.9934    1.0000 </r>
       <r>   -7.9398    1.0000 </r>
       <r>   -7.9398    1.0000 </r>
       <r>   -7.9398    1.0000 </r>
       <r>   -7.9398    1.0000 </r>
       <r>   -7.9398    1.0000 </r>
       <r>   -7.9398    1.0000 </r>
       <r>   -6.9481    1.0000 </r>
       <r>   -6.9481    1.0000 </r>
       <r>   -6.9481    1.0000 </r>
       <r>   -6.9481    1.0000 </r>
       <r>   -6.9481    1.0000 </r>
       <r>   -6.9481    1.0000 </r>
       <r>   -6.8444    1.0000 </r>
       <r>   -6.8444    1.0000 </r>
       <r>   -6.8444    1.0000 </r>
       <r>   -1.3906    1.0000 </r>
       <r>   -1.3906    1.0000 </r>
       <r>   -1.3906    1.0000 </r>
       <r>   -1.1051    1.0000 </r>
       <r>   -1.0176    1.0000 </r>
       <r>   -1.0176    1.0000 </r>
       <r>   -1.0176    1.0000 </r>
       <r>   -1.0176    1.0000 </r>
       <r>   -1.0176    1.0000 </r>
       <r>   -1.0176    1.0000 </r>
       <r>   -0.1826    1.0000 </r>
       <r>   -0.1826    1.0000 </r>
       <r>   -0.1826    1.0000 </r>
       <r>   -0.1826    1.0000 </r>
       <r>   -0.1826    1.0000 </r>
       <r>   -0.1826    1.0000 </r>
       <r>    0.1725    1.0000 </r>
       <r>    0.1725    1.0000 </r>
       <r>    0.1725    1.0000 </r>
       <r>    0.3959    1.0000 </r>
       <r>    0.3959    1.0000 </r>
       <r>    0.3959    1.0000 </r>
       <r>    0.3959    1.0000 </r>
       <r>    0.3959    1.0000 </r>
       <r>    0.3959    1.0000 </r>
       <r>    0.7720    1.0000 </r>
       <r>    0.7720    1.0000 </r>
       <r>    0.7720    1.0000 </r>
       <r>    0.7720    1.0000 </r>
       <r>    0.7720    1.0000 </r>
       <r>    0.7720    1.0000 </r>
       <r>    1.1291    1.0000 </r>
       <r>    1.1291    1.0000 </r>
       <r>    2.4238    1.0000 </r>
       <r>    2.4238    1.0000 </r>
       <r>    2.4238    1.0000 </r>
       <r>    2.4238    1.0000 </r>
       <r>    2.4238    1.0000 </r>
       <r>    2.4238    1.0000 </r>
       <r>    2.4655    1.0000 </r>
       <r>    2.4655    1.0000 </r>
       <r>    2.4655    1.0000 </r>
       <r>    2.4655    1.0000 </r>
       <r>    2.4655    1.0000 </r>
       <r>    2.4655    1.0000 </r>
       <r>    2.5114    1.0000 </r>
       <r>    2.5114    1.0000 </r>
       <r>    2.5114    1.0000 </r>
       <r>    2.5114    1.0000 </r>
       <r>    2.5114    1.0000 </r>
       <r>    2.5114    1.0000 </r>
       <r>    2.6580    1.0000 </r>
       <r>    2.6580    1.0000 </r>
       <r>    2.6580    1.0000 </r>
       <r>    3.0735    1.0000 </r>
       <r>    3.0735    1.0000 </r>
       <r>    3.0735    1.0000 </r>
       <r>    3.0735    1.0000 </r>
       <r>    3.0735    1.0000 </r>
       <r>    3.0735    1.0000 </r>
       <r>    4.1307    1.0000 </r>
       <r>    4.2820    1.0000 </r>
       <r>    4.2820    1.0000 </r>
       <r>    4.2820    1.0000 </r>
       <r>    4.9211    1.0000 </r>
       <r>    4.9211    1.0000 </r>
       <r>    4.9211    1.0000 </r>
       <r>    4.9211    1.0000 </r>
       <r>    4.9211    1.0000 </r>
       <r>    4.9211    1.0000 </r>
       <r>    5.3619    1.0000 </r>
       <r>    5.3619    1.0000 </r>
       <r>    5.3619    1.0000 </r>
       <r>    6.7886    1.0000 </r>
       <r>    6.7886    1.0000 </r>
       <r>    6.7886    1.0000 </r>
       <r>    7.1946    1.0000 </r>
       <r>    7.1946    1.0000 </r>
       <r>    7.1946    1.0000 </r>
       <r>    7.1946    1.0000 </r>
       <r>    7.1946    1.0000 </r>
       <r>    7.1946    1.0000 </r>
       <r>    7.8847    1.0000 </r>
       <r>    7.8847    1.0000 </r>
       <r>    7.8847    1.0000 </r>
       <r>    7.8847    1.0000 </r>
       <r>    7.8847    1.0000 </r>
       <r>    7.8847    1.0000 </r>
       <r>    7.9089    1.0000 </r>
       <r>    7.9089    1.0000 </r>
       <r>    7.9089    1.0000 </r>
       <r>    7.9089    1.0000 </r>
       <r>    7.9089    1.0000 </r>
       <r>    7.9089    1.0000 </r>
       <r>    8.2363    1.0000 </r>
       <r>    8.2363    1.0000 </r>
       <r>    8.2363    1.0000 </r>
       <r>    8.3084    1.0000 </r>
       <r>    8.3084    1.0000 </r>
       <r>    8.3084    1.0000 </r>
       <r>    8.3084    1.0000 </r>
       <r>    8.3084    1.0000 </r>
       <r>    8.3084    1.0000 </r>
       <r>    9.8486    0.0000 </r>
       <r>   10.1875    0.0000 </r>
       <r>   10.1875    0.0000 </r>
       <r>   10.1875    0.0000 </r>
       <r>   10.1875    0.0000 </r>
       <r>   10.1875    0.0000 </r>
       <r>   10.1875    0.0000 </r>
       <r>   10.2390    0.0000 </r>
       <r>   10.2390    0.0000 </r>
       <r>   10.2390    0.0000 </r>
       <r>   10.2390    0.0000 </r>
       <r>   10.2390    0.0000 </r>
       <r>   10.2390    0.0000 </r>
       <r>   10.3521    0.0000 </r>
       <r>   10.3521    0.0000 </r>
       <r>   10.3874    0.0000 </r>
       <r>   10.3874    0.0000 </r>
       <r>   10.3874    0.0000 </r>
       <r>   10.3874    0.0000 </r>
       <r>   10.3874    0.0000 </r>
       <r>   10.3874    0.0000 </r>
       <r>   10.5899    0.0000 </r>
       <r>   11.1171    0.0000 </r>
       <r>   11.1171    0.0000 </r>
       <r>   11.1172    0.0000 </r>
       <r>   12.3510    0.0000 </r>
       <r>   12.3633    0.0000 </r>
       <r>   12.3667    0.0000 </r>
       <r>   12.3689    0.0000 </r>
      </set>
      <set comment="kpoint 2">
       <r>   -9.5797    1.0000 </r>
       <r>   -9.0309    1.0000 </r>
       <r>   -8.8246    1.0000 </r>
       <r>   -8.8246    1.0000 </r>
       <r>   -8.8246    1.0000 </r>
       <r>   -8.8246    1.0000 </r>
       <r>   -8.7050    1.0000 </r>
       <r>   -8.5369    1.0000 </r>
       <r>   -8.0641    1.0000 </r>
       <r>   -8.0103    1.0000 </r>
       <r>   -7.9662    1.0000 </r>
       <r>   -7.9662    1.0000 </r>
       <r>   -7.9662    1.0000 </r>
       <r>   -7.9662    1.0000 </r>
       <r>   -7.6927    1.0000 </r>
       <r>   -6.9385    1.0000 </r>
       <r>   -6.9385    1.0000 </r>
       <r>   -6.9256    1.0000 </r>
       <r>   -6.9256    1.0000 </r>
       <r>   -6.9256    1.0000 </r>
       <r>   -6.9256    1.0000 </r>
       <r>   -6.9122    1.0000 </r>
       <r>   -6.8544    1.0000 </r>
       <r>   -6.8544    1.0000 </r>
       <r>   -1.3744    1.0000 </r>
       <r>   -1.3744    1.0000 </r>
       <r>   -1.2798    1.0000 </r>
       <r>   -1.0788    1.0000 </r>
       <r>   -1.0788    1.0000 </r>
       <r>   -1.0174    1.0000 </r>
       <r>   -0.9739    1.0000 </r>
       <r>   -0.9739    1.0000 </r>
       <r>   -0.9739    1.0000 </r>
       <r>   -0.9739    1.0000 </r>
       <r>   -0.4283    1.0000 </r>
       <r>   -0.3148    1.0000 </r>
       <r>   -0.3148    1.0000 </r>
       <r>   -0.3148    1.0000 </r>
       <r>   -0.3148    1.0000 </r>
       <r>   -0.1229    1.0000 </r>
       <r>   -0.0897    1.0000 </r>
       <r>    0.1011    1.0000 </r>
       <r>    0.2724    1.0000 </r>
       <r>    0.2724    1.0000 </r>
       <r>    0.3785    1.0000 </r>
       <r>    0.3785    1.0000 </r>
       <r>    0.3785    1.0000 </r>
       <r>    0.3785    1.0000 </r>
       <r>    0.5788    1.0000 </r>
       <r>    0.8102    1.0000 </r>
       <r>    0.8102    1.0000 </r>
       <r>    0.8647    1.0000 </r>
       <r>    0.8647    1.0000 </r>
       <r>    0.8647    1.0000 </r>
       <r>    0.8647    1.0000 </r>
       <r>    1.1853    1.0000 </r>
       <r>    1.5525    1.0000 </r>
       <r>    1.9835    1.0000 </r>
       <r>    2.1034    1.0000 </r>
       <r>    2.1034    1.0000 </r>
       <r>    2.1034    1.0000 </r>
       <r>    2.1034    1.0000 </r>
       <r>    2.3348    1.0000 </r>
       <r>    2.3486    1.0000 </r>
       <r>    2.3486    1.0000 </r>
       <r>    2.5307    1.0000 </r>
       <r>    2.5307    1.0000 </r>
       <r>    2.5307    1.0000 </r>
       <r>    2.5307    1.0000 </r>
       <r>    2.6028    1.0000 </r>
       <r>    2.6028    1.0000 </r>
       <r>    2.6622    1.0000 </r>
       <r>    2.6913    1.0000 </r>
       <r>    2.8886    1.0000 </r>
       <r>    2.8886    1.0000 </r>
       <r>    2.8886    1.0000 </r>
       <r>    2.8886    1.0000 </r>
       <r>    2.9126    1.0000 </r>
       <r>    3.1067    1.0000 </r>
       <r>    3.1067    1.0000 </r>
       <r>    3.1067    1.0000 </r>
       <r>    3.1067    1.0000 </r>
       <r>    3.2456    1.0000 </r>
       <r>    3.2456    1.0000 </r>
       <r>    4.1020    1.0000 </r>
       <r>    4.1020    1.0000 </r>
       <r>    4.1656    1.0000 </r>
       <r>    4.1686    1.0000 </r>
       <r>    4.7610    1.0000 </r>
       <r>    4.7610    1.0000 </r>
       <r>    4.7610    1.0000 </r>
       <r>    4.7610    1.0000 </r>
       <r>    4.9463    1.0000 </r>
       <r>    4.9463    1.0000 </r>
       <r>    5.2698    1.0000 </r>
       <r>    5.2698    1.0000 </r>
       <r>    5.4532    1.0000 </r>
       <r>    6.7229    1.0000 </r>
       <r>    6.8464    1.0000 </r>
       <r>    7.0276    1.0000 </r>
       <r>    7.1444    1.0000 </r>
       <r>    7.1444    1.0000 </r>
       <r>    7.1801    1.0000 </r>
       <r>    7.1801    1.0000 </r>
       <r>    7.1801    1.0000 </r>
       <r>    7.1801    1.0000 </r>
       <r>    7.5329    1.0000 </r>
       <r>    7.5339    1.0000 </r>
       <r>    7.5339    1.0000 </r>
       <r>    7.5339    1.0000 </r>
       <r>    7.5339    1.0000 </r>
       <r>    7.7346    1.0000 </r>
       <r>    7.8564    1.0000 </r>
       <r>    7.8564    1.0000 </r>
       <r>    8.0164    1.0000 </r>
       <r>    8.0164    1.0000 </r>
       <r>    8.0164    1.0000 </r>
       <r>    8.0164    1.0000 </r>
       <r>    8.2208    1.0000 </r>
       <r>    8.2208    1.0000 </r>
       <r>    8.5450    0.9998 </r>
       <r>    8.5450    0.9998 </r>
       <r>    8.6747    0.9983 </r>
       <r>    8.7091    1.0182 </r>
       <r>    8.7091    1.0182 </r>
       <r>    8.7091    1.0182 </r>
       <r>    8.7091    1.0182 </r>
       <r>    9.7440    0.0000 </r>
       <r>    9.7440    0.0000 </r>
       <r>    9.7440    0.0000 </r>
       <r>    9.7440    0.0000 </r>
       <r>    9.9894    0.0000 </r>
       <r>   10.0842    0.0000 </r>
       <r>   10.0842    0.0000 </r>
       <r>   10.1222    0.0000 </r>
       <r>   10.1589    0.0000 </r>
       <r>   10.3147    0.0000 </r>
       <r>   10.3598    0.0000 </r>
       <r>   10.3650    0.0000 </r>
       <r>   10.3866    0.0000 </r>
       <r>   10.3866    0.0000 </r>
       <r>   10.3866    0.0000 </r>
       <r>   10.3866    0.0000 </r>
       <r>   10.6785    0.0000 </r>
       <r>   10.6785    0.0000 </r>
       <r>   10.6785    0.0000 </r>
       <r>   10.6785    0.0000 </r>
       <r>   10.8786    0.0000 </r>
       <r>   11.0459    0.0000 </r>
       <r>   11.0590    0.0000 </r>
       <r>   11.0613    0.0000 </r>
       <r>   11.0613    0.0000 </r>
       <r>   11.7629    0.0000 </r>
       <r>   12.1555    0.0000 </r>
       <r>   12.1603    0.0000 </r>
       <r>   12.1676    0.0000 </r>
      </set>
      <set comment="kpoint 3">
       <r>   -9.4520    1.0000 </r>
       <r>   -9.2572    1.0000 </r>
       <r>   -8.8100    1.0000 </r>
       <r>   -8.8100    1.0000 </r>
       <r>   -8.8100    1.0000 </r>
       <r>   -8.8100    1.0000 </r>
       <r>   -8.6269    1.0000 </r>
       <r>   -8.5726    1.0000 </r>
       <r>   -8.0827    1.0000 </r>
       <r>   -8.0498    1.0000 </r>
       <r>   -8.0080    1.0000 </r>
       <r>   -8.0080    1.0000 </r>
       <r>   -8.0080    1.0000 </r>
       <r>   -8.0080    1.0000 </r>
       <r>   -7.3862    1.0000 </r>
       <r>   -7.1048    1.0000 </r>
       <r>   -6.9129    1.0000 </r>
       <r>   -6.9129    1.0000 </r>
       <r>   -6.8906    1.0000 </r>
       <r>   -6.8906    1.0000 </r>
       <r>   -6.8906    1.0000 </r>
       <r>   -6.8906    1.0000 </r>
       <r>   -6.8806    1.0000 </r>
       <r>   -6.8806    1.0000 </r>
       <r>   -1.3150    1.0000 </r>
       <r>   -1.3150    1.0000 </r>
       <r>   -1.2056    1.0000 </r>
       <r>   -1.2056    1.0000 </r>
       <r>   -0.9670    1.0000 </r>
       <r>   -0.8550    1.0000 </r>
       <r>   -0.8550    1.0000 </r>
       <r>   -0.8550    1.0000 </r>
       <r>   -0.8550    1.0000 </r>
       <r>   -0.7737    1.0000 </r>
       <r>   -0.5581    1.0000 </r>
       <r>   -0.5514    1.0000 </r>
       <r>   -0.5514    1.0000 </r>
       <r>   -0.5514    1.0000 </r>
       <r>   -0.5514    1.0000 </r>
       <r>   -0.5206    1.0000 </r>
       <r>   -0.3762    1.0000 </r>
       <r>   -0.3070    1.0000 </r>
       <r>    0.3570    1.0000 </r>
       <r>    0.3570    1.0000 </r>
       <r>    0.3570    1.0000 </r>
       <r>    0.3570    1.0000 </r>
       <r>    0.5217    1.0000 </r>
       <r>    0.5217    1.0000 </r>
       <r>    0.7630    1.0000 </r>
       <r>    0.7630    1.0000 </r>
       <r>    1.0014    1.0000 </r>
       <r>    1.0014    1.0000 </r>
       <r>    1.0014    1.0000 </r>
       <r>    1.0014    1.0000 </r>
       <r>    1.0726    1.0000 </r>
       <r>    1.3511    1.0000 </r>
       <r>    1.6203    1.0000 </r>
       <r>    1.7079    1.0000 </r>
       <r>    1.8465    1.0000 </r>
       <r>    1.8465    1.0000 </r>
       <r>    1.8465    1.0000 </r>
       <r>    1.8465    1.0000 </r>
       <r>    2.2525    1.0000 </r>
       <r>    2.2676    1.0000 </r>
       <r>    2.2676    1.0000 </r>
       <r>    2.4335    1.0000 </r>
       <r>    2.4335    1.0000 </r>
       <r>    2.7173    1.0000 </r>
       <r>    2.7284    1.0000 </r>
       <r>    2.7284    1.0000 </r>
       <r>    2.7284    1.0000 </r>
       <r>    2.7284    1.0000 </r>
       <r>    3.0321    1.0000 </r>
       <r>    3.0321    1.0000 </r>
       <r>    3.0321    1.0000 </r>
       <r>    3.0321    1.0000 </r>
       <r>    3.2545    1.0000 </r>
       <r>    3.3153    1.0000 </r>
       <r>    3.3153    1.0000 </r>
       <r>    3.3153    1.0000 </r>
       <r>    3.3153    1.0000 </r>
       <r>    3.4098    1.0000 </r>
       <r>    3.4964    1.0000 </r>
       <r>    3.4964    1.0000 </r>
       <r>    3.7705    1.0000 </r>
       <r>    3.7705    1.0000 </r>
       <r>    3.8481    1.0000 </r>
       <r>    3.8547    1.0000 </r>
       <r>    4.4561    1.0000 </r>
       <r>    4.4561    1.0000 </r>
       <r>    4.4561    1.0000 </r>
       <r>    4.4561    1.0000 </r>
       <r>    5.0214    1.0000 </r>
       <r>    5.0214    1.0000 </r>
       <r>    5.1368    1.0000 </r>
       <r>    5.1368    1.0000 </r>
       <r>    5.9016    1.0000 </r>
       <r>    6.4629    1.0000 </r>
       <r>    6.5126    1.0000 </r>
       <r>    6.8885    1.0000 </r>
       <r>    7.0111    1.0000 </r>
       <r>    7.0111    1.0000 </r>
       <r>    7.0111    1.0000 </r>
       <r>    7.0111    1.0000 </r>
       <r>    7.0469    1.0000 </r>
       <r>    7.2736    1.0000 </r>
       <r>    7.5158    1.0000 </r>
       <r>    7.5158    1.0000 </r>
       <r>    7.5158    1.0000 </r>
       <r>    7.5158    1.0000 </r>
       <r>    7.7207    1.0000 </r>
       <r>    7.7207    1.0000 </r>
       <r>    7.8414    1.0000 </r>
       <r>    7.8414    1.0000 </r>
       <r>    8.0101    1.0000 </r>
       <r>    8.0101    1.0000 </r>
       <r>    8.0101    1.0000 </r>
       <r>    8.0101    1.0000 </r>
       <r>    8.3118    1.0000 </r>
       <r>    8.3118    1.0000 </r>
       <r>    8.7047    1.0145 </r>
       <r>    8.7047    1.0145 </r>
       <r>    9.0606    0.0047 </r>
       <r>    9.0606    0.0047 </r>
       <r>    9.0606    0.0047 </r>
       <r>    9.0606    0.0047 </r>
       <r>    9.4850    0.0000 </r>
       <r>    9.5174    0.0000 </r>
       <r>    9.5174    0.0000 </r>
       <r>    9.5174    0.0000 </r>
       <r>    9.5174    0.0000 </r>
       <r>   10.0187    0.0000 </r>
       <r>   10.0187    0.0000 </r>
       <r>   10.0251    0.0000 </r>
       <r>   10.1468    0.0000 </r>
       <r>   10.1732    0.0000 </r>
       <r>   10.2280    0.0000 </r>
       <r>   10.2749    0.0000 </r>
       <r>   10.4412    0.0000 </r>
       <r>   10.4412    0.0000 </r>
       <r>   10.4412    0.0000 </r>
       <r>   10.4412    0.0000 </r>
       <r>   10.6204    0.0000 </r>
       <r>   10.6204    0.0000 </r>
       <r>   10.6755    0.0000 </r>
       <r>   10.9317    0.0000 </r>
       <r>   10.9317    0.0000 </r>
       <r>   10.9317    0.0000 </r>
       <r>   10.9317    0.0000 </r>
       <r>   11.0862    0.0000 </r>
       <r>   11.1384    0.0000 </r>
       <r>   11.2683    0.0000 </r>
       <r>   11.8867    0.0000 </r>
       <r>   11.9246    0.0000 </r>
       <r>   11.9447    0.0000 </r>
       <r>   11.9944    0.0000 </r>
      </set>
      <set comment="kpoint 4">
       <r>   -9.5363    1.0000 </r>
       <r>   -9.0060    1.0000 </r>
       <r>   -9.0060    1.0000 </r>
       <r>   -8.8417    1.0000 </r>
       <r>   -8.8002    1.0000 </r>
       <r>   -8.7104    1.0000 </r>
       <r>   -8.7104    1.0000 </r>
       <r>   -8.5498    1.0000 </r>
       <r>   -8.0960    1.0000 </r>
       <r>   -8.0960    1.0000 </r>
       <r>   -8.0936    1.0000 </r>
       <r>   -8.0301    1.0000 </r>
       <r>   -7.8610    1.0000 </r>
       <r>   -7.7186    1.0000 </r>
       <r>   -7.7186    1.0000 </r>
       <r>   -6.9855    1.0000 </r>
       <r>   -6.9347    1.0000 </r>
       <r>   -6.9202    1.0000 </r>
       <r>   -6.9202    1.0000 </r>
       <r>   -6.9153    1.0000 </r>
       <r>   -6.9153    1.0000 </r>
       <r>   -6.8868    1.0000 </r>
       <r>   -6.8594    1.0000 </r>
       <r>   -6.8504    1.0000 </r>
       <r>   -1.3963    1.0000 </r>
       <r>   -1.2669    1.0000 </r>
       <r>   -1.2664    1.0000 </r>
       <r>   -1.0820    1.0000 </r>
       <r>   -1.0820    1.0000 </r>
       <r>   -1.0141    1.0000 </r>
       <r>   -1.0004    1.0000 </r>
       <r>   -1.0004    1.0000 </r>
       <r>   -0.8885    1.0000 </r>
       <r>   -0.8339    1.0000 </r>
       <r>   -0.6274    1.0000 </r>
       <r>   -0.5278    1.0000 </r>
       <r>   -0.5278    1.0000 </r>
       <r>   -0.2417    1.0000 </r>
       <r>   -0.2023    1.0000 </r>
       <r>   -0.2023    1.0000 </r>
       <r>   -0.1612    1.0000 </r>
       <r>    0.1313    1.0000 </r>
       <r>    0.1313    1.0000 </r>
       <r>    0.2840    1.0000 </r>
       <r>    0.3580    1.0000 </r>
       <r>    0.3647    1.0000 </r>
       <r>    0.3717    1.0000 </r>
       <r>    0.4537    1.0000 </r>
       <r>    0.4537    1.0000 </r>
       <r>    0.5283    1.0000 </r>
       <r>    0.8528    1.0000 </r>
       <r>    0.8528    1.0000 </r>
       <r>    0.9478    1.0000 </r>
       <r>    0.9478    1.0000 </r>
       <r>    1.3115    1.0000 </r>
       <r>    1.4611    1.0000 </r>
       <r>    1.7107    1.0000 </r>
       <r>    1.8076    1.0000 </r>
       <r>    2.0258    1.0000 </r>
       <r>    2.0961    1.0000 </r>
       <r>    2.0961    1.0000 </r>
       <r>    2.1698    1.0000 </r>
       <r>    2.1698    1.0000 </r>
       <r>    2.2860    1.0000 </r>
       <r>    2.2860    1.0000 </r>
       <r>    2.3555    1.0000 </r>
       <r>    2.3697    1.0000 </r>
       <r>    2.5211    1.0000 </r>
       <r>    2.5685    1.0000 </r>
       <r>    2.6389    1.0000 </r>
       <r>    2.6546    1.0000 </r>
       <r>    2.6546    1.0000 </r>
       <r>    2.7847    1.0000 </r>
       <r>    2.7847    1.0000 </r>
       <r>    3.0374    1.0000 </r>
       <r>    3.0849    1.0000 </r>
       <r>    3.0849    1.0000 </r>
       <r>    3.1273    1.0000 </r>
       <r>    3.1275    1.0000 </r>
       <r>    3.1280    1.0000 </r>
       <r>    3.2060    1.0000 </r>
       <r>    3.2060    1.0000 </r>
       <r>    3.4268    1.0000 </r>
       <r>    3.4268    1.0000 </r>
       <r>    3.6741    1.0000 </r>
       <r>    3.9417    1.0000 </r>
       <r>    4.1652    1.0000 </r>
       <r>    4.2386    1.0000 </r>
       <r>    4.4228    1.0000 </r>
       <r>    4.7703    1.0000 </r>
       <r>    4.7703    1.0000 </r>
       <r>    4.8220    1.0000 </r>
       <r>    4.8220    1.0000 </r>
       <r>    4.9203    1.0000 </r>
[...]
       <r>   10.8059    0.0000 </r>
       <r>   10.8059    0.0000 </r>
       <r>   11.1020    0.0000 </r>
       <r>   11.1020    0.0000 </r>
       <r>   11.1021    0.0000 </r>
       <r>   11.1095    0.0000 </r>
       <r>   11.1097    0.0000 </r>
       <r>   11.1101    0.0000 </r>
       <r>   11.3516    0.0000 </r>
       <r>   11.3540    0.0000 </r>
       <r>   11.3746    0.0000 </r>
       <r>   11.4221    0.0000 </r>
       <r>   11.4302    0.0000 </r>
       <r>   11.4464    0.0000 </r>
      </set>
     </set>
    </set>
   </array>
  </eigenvalues>
  <separator name="orbital magnetization" >
   <v name="MAGDIPOLOUT">      0.00000000      0.00000000      0.00000000</v>
  </separator>
  <dos>
   <i name="efermi">      8.85002642 </i>
   <total>
    <array>
     <dimension dim="1">gridpoints</dimension>
     <dimension dim="2">spin</dimension>
     <field>energy</field>
     <field>total</field>
     <field>integrated</field>
     <set>
      <set comment="spin 1">
       <r>   -10.7235     0.0000     0.0000 </r>
       <r>   -10.6429     0.0000     0.0000 </r>
       <r>   -10.5623     0.0000     0.0000 </r>
       <r>   -10.4816     0.0000     0.0000 </r>
       <r>   -10.4010     0.0000     0.0000 </r>
       <r>   -10.3203     0.0000     0.0000 </r>
       <r>   -10.2397     0.0000     0.0000 </r>
       <r>   -10.1591     0.0000     0.0000 </r>
       <r>   -10.0784     0.0000     0.0000 </r>
       <r>    -9.9978     0.0000     0.0000 </r>
       <r>    -9.9171     0.0001     0.0000 </r>
       <r>    -9.8365     0.0035     0.0003 </r>
       <r>    -9.7558     0.0062     0.0008 </r>
       <r>    -9.6752    -0.0908    -0.0065 </r>
       <r>    -9.5946     0.6322     0.0445 </r>
       <r>    -9.5139     2.7643     0.2674 </r>
       <r>    -9.4333     4.3132     0.6152 </r>
       <r>    -9.3526     6.6111     1.1483 </r>
       <r>    -9.2720     5.9977     1.6320 </r>
       <r>    -9.1914    10.1201     2.4480 </r>
       <r>    -9.1107    10.9622     3.3320 </r>
       <r>    -9.0301    13.7613     4.4418 </r>
       <r>    -8.9494    21.2926     6.1588 </r>
       <r>    -8.8688    14.0750     7.2938 </r>
       <r>    -8.7882    18.3979     8.7774 </r>
       <r>    -8.7075    38.5037    11.8824 </r>
       <r>    -8.6269    32.0036    14.4631 </r>
       <r>    -8.5462    16.4694    15.7912 </r>
       <r>    -8.4656     3.1182    16.0427 </r>
       <r>    -8.3850    -0.6240    15.9924 </r>
       <r>    -8.3043    -1.2971    15.8878 </r>
       <r>    -8.2237    16.1717    17.1919 </r>
       <r>    -8.1430    40.4601    20.4546 </r>
       <r>    -8.0624    30.5060    22.9146 </r>
       <r>    -7.9818    13.8344    24.0302 </r>
       <r>    -7.9011     5.1247    24.4435 </r>
       <r>    -7.8205     3.2388    24.7046 </r>
       <r>    -7.7398     9.5432    25.4742 </r>
       <r>    -7.6592    16.2302    26.7830 </r>
       <r>    -7.5786     6.5285    27.3095 </r>
       <r>    -7.4979     7.5537    27.9186 </r>
       <r>    -7.4173    16.7452    29.2689 </r>
       <r>    -7.3366    10.5632    30.1208 </r>
       <r>    -7.2560     5.8913    30.5958 </r>
       <r>    -7.1754     6.7358    31.1390 </r>
       <r>    -7.0947     5.7555    31.6031 </r>
       <r>    -7.0141    -4.1048    31.2721 </r>
       <r>    -6.9334    29.4377    33.6460 </r>
       <r>    -6.8528   135.0871    44.5395 </r>
       <r>    -6.7722    50.4179    48.6052 </r>
       <r>    -6.6915    -8.0304    47.9576 </r>
       <r>    -6.6109     0.2995    47.9817 </r>
       <r>    -6.5302     0.2205    47.9995 </r>
       <r>    -6.4496     0.0059    48.0000 </r>
       <r>    -6.3690     0.0000    48.0000 </r>
       <r>    -6.2883     0.0000    48.0000 </r>
       <r>    -6.2077     0.0000    48.0000 </r>
       <r>    -6.1270     0.0000    48.0000 </r>
       <r>    -6.0464     0.0000    48.0000 </r>
       <r>    -5.9658     0.0000    48.0000 </r>
       <r>    -5.8851     0.0000    48.0000 </r>
       <r>    -5.8045     0.0000    48.0000 </r>
       <r>    -5.7238     0.0000    48.0000 </r>
       <r>    -5.6432     0.0000    48.0000 </r>
       <r>    -5.5626     0.0000    48.0000 </r>
       <r>    -5.4819     0.0000    48.0000 </r>
       <r>    -5.4013     0.0000    48.0000 </r>
       <r>    -5.3206     0.0000    48.0000 </r>
       <r>    -5.2400     0.0000    48.0000 </r>
       <r>    -5.1594     0.0000    48.0000 </r>
       <r>    -5.0787     0.0000    48.0000 </r>
       <r>    -4.9981     0.0000    48.0000 </r>
       <r>    -4.9174     0.0000    48.0000 </r>
       <r>    -4.8368     0.0000    48.0000 </r>
       <r>    -4.7562     0.0000    48.0000 </r>
       <r>    -4.6755     0.0000    48.0000 </r>
       <r>    -4.5949     0.0000    48.0000 </r>
       <r>    -4.5142     0.0000    48.0000 </r>
       <r>    -4.4336     0.0000    48.0000 </r>
       <r>    -4.3530     0.0000    48.0000 </r>
       <r>    -4.2723     0.0000    48.0000 </r>
       <r>    -4.1917     0.0000    48.0000 </r>
       <r>    -4.1110     0.0000    48.0000 </r>
       <r>    -4.0304     0.0000    48.0000 </r>
       <r>    -3.9497     0.0000    48.0000 </r>
       <r>    -3.8691     0.0000    48.0000 </r>
       <r>    -3.7885     0.0000    48.0000 </r>
       <r>    -3.7078     0.0000    48.0000 </r>
       <r>    -3.6272     0.0000    48.0000 </r>
       <r>    -3.5465     0.0000    48.0000 </r>
       <r>    -3.4659     0.0000    48.0000 </r>
       <r>    -3.3853     0.0000    48.0000 </r>
       <r>    -3.3046     0.0000    48.0000 </r>
       <r>    -3.2240     0.0000    48.0000 </r>
       <r>    -3.1433     0.0000    48.0000 </r>
       <r>    -3.0627     0.0000    48.0000 </r>
       <r>    -2.9821     0.0000    48.0000 </r>
       <r>    -2.9014     0.0000    48.0000 </r>
       <r>    -2.8208     0.0000    48.0000 </r>
       <r>    -2.7401     0.0000    48.0000 </r>
       <r>    -2.6595     0.0000    48.0000 </r>
       <r>    -2.5789     0.0000    48.0000 </r>
       <r>    -2.4982     0.0000    48.0000 </r>
       <r>    -2.4176     0.0000    48.0000 </r>
       <r>    -2.3369     0.0000    48.0000 </r>
       <r>    -2.2563     0.0000    48.0000 </r>
       <r>    -2.1757     0.0000    48.0000 </r>
       <r>    -2.0950     0.0000    48.0000 </r>
       <r>    -2.0144     0.0000    48.0000 </r>
       <r>    -1.9337     0.0000    48.0000 </r>
       <r>    -1.8531     0.0000    48.0000 </r>
       <r>    -1.7725     0.0000    48.0000 </r>
       <r>    -1.6918     0.0021    48.0002 </r>
       <r>    -1.6112     0.0410    48.0035 </r>
       <r>    -1.5305    -0.0764    47.9973 </r>
       <r>    -1.4499    -0.2804    47.9747 </r>
       <r>    -1.3693     6.4162    48.4921 </r>
       <r>    -1.2886    20.4607    50.1421 </r>
       <r>    -1.2080    34.6333    52.9349 </r>
       <r>    -1.1273    29.9206    55.3477 </r>
       <r>    -1.0467    44.0749    58.9019 </r>
       <r>    -0.9661    44.6671    62.5039 </r>
       <r>    -0.8854    32.4086    65.1173 </r>
       <r>    -0.8048    29.4993    67.4962 </r>
       <r>    -0.7241    26.5874    69.6402 </r>
       <r>    -0.6435    16.5522    70.9749 </r>
       <r>    -0.5629    17.2233    72.3638 </r>
       <r>    -0.4822    20.5781    74.0233 </r>
       <r>    -0.4016    20.7095    75.6933 </r>
       <r>    -0.3209    28.7190    78.0092 </r>
       <r>    -0.2403    17.7530    79.4408 </r>
       <r>    -0.1597    16.5383    80.7744 </r>
       <r>    -0.0790    23.8702    82.6993 </r>
       <r>     0.0016    14.8335    83.8955 </r>
       <r>     0.0823     6.9066    84.4525 </r>
       <r>     0.1629    17.7359    85.8827 </r>
       <r>     0.2435    34.2418    88.6440 </r>
       <r>     0.3242    38.7306    91.7672 </r>
       <r>     0.4048    28.9601    94.1026 </r>
       <r>     0.4855    18.0074    95.5547 </r>
       <r>     0.5661     8.9109    96.2733 </r>
       <r>     0.6467    19.4360    97.8406 </r>
       <r>     0.7274    22.7442    99.6747 </r>
       <r>     0.8080    21.0537   101.3724 </r>
       <r>     0.8887    21.1383   103.0770 </r>
       <r>     0.9693    11.4636   104.0015 </r>
       <r>     1.0499    12.8651   105.0389 </r>
       <r>     1.1306     7.9236   105.6779 </r>
       <r>     1.2112     4.3361   106.0275 </r>
       <r>     1.2919     8.2433   106.6923 </r>
       <r>     1.3725    11.7611   107.6407 </r>
       <r>     1.4531    17.1140   109.0208 </r>
       <r>     1.5338    17.2582   110.4125 </r>
       <r>     1.6144     5.5647   110.8612 </r>
       <r>     1.6951    11.8111   111.8137 </r>
       <r>     1.7757     7.4715   112.4162 </r>
       <r>     1.8563    21.2435   114.1292 </r>
       <r>     1.9370    42.1648   117.5294 </r>
       <r>     2.0176    22.5588   119.3486 </r>
       <r>     2.0983    19.4169   120.9144 </r>
       <r>     2.1789    30.5111   123.3748 </r>
       <r>     2.2596    40.4844   126.6394 </r>
       <r>     2.3402    42.4608   130.0635 </r>
       <r>     2.4208    31.8210   132.6295 </r>
       <r>     2.5015    27.4248   134.8411 </r>
       <r>     2.5821    45.7791   138.5327 </r>
       <r>     2.6628    31.1583   141.0453 </r>
       <r>     2.7434    32.1794   143.6403 </r>
       <r>     2.8240    20.9406   145.3290 </r>
       <r>     2.9047    25.0083   147.3456 </r>
       <r>     2.9853    21.5143   149.0805 </r>
       <r>     3.0660    33.2053   151.7582 </r>
       <r>     3.1466    55.4401   156.2289 </r>
       <r>     3.2272    41.9529   159.6120 </r>
       <r>     3.3079    23.4525   161.5032 </r>
       <r>     3.3885    23.1105   163.3669 </r>
       <r>     3.4692    27.4008   165.5765 </r>
       <r>     3.5498    14.7117   166.7628 </r>
       <r>     3.6304     7.1150   167.3366 </r>
       <r>     3.7111    19.2720   168.8907 </r>
       <r>     3.7917    13.9524   170.0158 </r>
       <r>     3.8724    12.9809   171.0626 </r>
       <r>     3.9530    13.5995   172.1593 </r>
       <r>     4.0336     9.1521   172.8973 </r>
       <r>     4.1143     8.5202   173.5844 </r>
       <r>     4.1949    13.1842   174.6476 </r>
       <r>     4.2756    16.9946   176.0180 </r>
       <r>     4.3562     5.9714   176.4995 </r>
       <r>     4.4368    11.3961   177.4185 </r>
       <r>     4.5175    17.0388   178.7925 </r>
       <r>     4.5981     8.4821   179.4765 </r>
       <r>     4.6788     4.7781   179.8618 </r>
       <r>     4.7594    18.2052   181.3299 </r>
       <r>     4.8400    23.6565   183.2376 </r>
       <r>     4.9207    22.9925   185.0917 </r>
       <r>     5.0013    35.3875   187.9454 </r>
       <r>     5.0820    20.5674   189.6039 </r>
       <r>     5.1626    17.5855   191.0220 </r>
       <r>     5.2432     6.9766   191.5846 </r>
       <r>     5.3239     4.3629   191.9364 </r>
       <r>     5.4045     0.8958   192.0087 </r>
       <r>     5.4852     2.3105   192.1950 </r>
       <r>     5.5658     5.5039   192.6388 </r>
       <r>     5.6464     2.3277   192.8266 </r>
       <r>     5.7271     0.2686   192.8482 </r>
       <r>     5.8077     1.8297   192.9958 </r>
       <r>     5.8884     9.1103   193.7304 </r>
       <r>     5.9690     6.2784   194.2367 </r>
       <r>     6.0496     6.8666   194.7904 </r>
       <r>     6.1303     7.7842   195.4182 </r>
       <r>     6.2109    10.5631   196.2700 </r>
       <r>     6.2916    11.2505   197.1772 </r>
       <r>     6.3722     1.3806   197.2885 </r>
       <r>     6.4528    10.6309   198.1458 </r>
       <r>     6.5335    14.3377   199.3020 </r>
       <r>     6.6141     9.2902   200.0512 </r>
       <r>     6.6948     7.7852   200.6790 </r>
       <r>     6.7754     8.9243   201.3986 </r>
       <r>     6.8560     8.1713   202.0576 </r>
       <r>     6.9367    14.3688   203.2163 </r>
       <r>     7.0173    22.7016   205.0470 </r>
       <r>     7.0980    25.8365   207.1304 </r>
       <r>     7.1786    19.4562   208.6994 </r>
       <r>     7.2592    18.2605   210.1719 </r>
       <r>     7.3399    17.8805   211.6138 </r>
       <r>     7.4205    27.4953   213.8310 </r>
       <r>     7.5012    21.0033   215.5247 </r>
       <r>     7.5818    24.6169   217.5098 </r>
       <r>     7.6624     9.0227   218.2374 </r>
       <r>     7.7431    20.3814   219.8810 </r>
       <r>     7.8237    33.2684   222.5638 </r>
       <r>     7.9044    33.1799   225.2394 </r>
       <r>     7.9850    14.4050   226.4010 </r>
       <r>     8.0657    22.0423   228.1785 </r>
       <r>     8.1463    22.8809   230.0236 </r>
       <r>     8.2269    33.3866   232.7160 </r>
       <r>     8.3076    26.6963   234.8688 </r>
       <r>     8.3882    19.1375   236.4120 </r>
       <r>     8.4689    20.4683   238.0626 </r>
       <r>     8.5495    24.6377   240.0494 </r>
       <r>     8.6301    24.3110   242.0098 </r>
       <r>     8.7108    34.9163   244.8255 </r>
       <r>     8.7914    30.6244   247.2950 </r>
       <r>     8.8721    10.0669   248.1068 </r>
       <r>     8.9527     6.4364   248.6258 </r>
       <r>     9.0333     4.7990   249.0128 </r>
       <r>     9.1140     7.1415   249.5887 </r>
       <r>     9.1946    12.1816   250.5711 </r>
       <r>     9.2753    12.2452   251.5585 </r>
       <r>     9.3559     9.0051   252.2847 </r>
       <r>     9.4365    21.3151   254.0035 </r>
       <r>     9.5172    22.9273   255.8524 </r>
       <r>     9.5978    16.3348   257.1696 </r>
       <r>     9.6785    23.3771   259.0548 </r>
       <r>     9.7591    23.0689   260.9151 </r>
       <r>     9.8397    14.8458   262.1122 </r>
       <r>     9.9204    28.2887   264.3934 </r>
       <r>    10.0010    25.1255   266.4196 </r>
       <r>    10.0817    10.9026   267.2988 </r>
       <r>    10.1623    24.4739   269.2723 </r>
       <r>    10.2429    40.2666   272.5194 </r>
       <r>    10.3236    40.1321   275.7557 </r>
       <r>    10.4042    37.2643   278.7607 </r>
       <r>    10.4849    29.5067   281.1401 </r>
       <r>    10.5655    24.4339   283.1105 </r>
       <r>    10.6461    23.6801   285.0201 </r>
       <r>    10.7268    34.1105   287.7708 </r>
       <r>    10.8074    32.4677   290.3890 </r>
       <r>    10.8881    34.2544   293.1512 </r>
       <r>    10.9687    31.2614   295.6722 </r>
       <r>    11.0493    13.0722   296.7263 </r>
       <r>    11.1300    17.2666   298.1187 </r>
       <r>    11.2106    15.6916   299.3841 </r>
       <r>    11.2913    11.3484   300.2992 </r>
       <r>    11.3719    21.9454   302.0689 </r>
       <r>    11.4525    33.7884   304.7936 </r>
       <r>    11.5332    17.7806   306.2275 </r>
       <r>    11.6138    16.7150   307.5754 </r>
       <r>    11.6945    15.4056   308.8177 </r>
       <r>    11.7751    11.8750   309.7753 </r>
       <r>    11.8557    12.1337   310.7537 </r>
       <r>    11.9364     6.4469   311.2736 </r>
       <r>    12.0170     2.1085   311.4436 </r>
       <r>    12.0977     1.9579   311.6015 </r>
       <r>    12.1783     3.1008   311.8516 </r>
       <r>    12.2589     1.1787   311.9466 </r>
       <r>    12.3396     0.0708   311.9523 </r>
       <r>    12.4202     0.5648   311.9979 </r>
       <r>    12.5009     0.0425   312.0013 </r>
       <r>    12.5815    -0.0197   311.9997 </r>
       <r>    12.6621     0.0031   312.0000 </r>
       <r>    12.7428     0.0002   312.0000 </r>
       <r>    12.8234     0.0000   312.0000 </r>
       <r>    12.9041     0.0000   312.0000 </r>
       <r>    12.9847     0.0000   312.0000 </r>
       <r>    13.0653     0.0000   312.0000 </r>
       <r>    13.1460     0.0000   312.0000 </r>
       <r>    13.2266     0.0000   312.0000 </r>
       <r>    13.3073     0.0000   312.0000 </r>
       <r>    13.3879     0.0000   312.0000 </r>
       <r>    13.4685     0.0000   312.0000 </r>
      </set>
     </set>
    </array>
   </total>
  </dos>
 </calculation>
 <structure name="finalpos" >
  <crystal>
   <varray name="basis" >
    <v>       8.74969736       0.00000000       0.00000000 </v>
    <v>       0.00000000       8.74969736       0.00000000 </v>
    <v>       0.00000000       0.00000000       8.74969736 </v>
   </varray>
   <i name="volume">    669.85236396 </i>
   <varray name="rec_basis" >
    <v>       0.11428967      -0.00000000       0.00000000 </v>
    <v>      -0.00000000       0.11428967       0.00000000 </v>
    <v>      -0.00000000      -0.00000000       0.11428967 </v>
   </varray>
  </crystal>
  <varray name="positions" >
   <v>       0.87500000       0.87500000       0.12500000 </v>
   <v>       0.37500000       0.12500000       0.37500000 </v>
   <v>       0.62500000       0.87500000       0.37500000 </v>
   <v>       0.12500000       0.12500000       0.12500000 </v>
   <v>       0.25000000       0.75000000       0.25000000 </v>
   <v>      -0.00000000      -0.00000000       0.50000000 </v>
   <v>       0.87500000       0.37500000       0.62500000 </v>
   <v>       0.37500000       0.62500000       0.87500000 </v>
   <v>       0.62500000       0.37500000       0.87500000 </v>
   <v>       0.12500000       0.62500000       0.62500000 </v>
   <v>       0.25000000       0.25000000       0.75000000 </v>
   <v>      -0.00000000       0.50000000       0.00000000 </v>
   <v>       0.37500000       0.87500000       0.62500000 </v>
   <v>       0.87500000       0.12500000       0.87500000 </v>
   <v>       0.12500000       0.87500000       0.87500000 </v>
   <v>       0.62500000       0.12500000       0.62500000 </v>
   <v>       0.75000000       0.75000000       0.75000000 </v>
   <v>       0.50000000      -0.00000000       0.00000000 </v>
   <v>       0.37500000       0.37500000       0.12500000 </v>
   <v>       0.87500000       0.62500000       0.37500000 </v>
   <v>       0.12500000       0.37500000       0.37500000 </v>
   <v>       0.62500000       0.62500000       0.12500000 </v>
   <v>       0.75000000       0.25000000       0.25000000 </v>
   <v>       0.50000000       0.50000000       0.50000000 </v>
   <v>       0.37596402       0.37596402       0.37596402 </v>
   <v>       0.87403598       0.12596402       0.12596402 </v>
   <v>       0.62596402       0.12596402       0.37403598 </v>
   <v>       0.12596402       0.87403598       0.12596402 </v>
   <v>       0.12403598       0.12403598       0.37596402 </v>
   <v>       0.12403598       0.37596402       0.12403598 </v>
   <v>       0.37403598       0.87403598       0.37403598 </v>
   <v>       0.37596402       0.12403598       0.12403598 </v>
   <v>       0.37596402       0.87596402       0.87596402 </v>
   <v>       0.87403598       0.62596402       0.62596402 </v>
   <v>       0.62596402       0.62596402       0.87403598 </v>
   <v>       0.12596402       0.37403598       0.62596402 </v>
   <v>       0.12403598       0.62403598       0.87596402 </v>
   <v>       0.12403598       0.87596402       0.62403598 </v>
   <v>       0.37403598       0.37403598       0.87403598 </v>
   <v>       0.37596402       0.62403598       0.62403598 </v>
   <v>       0.87596402       0.37596402       0.87596402 </v>
   <v>       0.37403598       0.12596402       0.62596402 </v>
   <v>       0.12596402       0.12596402       0.87403598 </v>
   <v>       0.62596402       0.87403598       0.62596402 </v>
   <v>       0.62403598       0.12403598       0.87596402 </v>
   <v>       0.62403598       0.37596402       0.62403598 </v>
   <v>       0.87403598       0.87403598       0.87403598 </v>
   <v>       0.87596402       0.12403598       0.62403598 </v>
   <v>       0.87596402       0.87596402       0.37596402 </v>
   <v>       0.37403598       0.62596402       0.12596402 </v>
   <v>       0.12596402       0.62596402       0.37403598 </v>
   <v>       0.62596402       0.37403598       0.12596402 </v>
   <v>       0.62403598       0.62403598       0.37596402 </v>
   <v>       0.62403598       0.87596402       0.12403598 </v>
   <v>       0.87403598       0.37403598       0.37403598 </v>
   <v>       0.87596402       0.62403598       0.12403598 </v>
  </varray>
 </structure>
</modeling>
