unknown system                          
           1
     8.749697    0.000000    0.000000
     0.000000    8.749697    0.000000
     0.000000    0.000000    8.749697
   Si   N 
  24  32
Direct configuration=     1
   0.87500000  0.87500000  0.12500000
   0.37500000  0.12500000  0.37500000
   0.62500000  0.87500000  0.37500000
   0.12500000  0.12500000  0.12500000
   0.25000000  0.75000000  0.25000000
   0.00000000  0.00000000  0.50000000
   0.87500000  0.37500000  0.62500000
   0.37500000  0.62500000  0.87500000
   0.62500000  0.37500000  0.87500000
   0.12500000  0.62500000  0.62500000
   0.25000000  0.25000000  0.75000000
   0.00000000  0.50000000  0.00000000
   0.37500000  0.87500000  0.62500000
   0.87500000  0.12500000  0.87500000
   0.12500000  0.87500000  0.87500000
   0.62500000  0.12500000  0.62500000
   0.75000000  0.75000000  0.75000000
   0.50000000  0.00000000  0.00000000
   0.37500000  0.37500000  0.12500000
   0.87500000  0.62500000  0.37500000
   0.12500000  0.37500000  0.37500000
   0.62500000  0.62500000  0.12500000
   0.75000000  0.25000000  0.25000000
   0.50000000  0.50000000  0.50000000
   0.37630293  0.37630293  0.37630293
   0.87369707  0.12630293  0.12630293
   0.62630293  0.12630293  0.37369707
   0.12630293  0.87369707  0.12630293
   0.12369707  0.12369707  0.37630293
   0.12369707  0.37630293  0.12369707
   0.37369707  0.87369707  0.37369707
   0.37630293  0.12369707  0.12369707
   0.37630293  0.87630293  0.87630293
   0.87369707  0.62630293  0.62630293
   0.62630293  0.62630293  0.87369707
   0.12630293  0.37369707  0.62630293
   0.12369707  0.62369707  0.87630293
   0.12369707  0.87630293  0.62369707
   0.37369707  0.37369707  0.87369707
   0.37630293  0.62369707  0.62369707
   0.87630293  0.37630293  0.87630293
   0.37369707  0.12630293  0.62630293
   0.12630293  0.12630293  0.87369707
   0.62630293  0.87369707  0.62630293
   0.62369707  0.12369707  0.87630293
   0.62369707  0.37630293  0.62369707
   0.87369707  0.87369707  0.87369707
   0.87630293  0.12369707  0.62369707
   0.87630293  0.87630293  0.37630293
   0.37369707  0.62630293  0.12630293
   0.12630293  0.62630293  0.37369707
   0.62630293  0.37369707  0.12630293
   0.62369707  0.62369707  0.37630293
   0.62369707  0.87630293  0.12369707
   0.87369707  0.37369707  0.37369707
   0.87630293  0.62369707  0.12369707
Direct configuration=     2
   0.87500000  0.87500000  0.12500000
   0.37500000  0.12500000  0.37500000
   0.62500000  0.87500000  0.37500000
   0.12500000  0.12500000  0.12500000
   0.25000000  0.75000000  0.25000000
  -0.00000000 -0.00000000  0.50000000
   0.87500000  0.37500000  0.62500000
   0.37500000  0.62500000  0.87500000
   0.62500000  0.37500000  0.87500000
   0.12500000  0.62500000  0.62500000
   0.25000000  0.25000000  0.75000000
  -0.00000000  0.50000000  0.00000000
   0.37500000  0.87500000  0.62500000
   0.87500000  0.12500000  0.87500000
   0.12500000  0.87500000  0.87500000
   0.62500000  0.12500000  0.62500000
   0.75000000  0.75000000  0.75000000
   0.50000000 -0.00000000  0.00000000
   0.37500000  0.37500000  0.12500000
   0.87500000  0.62500000  0.37500000
   0.12500000  0.37500000  0.37500000
   0.62500000  0.62500000  0.12500000
   0.75000000  0.25000000  0.25000000
   0.50000000  0.50000000  0.50000000
   0.37582756  0.37582756  0.37582756
   0.87417244  0.12582756  0.12582756
   0.62582756  0.12582756  0.37417244
   0.12582756  0.87417244  0.12582756
   0.12417244  0.12417244  0.37582756
   0.12417244  0.37582756  0.12417244
   0.37417244  0.87417244  0.37417244
   0.37582756  0.12417244  0.12417244
   0.37582756  0.87582756  0.87582756
   0.87417244  0.62582756  0.62582756
   0.62582756  0.62582756  0.87417244
   0.12582756  0.37417244  0.62582756
   0.12417244  0.62417244  0.87582756
   0.12417244  0.87582756  0.62417244
   0.37417244  0.37417244  0.87417244
   0.37582756  0.62417244  0.62417244
   0.87582756  0.37582756  0.87582756
   0.37417244  0.12582756  0.62582756
   0.12582756  0.12582756  0.87417244
   0.62582756  0.87417244  0.62582756
   0.62417244  0.12417244  0.87582756
   0.62417244  0.37582756  0.62417244
   0.87417244  0.87417244  0.87417244
   0.87582756  0.12417244  0.62417244
   0.87582756  0.87582756  0.37582756
   0.37417244  0.62582756  0.12582756
   0.12582756  0.62582756  0.37417244
   0.62582756  0.37417244  0.12582756
   0.62417244  0.62417244  0.37582756
   0.62417244  0.87582756  0.12417244
   0.87417244  0.37417244  0.37417244
   0.87582756  0.62417244  0.12417244
Direct configuration=     3
   0.87500000  0.87500000  0.12500000
   0.37500000  0.12500000  0.37500000
   0.62500000  0.87500000  0.37500000
   0.12500000  0.12500000  0.12500000
   0.25000000  0.75000000  0.25000000
  -0.00000000 -0.00000000  0.50000000
   0.87500000  0.37500000  0.62500000
   0.37500000  0.62500000  0.87500000
   0.62500000  0.37500000  0.87500000
   0.12500000  0.62500000  0.62500000
   0.25000000  0.25000000  0.75000000
  -0.00000000  0.50000000  0.00000000
   0.37500000  0.87500000  0.62500000
   0.87500000  0.12500000  0.87500000
   0.12500000  0.87500000  0.87500000
   0.62500000  0.12500000  0.62500000
   0.75000000  0.75000000  0.75000000
   0.50000000 -0.00000000  0.00000000
   0.37500000  0.37500000  0.12500000
   0.87500000  0.62500000  0.37500000
   0.12500000  0.37500000  0.37500000
   0.62500000  0.62500000  0.12500000
   0.75000000  0.25000000  0.25000000
   0.50000000  0.50000000  0.50000000
   0.37596402  0.37596402  0.37596402
   0.87403598  0.12596402  0.12596402
   0.62596402  0.12596402  0.37403598
   0.12596402  0.87403598  0.12596402
   0.12403598  0.12403598  0.37596402
   0.12403598  0.37596402  0.12403598
   0.37403598  0.87403598  0.37403598
   0.37596402  0.12403598  0.12403598
   0.37596402  0.87596402  0.87596402
   0.87403598  0.62596402  0.62596402
   0.62596402  0.62596402  0.87403598
   0.12596402  0.37403598  0.62596402
   0.12403598  0.62403598  0.87596402
   0.12403598  0.87596402  0.62403598
   0.37403598  0.37403598  0.87403598
   0.37596402  0.62403598  0.62403598
   0.87596402  0.37596402  0.87596402
   0.37403598  0.12596402  0.62596402
   0.12596402  0.12596402  0.87403598
   0.62596402  0.87403598  0.62596402
   0.62403598  0.12403598  0.87596402
   0.62403598  0.37596402  0.62403598
   0.87403598  0.87403598  0.87403598
   0.87596402  0.12403598  0.62403598
   0.87596402  0.87596402  0.37596402
   0.37403598  0.62596402  0.12596402
   0.12596402  0.62596402  0.37403598
   0.62596402  0.37403598  0.12596402
   0.62403598  0.62403598  0.37596402
   0.62403598  0.87596402  0.12403598
   0.87403598  0.37403598  0.37403598
   0.87596402  0.62403598  0.12403598
