  56  56   0   0
  0.1161662E+02  0.8664749E-09  0.8664749E-09  0.8664749E-09  0.5000000E-15
  1.000000000000000E-004
  CAR 
 unknown system                          
     14.02534671    -10.64970637  301      9.23951918      1.00000000
    -10.650  0.0000E+00  0.0000E+00
    -10.567  0.0000E+00  0.0000E+00
    -10.485  0.0000E+00  0.0000E+00
    -10.403  0.1012E-33  0.8322E-35
    -10.321  0.6758E-28  0.5558E-29
    -10.238  0.1125E-22  0.9257E-24
    -10.156  0.4648E-18  0.3823E-19
    -10.074  0.4728E-14  0.3889E-15
     -9.992  0.1168E-10  0.9610E-12
     -9.909  0.6926E-08  0.5706E-09
     -9.827  0.9631E-06  0.7978E-07
     -9.745  0.2853E-04  0.2426E-05
     -9.663  0.6591E-04  0.7848E-05
     -9.580 -0.8191E-03 -0.5952E-04
     -9.498  0.5802E-02  0.4177E-03
     -9.416  0.2680E-01  0.2622E-02
     -9.334  0.3842E-01  0.5782E-02
     -9.251  0.6486E-01  0.1112E-01
     -9.169  0.5149E-01  0.1535E-01
     -9.087  0.9278E-01  0.2298E-01
     -9.005  0.9887E-01  0.3112E-01
     -8.922  0.1134E+00  0.4044E-01
     -8.840  0.1759E+00  0.5491E-01
     -8.758  0.1745E+00  0.6926E-01
     -8.676  0.1127E+00  0.7853E-01
     -8.593  0.2855E+00  0.1020E+00
     -8.511  0.3573E+00  0.1314E+00
     -8.429  0.2335E+00  0.1506E+00
     -8.347  0.1097E+00  0.1596E+00
     -8.264  0.7242E-02  0.1602E+00
     -8.182 -0.1876E-01  0.1587E+00
     -8.100  0.1367E+00  0.1699E+00
     -8.018  0.3840E+00  0.2015E+00
     -7.935  0.2976E+00  0.2260E+00
     -7.853  0.1649E+00  0.2396E+00
     -7.771  0.5950E-01  0.2445E+00
     -7.689  0.2946E-01  0.2469E+00
     -7.606  0.8822E-01  0.2541E+00
     -7.524  0.1575E+00  0.2671E+00
     -7.442  0.6893E-01  0.2728E+00
     -7.360  0.6046E-01  0.2777E+00
     -7.277  0.1562E+00  0.2906E+00
     -7.195  0.1160E+00  0.3001E+00
     -7.113  0.5812E-01  0.3049E+00
     -7.031  0.6035E-01  0.3099E+00
     -6.948  0.6612E-01  0.3153E+00
     -6.866 -0.2428E-02  0.3151E+00
     -6.784  0.3577E-01  0.3181E+00
     -6.702  0.1051E+01  0.4045E+00
     -6.619  0.9606E+00  0.4835E+00
     -6.537 -0.3206E-01  0.4808E+00
     -6.455 -0.1482E-01  0.4796E+00
     -6.373  0.4338E-02  0.4800E+00
     -6.290  0.2041E-03  0.4800E+00
     -6.208  0.1554E-05  0.4800E+00
     -6.126  0.2562E-08  0.4800E+00
     -6.044  0.9936E-12  0.4800E+00
     -5.961  0.9157E-16  0.4800E+00
     -5.879  0.0000E+00  0.4800E+00
     -5.797  0.0000E+00  0.4800E+00
     -5.715  0.0000E+00  0.4800E+00
     -5.632  0.0000E+00  0.4800E+00
     -5.550  0.0000E+00  0.4800E+00
     -5.468  0.0000E+00  0.4800E+00
     -5.386  0.0000E+00  0.4800E+00
     -5.303  0.0000E+00  0.4800E+00
     -5.221  0.0000E+00  0.4800E+00
     -5.139  0.0000E+00  0.4800E+00
     -5.057  0.0000E+00  0.4800E+00
     -4.974  0.0000E+00  0.4800E+00
     -4.892  0.0000E+00  0.4800E+00
     -4.810  0.0000E+00  0.4800E+00
     -4.728  0.0000E+00  0.4800E+00
     -4.645  0.0000E+00  0.4800E+00
     -4.563  0.0000E+00  0.4800E+00
     -4.481  0.0000E+00  0.4800E+00
     -4.399  0.0000E+00  0.4800E+00
     -4.316  0.0000E+00  0.4800E+00
     -4.234  0.0000E+00  0.4800E+00
     -4.152  0.0000E+00  0.4800E+00
     -4.070  0.0000E+00  0.4800E+00
     -3.987  0.0000E+00  0.4800E+00
     -3.905  0.0000E+00  0.4800E+00
     -3.823  0.0000E+00  0.4800E+00
     -3.741  0.0000E+00  0.4800E+00
     -3.658  0.0000E+00  0.4800E+00
     -3.576  0.0000E+00  0.4800E+00
     -3.494  0.0000E+00  0.4800E+00
     -3.412  0.0000E+00  0.4800E+00
     -3.329  0.0000E+00  0.4800E+00
     -3.247  0.0000E+00  0.4800E+00
     -3.165  0.0000E+00  0.4800E+00
     -3.083  0.0000E+00  0.4800E+00
     -3.000  0.0000E+00  0.4800E+00
     -2.918  0.0000E+00  0.4800E+00
     -2.836  0.0000E+00  0.4800E+00
     -2.754  0.0000E+00  0.4800E+00
     -2.671  0.0000E+00  0.4800E+00
     -2.589  0.0000E+00  0.4800E+00
     -2.507  0.0000E+00  0.4800E+00
     -2.425  0.0000E+00  0.4800E+00
     -2.342  0.0000E+00  0.4800E+00
     -2.260  0.0000E+00  0.4800E+00
     -2.178  0.0000E+00  0.4800E+00
     -2.096  0.6836E-33  0.4800E+00
     -2.013  0.5478E-27  0.4800E+00
     -1.931  0.1003E-21  0.4800E+00
     -1.849  0.4607E-17  0.4800E+00
     -1.767  0.5265E-13  0.4800E+00
     -1.684  0.1469E-09  0.4800E+00
     -1.602  0.9692E-07  0.4800E+00
     -1.520  0.1402E-04  0.4800E+00
     -1.438  0.3475E-03  0.4800E+00
     -1.355 -0.4864E-03  0.4800E+00
     -1.273 -0.3319E-02  0.4797E+00
     -1.191  0.6235E-01  0.4848E+00
     -1.109  0.1936E+00  0.5008E+00
     -1.026  0.3454E+00  0.5292E+00
     -0.944  0.2983E+00  0.5537E+00
     -0.862  0.4320E+00  0.5892E+00
     -0.780  0.4240E+00  0.6241E+00
     -0.697  0.3291E+00  0.6512E+00
     -0.615  0.2874E+00  0.6748E+00
     -0.533  0.2640E+00  0.6965E+00
     -0.451  0.1783E+00  0.7112E+00
     -0.368  0.1476E+00  0.7233E+00
     -0.286  0.2213E+00  0.7415E+00
     -0.204  0.1976E+00  0.7578E+00
     -0.122  0.2797E+00  0.7808E+00
     -0.039  0.1849E+00  0.7960E+00
      0.043  0.1489E+00  0.8083E+00
      0.125  0.2236E+00  0.8267E+00
      0.207  0.1430E+00  0.8384E+00
      0.290  0.6416E-01  0.8437E+00
      0.372  0.1579E+00  0.8567E+00
      0.454  0.2900E+00  0.8805E+00
      0.536  0.3594E+00  0.9101E+00
      0.619  0.2997E+00  0.9348E+00
      0.701  0.2256E+00  0.9533E+00
      0.783  0.1140E+00  0.9627E+00
      0.865  0.1908E+00  0.9784E+00
      0.948  0.2084E+00  0.9955E+00
      1.030  0.2010E+00  0.1012E+01
      1.112  0.2038E+00  0.1029E+01
      1.194  0.1321E+00  0.1040E+01
      1.277  0.1383E+00  0.1051E+01
      1.359  0.7909E-01  0.1058E+01
      1.441  0.4915E-01  0.1062E+01
      1.523  0.7102E-01  0.1067E+01
      1.606  0.1192E+00  0.1077E+01
      1.688  0.2143E+00  0.1095E+01
      1.770  0.1415E+00  0.1107E+01
      1.852  0.6072E-01  0.1112E+01
      1.935  0.1193E+00  0.1121E+01
      2.017  0.1005E+00  0.1130E+01
      2.099  0.3857E+00  0.1161E+01
      2.181  0.2999E+00  0.1186E+01
      2.264  0.1967E+00  0.1202E+01
      2.346  0.2589E+00  0.1223E+01
      2.428  0.3540E+00  0.1253E+01
      2.510  0.4122E+00  0.1286E+01
      2.593  0.3874E+00  0.1318E+01
      2.675  0.2141E+00  0.1336E+01
      2.757  0.4086E+00  0.1370E+01
      2.839  0.3721E+00  0.1400E+01
      2.922  0.2967E+00  0.1425E+01
      3.004  0.2787E+00  0.1447E+01
      3.086  0.1985E+00  0.1464E+01
      3.168  0.2634E+00  0.1485E+01
      3.251  0.2087E+00  0.1503E+01
      3.333  0.5060E+00  0.1544E+01
      3.415  0.4759E+00  0.1583E+01
      3.497  0.2951E+00  0.1608E+01
      3.580  0.2032E+00  0.1624E+01
      3.662  0.2807E+00  0.1647E+01
      3.744  0.2038E+00  0.1664E+01
      3.826  0.6228E-01  0.1669E+01
      3.909  0.1478E+00  0.1682E+01
      3.991  0.1577E+00  0.1694E+01
      4.073  0.1180E+00  0.1704E+01
      4.155  0.1581E+00  0.1717E+01
      4.238  0.1199E+00  0.1727E+01
      4.320  0.7630E-01  0.1733E+01
      4.402  0.8411E-01  0.1740E+01
      4.484  0.1773E+00  0.1755E+01
      4.567  0.1090E+00  0.1764E+01
      4.649  0.7839E-01  0.1770E+01
      4.731  0.1682E+00  0.1784E+01
      4.813  0.1124E+00  0.1793E+01
      4.896  0.4140E-01  0.1797E+01
      4.978  0.1207E+00  0.1807E+01
      5.060  0.2506E+00  0.1827E+01
      5.142  0.1955E+00  0.1843E+01
      5.225  0.3392E+00  0.1871E+01
      5.307  0.2464E+00  0.1892E+01
      5.389  0.1796E+00  0.1906E+01
      5.471  0.1006E+00  0.1915E+01
      5.554  0.4629E-01  0.1918E+01
      5.636  0.2175E-01  0.1920E+01
      5.718  0.3267E-02  0.1920E+01
      5.800  0.4411E-02  0.1921E+01
      5.883  0.2999E-01  0.1923E+01
      5.965  0.5442E-01  0.1928E+01
      6.047  0.1028E-01  0.1929E+01
      6.129  0.5239E-02  0.1929E+01
      6.212  0.2747E-01  0.1931E+01
      6.294  0.9846E-01  0.1939E+01
      6.376  0.5147E-01  0.1944E+01
      6.458  0.8871E-01  0.1951E+01
      6.541  0.6991E-01  0.1957E+01
      6.623  0.1240E+00  0.1967E+01
      6.705  0.6689E-01  0.1972E+01
      6.787  0.3765E-01  0.1975E+01
      6.870  0.1336E+00  0.1986E+01
      6.952  0.1204E+00  0.1996E+01
      7.034  0.8687E-01  0.2003E+01
      7.116  0.9527E-01  0.2011E+01
      7.199  0.5741E-01  0.2016E+01
      7.281  0.1122E+00  0.2025E+01
      7.363  0.1844E+00  0.2040E+01
      7.445  0.2444E+00  0.2061E+01
      7.528  0.1814E+00  0.2075E+01
      7.610  0.1984E+00  0.2092E+01
      7.692  0.1367E+00  0.2103E+01
      7.774  0.2576E+00  0.2124E+01
      7.857  0.2759E+00  0.2147E+01
      7.939  0.2282E+00  0.2166E+01
      8.021  0.1475E+00  0.2178E+01
      8.103  0.2188E+00  0.2196E+01
      8.186  0.2853E+00  0.2219E+01
      8.268  0.2514E+00  0.2240E+01
      8.350  0.2434E+00  0.2260E+01
      8.432  0.2125E+00  0.2277E+01
      8.515  0.1642E+00  0.2291E+01
      8.597  0.2496E+00  0.2311E+01
      8.679  0.2994E+00  0.2336E+01
      8.761  0.2822E+00  0.2359E+01
      8.844  0.1608E+00  0.2373E+01
      8.926  0.2445E+00  0.2393E+01
      9.008  0.2047E+00  0.2410E+01
      9.090  0.3083E+00  0.2435E+01
      9.173  0.4127E+00  0.2469E+01
      9.255  0.1435E+00  0.2481E+01
      9.337  0.3569E-01  0.2484E+01
      9.419  0.6477E-01  0.2489E+01
      9.502  0.5980E-01  0.2494E+01
      9.584  0.9821E-01  0.2502E+01
      9.666  0.1547E+00  0.2515E+01
      9.748  0.6926E-01  0.2520E+01
      9.831  0.1018E+00  0.2529E+01
      9.913  0.2572E+00  0.2550E+01
      9.995  0.2270E+00  0.2568E+01
     10.077  0.2535E+00  0.2589E+01
     10.160  0.2363E+00  0.2609E+01
     10.242  0.1350E+00  0.2620E+01
     10.324  0.2417E+00  0.2640E+01
     10.406  0.2162E+00  0.2658E+01
     10.489  0.2005E+00  0.2674E+01
     10.571  0.2615E+00  0.2696E+01
     10.653  0.3362E+00  0.2723E+01
     10.735  0.3316E+00  0.2750E+01
     10.818  0.3979E+00  0.2783E+01
     10.900  0.3190E+00  0.2809E+01
     10.982  0.2486E+00  0.2830E+01
     11.064  0.2021E+00  0.2847E+01
     11.147  0.2729E+00  0.2869E+01
     11.229  0.3729E+00  0.2900E+01
     11.311  0.3811E+00  0.2931E+01
     11.393  0.2677E+00  0.2953E+01
     11.476  0.1323E+00  0.2964E+01
     11.558  0.1707E+00  0.2978E+01
     11.640  0.1923E+00  0.2994E+01
     11.722  0.1047E+00  0.3002E+01
     11.805  0.2139E+00  0.3020E+01
     11.887  0.3358E+00  0.3048E+01
     11.969  0.1326E+00  0.3058E+01
     12.051  0.1437E+00  0.3070E+01
     12.134  0.2200E+00  0.3088E+01
     12.216  0.8662E-01  0.3096E+01
     12.298  0.1101E+00  0.3105E+01
     12.380  0.6920E-01  0.3110E+01
     12.463  0.3559E-01  0.3113E+01
     12.545  0.1369E-01  0.3114E+01
     12.627  0.1850E-01  0.3116E+01
     12.709  0.3888E-01  0.3119E+01
     12.792  0.9268E-02  0.3120E+01
     12.874 -0.7919E-03  0.3120E+01
     12.956  0.3025E-02  0.3120E+01
     13.038  0.2634E-03  0.3120E+01
     13.121 -0.1001E-03  0.3120E+01
     13.203  0.1549E-04  0.3120E+01
     13.285  0.1075E-05  0.3120E+01
     13.367  0.9687E-08  0.3120E+01
     13.450  0.1763E-10  0.3120E+01
     13.532  0.7254E-14  0.3120E+01
     13.614  0.6479E-18  0.3120E+01
     13.696  0.0000E+00  0.3120E+01
     13.779  0.0000E+00  0.3120E+01
     13.861  0.0000E+00  0.3120E+01
     13.943  0.0000E+00  0.3120E+01
     14.025  0.0000E+00  0.3120E+01
