   56   56  100    1
  0.1161662E+02  0.8664749E-09  0.8664749E-09  0.8664749E-09  0.5000000E-15
  1.000000000000000E-004
  CAR 
 unknown system                          
    248     10    156
 
  0.3742002E-15  0.3742002E-15  0.3742002E-15  0.8000000E-02
    1       -9.528113   1.000000
    2       -8.682696   1.000000
    3       -8.682696   1.000000
    4       -8.682696   1.000000
    5       -8.682696   1.000000
    6       -8.682696   1.000000
    7       -8.682696   1.000000
    8       -8.348757   1.000000
    9       -7.837953   1.000000
   10       -7.806803   1.000000
   11       -7.806803   1.000000
   12       -7.806803   1.000000
   13       -7.806803   1.000000
   14       -7.806803   1.000000
   15       -7.806803   1.000000
   16       -6.774134   1.000000
   17       -6.774134   1.000000
   18       -6.774134   1.000000
   19       -6.774134   1.000000
   20       -6.774134   1.000000
   21       -6.774134   1.000000
   22       -6.660773   1.000000
   23       -6.660773   1.000000
   24       -6.660773   1.000000
   25       -1.205887   1.000000
   26       -1.205887   1.000000
   27       -1.205887   1.000000
   28       -0.975949   1.000000
   29       -0.815682   1.000000
   30       -0.815682   1.000000
   31       -0.815682   1.000000
   32       -0.815682   1.000000
   33       -0.815682   1.000000
   34       -0.815682   1.000000
   35       -0.008249   1.000000
   36       -0.008249   1.000000
   37       -0.008249   1.000000
   38       -0.008249   1.000000
   39       -0.008249   1.000000
   40       -0.008249   1.000000
   41        0.377803   1.000000
   42        0.377803   1.000000
   43        0.377803   1.000000
   44        0.640157   1.000000
   45        0.640157   1.000000
   46        0.640157   1.000000
   47        0.640157   1.000000
   48        0.640157   1.000000
   49        0.640157   1.000000
   50        1.032498   1.000000
   51        1.032498   1.000000
   52        1.032498   1.000000
   53        1.032498   1.000000
   54        1.032498   1.000000
   55        1.032498   1.000000
   56        1.277323   1.000000
   57        1.277323   1.000000
   58        2.600978   1.000000
   59        2.600978   1.000000
   60        2.600978   1.000000
   61        2.600978   1.000000
   62        2.600978   1.000000
   63        2.600978   1.000000
   64        2.674646   1.000000
   65        2.674646   1.000000
   66        2.674646   1.000000
   67        2.674646   1.000000
   68        2.674646   1.000000
   69        2.674646   1.000000
   70        2.704849   1.000000
   71        2.704849   1.000000
   72        2.704849   1.000000
   73        2.704849   1.000000
   74        2.704849   1.000000
   75        2.704849   1.000000
   76        2.877012   1.000000
   77        2.877012   1.000000
   78        2.877012   1.000000
   79        3.292233   1.000000
   80        3.292233   1.000000
   81        3.292233   1.000000
   82        3.292233   1.000000
   83        3.292233   1.000000
   84        3.292233   1.000000
   85        4.521154   1.000000
   86        4.521154   1.000000
   87        4.521154   1.000000
   88        4.566043   1.000000
   89        5.167925   1.000000
   90        5.167925   1.000000
   91        5.167925   1.000000
   92        5.167925   1.000000
   93        5.167925   1.000000
   94        5.167925   1.000000
   95        5.621008   1.000000
   96        5.621008   1.000000
   97        5.621008   1.000000
   98        7.259195   1.000000
   99        7.259195   1.000000
  100        7.259195   1.000000
  101        7.585023   1.000000
  102        7.585023   1.000000
  103        7.585023   1.000000
  104        7.585023   1.000000
  105        7.585023   1.000000
  106        7.585023   1.000000
  107        8.283562   1.000000
  108        8.283562   1.000000
  109        8.283562   1.000000
  110        8.283562   1.000000
  111        8.283562   1.000000
  112        8.283562   1.000000
  113        8.309894   1.000000
  114        8.309894   1.000000
  115        8.309894   1.000000
  116        8.309894   1.000000
  117        8.309894   1.000000
  118        8.309894   1.000000
  119        8.595994   1.000000
  120        8.595994   1.000000
  121        8.595994   1.000000
  122        8.723295   1.000000
  123        8.723295   1.000000
  124        8.723295   1.000000
  125        8.723295   1.000000
  126        8.723295   1.000000
  127        8.723295   1.000000
  128       10.260038   0.000000
  129       10.547903   0.000000
  130       10.547903   0.000000
  131       10.547903   0.000000
  132       10.547903   0.000000
  133       10.547903   0.000000
  134       10.547903   0.000000
  135       10.690968   0.000000
  136       10.690969   0.000000
  137       10.690969   0.000000
  138       10.690969   0.000000
  139       10.690969   0.000000
  140       10.690969   0.000000
  141       10.720559   0.000000
  142       10.720559   0.000000
  143       10.806197   0.000000
  144       10.806197   0.000000
  145       10.806197   0.000000
  146       10.806197   0.000000
  147       10.806197   0.000000
  148       10.806198   0.000000
  149       11.235462   0.000000
  150       11.613826   0.000000
  151       11.613827   0.000000
  152       11.613827   0.000000
  153       12.630179   0.000000
  154       12.631789   0.000000
  155       12.898810   0.000000
  156       12.903753   0.000000
 
  0.2000000E+00  0.3742002E-15  0.3742002E-15  0.4800000E-01
    1       -9.482107   1.000000
    2       -8.898750   1.000000
    3       -8.672715   1.000000
    4       -8.672715   1.000000
    5       -8.672715   1.000000
    6       -8.672715   1.000000
    7       -8.542657   1.000000
    8       -8.362656   1.000000
    9       -7.926762   1.000000
   10       -7.856172   1.000000
   11       -7.836337   1.000000
   12       -7.836337   1.000000
   13       -7.836337   1.000000
   14       -7.836337   1.000000
   15       -7.553738   1.000000
   16       -6.763480   1.000000
   17       -6.763480   1.000000
   18       -6.749155   1.000000
   19       -6.749155   1.000000
   20       -6.749155   1.000000
   21       -6.749155   1.000000
   22       -6.732847   1.000000
   23       -6.672085   1.000000
   24       -6.672085   1.000000
   25       -1.189102   1.000000
   26       -1.189102   1.000000
   27       -1.092908   1.000000
   28       -0.882155   1.000000
   29       -0.879211   1.000000
   30       -0.879211   1.000000
   31       -0.774707   1.000000
   32       -0.774707   1.000000
   33       -0.774707   1.000000
   34       -0.774707   1.000000
   35       -0.252572   1.000000
   36       -0.129138   1.000000
   37       -0.129138   1.000000
   38       -0.129138   1.000000
   39       -0.129138   1.000000
   40        0.068572   1.000000
   41        0.092761   1.000000
   42        0.302434   1.000000
   43        0.482304   1.000000
   44        0.482304   1.000000
   45        0.623640   1.000000
   46        0.623640   1.000000
   47        0.623640   1.000000
   48        0.623640   1.000000
   49        0.823558   1.000000
   50        1.070466   1.000000
   51        1.070466   1.000000
   52        1.106758   1.000000
   53        1.106758   1.000000
   54        1.106758   1.000000
   55        1.106758   1.000000
   56        1.333715   1.000000
   57        1.724512   1.000000
   58        2.150118   1.000000
   59        2.296614   1.000000
   60        2.296614   1.000000
   61        2.296614   1.000000
   62        2.296614   1.000000
   63        2.540758   1.000000
   64        2.540758   1.000000
   65        2.562301   1.000000
   66        2.724249   1.000000
   67        2.724249   1.000000
   68        2.724249   1.000000
   69        2.724249   1.000000
   70        2.818800   1.000000
   71        2.818800   1.000000
   72        2.877707   1.000000
   73        2.911999   1.000000
   74        3.097989   1.000000
   75        3.097989   1.000000
   76        3.097989   1.000000
   77        3.097989   1.000000
   78        3.104617   1.000000
   79        3.324713   1.000000
   80        3.324713   1.000000
   81        3.324713   1.000000
   82        3.324713   1.000000
   83        3.468850   1.000000
   84        3.468850   1.000000
   85        4.341815   1.000000
   86        4.341815   1.000000
   87        4.399074   1.000000
   88        4.548584   1.000000
   89        5.003704   1.000000
   90        5.003704   1.000000
   91        5.003704   1.000000
   92        5.003704   1.000000
   93        5.192846   1.000000
   94        5.192846   1.000000
   95        5.529073   1.000000
   96        5.529073   1.000000
   97        5.741218   1.000000
   98        7.067166   1.000000
   99        7.316472   1.000000
  100        7.433858   1.000000
  101        7.584110   1.000000
  102        7.584110   1.000000
  103        7.584110   1.000000
  104        7.584110   1.000000
  105        7.608203   1.000000
  106        7.608203   1.000000
  107        7.914198   1.000000
  108        7.914198   1.000000
  109        7.914198   1.000000
  110        7.914198   1.000000
  111        8.017432   1.000000
  112        8.106671   1.000000
  113        8.237833   1.000000
  114        8.237833   1.000000
  115        8.400784   1.000000
  116        8.400784   1.000000
  117        8.400784   1.000000
  118        8.400784   1.000000
  119        8.578213   1.000000
  120        8.578213   1.000000
  121        8.962331   0.999203
  122        8.962331   0.999203
  123        9.075274   1.002426
  124        9.144396   1.051606
  125        9.144396   1.051606
  126        9.144396   1.051606
  127        9.144396   1.051606
  128       10.135838   0.000000
  129       10.135838   0.000000
  130       10.135838   0.000000
  131       10.135838   0.000000
  132       10.414322   0.000000
  133       10.483640   0.000000
  134       10.534249   0.000000
  135       10.534249   0.000000
  136       10.558535   0.000000
  137       10.680063   0.000000
  138       10.726531   0.000000
  139       10.752655   0.000000
  140       10.800136   0.000000
  141       10.800136   0.000000
  142       10.800136   0.000000
  143       10.800138   0.000000
  144       11.112286   0.000000
  145       11.112286   0.000000
  146       11.112286   0.000000
  147       11.112287   0.000000
  148       11.323561   0.000000
  149       11.520470   0.000000
  150       11.557210   0.000000
  151       11.557210   0.000000
  152       11.663811   0.000000
  153       12.106393   0.000000
  154       12.677216   0.000000
  155       12.680041   0.000000
  156       12.697020   0.000000
 
  0.4000000E+00  0.3742002E-15  0.3742002E-15  0.4800000E-01
    1       -9.347978   1.000000
    2       -9.141606   1.000000
    3       -8.655518   1.000000
    4       -8.655518   1.000000
    5       -8.655518   1.000000
    6       -8.655518   1.000000
    7       -8.458865   1.000000
    8       -8.400998   1.000000
    9       -7.938155   1.000000
   10       -7.899553   1.000000
   11       -7.883056   1.000000
   12       -7.883056   1.000000
   13       -7.883056   1.000000
   14       -7.883056   1.000000
   15       -7.233000   1.000000
   16       -6.936491   1.000000
   17       -6.735695   1.000000
   18       -6.735695   1.000000
   19       -6.710872   1.000000
   20       -6.710872   1.000000
   21       -6.710872   1.000000
   22       -6.710872   1.000000
   23       -6.700780   1.000000
   24       -6.700780   1.000000
   25       -1.126265   1.000000
   26       -1.126265   1.000000
   27       -1.011176   1.000000
   28       -1.011176   1.000000
   29       -0.773395   1.000000
   30       -0.666585   1.000000
   31       -0.666585   1.000000
   32       -0.666585   1.000000
   33       -0.666585   1.000000
   34       -0.617273   1.000000
   35       -0.375068   1.000000
   36       -0.348366   1.000000
   37       -0.348366   1.000000
   38       -0.348366   1.000000
   39       -0.348366   1.000000
   40       -0.319519   1.000000
   41       -0.212338   1.000000
   42       -0.148308   1.000000
   43        0.600918   1.000000
   44        0.600918   1.000000
   45        0.600918   1.000000
   46        0.600918   1.000000
   47        0.745300   1.000000
   48        0.745300   1.000000
   49        1.010239   1.000000
   50        1.010239   1.000000
   51        1.222179   1.000000
   52        1.222179   1.000000
   53        1.222179   1.000000
   54        1.222179   1.000000
   55        1.304731   1.000000
   56        1.502808   1.000000
   57        1.778482   1.000000
   58        1.939920   1.000000
   59        2.037773   1.000000
   60        2.037773   1.000000
   61        2.037773   1.000000
   62        2.037773   1.000000
   63        2.445979   1.000000
   64        2.467179   1.000000
   65        2.467179   1.000000
   66        2.645430   1.000000
   67        2.645430   1.000000
   68        2.928084   1.000000
   69        2.941394   1.000000
   70        2.941394   1.000000
   71        2.941394   1.000000
   72        2.941394   1.000000
   73        3.239662   1.000000
   74        3.239662   1.000000
   75        3.239662   1.000000
   76        3.239662   1.000000
   77        3.511411   1.000000
   78        3.542246   1.000000
   79        3.542246   1.000000
   80        3.542246   1.000000
   81        3.542246   1.000000
   82        3.616438   1.000000
   83        3.729270   1.000000
   84        3.729270   1.000000
   85        4.010700   1.000000
   86        4.010700   1.000000
   87        4.073660   1.000000
   88        4.152162   1.000000
   89        4.690474   1.000000
   90        4.690474   1.000000
   91        4.690474   1.000000
   92        4.690474   1.000000
   93        5.271661   1.000000
   94        5.271661   1.000000
   95        5.390241   1.000000
   96        5.390241   1.000000
   97        6.247591   1.000000
   98        6.811489   1.000000
   99        6.894328   1.000000
  100        7.248177   1.000000
  101        7.407214   1.000000
  102        7.407214   1.000000
  103        7.407214   1.000000
  104        7.407214   1.000000
  105        7.531812   1.000000
  106        7.763887   1.000000
  107        7.905920   1.000000
  108        7.905920   1.000000
  109        7.905920   1.000000
  110        7.905920   1.000000
  111        8.165350   1.000000
  112        8.165350   1.000000
  113        8.237316   1.000000
  114        8.237316   1.000000
  115        8.386015   1.000000
  116        8.386015   1.000000
  117        8.386015   1.000000
  118        8.386015   1.000000
  119        8.685012   1.000000
  120        8.685012   1.000000
  121        9.126524   1.043811
  122        9.126524   1.043811
  123        9.449278   0.004775
  124        9.449278   0.004775
  125        9.449278   0.004775
  126        9.449278   0.004775
  127        9.912911   0.000000
  128        9.956286   0.000000
  129        9.956286   0.000000
  130        9.956286   0.000000
  131        9.956286   0.000000
  132       10.467106   0.000000
  133       10.467106   0.000000
  134       10.476910   0.000000
  135       10.509859   0.000000
  136       10.573862   0.000000
  137       10.591563   0.000000
  138       10.679994   0.000000
  139       10.860773   0.000000
  140       10.860774   0.000000
  141       10.860774   0.000000
  142       10.860775   0.000000
  143       11.036317   0.000000
  144       11.093368   0.000000
  145       11.093369   0.000000
  146       11.382791   0.000000
  147       11.382792   0.000000
  148       11.382792   0.000000
  149       11.382793   0.000000
  150       11.494950   0.000000
  151       11.512142   0.000000
  152       11.710523   0.000000
  153       12.380430   0.000000
  154       12.393458   0.000000
  155       12.487366   0.000000
  156       12.497963   0.000000
 
  0.2000000E+00  0.2000000E+00  0.3742002E-15  0.9600000E-01
    1       -9.436700   1.000000
    2       -8.871349   1.000000
    3       -8.871349   1.000000
    4       -8.689309   1.000000
    5       -8.646894   1.000000
    6       -8.548476   1.000000
    7       -8.548476   1.000000
    8       -8.376675   1.000000
    9       -7.972106   1.000000
   10       -7.962429   1.000000
   11       -7.962429   1.000000
   12       -7.877564   1.000000
   13       -7.725621   1.000000
   14       -7.581429   1.000000
   15       -7.581429   1.000000
   16       -6.810879   1.000000
   17       -6.759317   1.000000
   18       -6.743293   1.000000
   19       -6.743293   1.000000
   20       -6.738132   1.000000
   21       -6.738132   1.000000
   22       -6.706648   1.000000
   23       -6.677507   1.000000
   24       -6.667553   1.000000
   25       -1.217501   1.000000
   26       -1.079294   1.000000
   27       -1.077910   1.000000
   28       -0.888787   1.000000
   29       -0.888787   1.000000
   30       -0.819633   1.000000
   31       -0.800069   1.000000
   32       -0.800069   1.000000
   33       -0.740701   1.000000
   34       -0.630752   1.000000
   35       -0.445890   1.000000
   36       -0.346331   1.000000
   37       -0.346331   1.000000
   38       -0.060706   1.000000
   39       -0.007419   1.000000
   40       -0.007419   1.000000
   41        0.035193   1.000000
   42        0.342872   1.000000
   43        0.342872   1.000000
   44        0.479837   1.000000
   45        0.586572   1.000000
   46        0.593936   1.000000
   47        0.609430   1.000000
   48        0.701225   1.000000
   49        0.701225   1.000000
   50        0.760065   1.000000
   51        1.088471   1.000000
   52        1.088471   1.000000
   53        1.196540   1.000000
   54        1.196540   1.000000
   55        1.553682   1.000000
   56        1.628810   1.000000
   57        1.887493   1.000000
   58        1.998215   1.000000
   59        2.252617   1.000000
   60        2.286048   1.000000
   61        2.286048   1.000000
   62        2.354810   1.000000
   63        2.354810   1.000000
   64        2.485758   1.000000
   65        2.485758   1.000000
   66        2.563976   1.000000
   67        2.568125   1.000000
   68        2.713419   1.000000
   69        2.782943   1.000000
   70        2.853262   1.000000
   71        2.868102   1.000000
   72        2.868102   1.000000
   73        2.997003   1.000000
   74        2.997003   1.000000
   75        3.241112   1.000000
   76        3.287137   1.000000
   77        3.287137   1.000000
   78        3.342799   1.000000
   79        3.346802   1.000000
   80        3.349628   1.000000
   81        3.428355   1.000000
   82        3.428355   1.000000
   83        3.654244   1.000000
   84        3.654244   1.000000
   85        3.940524   1.000000
   86        4.183865   1.000000
   87        4.471549   1.000000
   88        4.480936   1.000000
   89        4.658225   1.000000
   90        5.015703   1.000000
   91        5.015703   1.000000
   92        5.065654   1.000000
   93        5.065654   1.000000
   94        5.165794   1.000000
   95        5.415318   1.000000
   96        5.543058   1.000000
   97        5.901493   1.000000
   98        7.117507   1.000000
   99        7.117507   1.000000
  100        7.260642   1.000000
  101        7.429880   1.000000
  102        7.438878   1.000000
  103        7.438878   1.000000
  104        7.531859   1.000000
  105        7.601618   1.000000
  106        7.601618   1.000000
  107        7.716169   1.000000
  108        7.788768   1.000000
  109        7.904909   1.000000
  110        7.906714   1.000000
  111        7.997391   1.000000
  112        8.121190   1.000000
  113        8.121190   1.000000
  114        8.361828   1.000000
  115        8.408817   1.000000
  116        8.580636   1.000000
  117        8.763870   1.000000
  118        8.763870   1.000000
  119        8.839328   0.999999
  120        8.849101   0.999998
  121        8.849101   0.999998
  122        8.869638   0.999994
  123        8.869638   0.999994
  124        9.101188   1.020459
  125        9.421729   0.003313
  126        9.509862   0.001039
  127        9.509862   0.001039
  128        9.607239   0.000007
  129        9.963152   0.000000
  130        9.963152   0.000000
  131       10.247000   0.000000
  132       10.247000   0.000000
  133       10.290051   0.000000
  134       10.574643   0.000000
  135       10.591510   0.000000
  136       10.591511   0.000000
  137       10.666210   0.000000
  138       10.784416   0.000000
  139       10.810079   0.000000
  140       10.810080   0.000000
  141       10.828752   0.000000
  142       10.997209   0.000000
  143       11.063889   0.000000
  144       11.063890   0.000000
  145       11.203647   0.000000
  146       11.229560   0.000000
  147       11.420093   0.000000
  148       11.442176   0.000000
  149       11.495585   0.000000
  150       11.495586   0.000000
  151       11.508418   0.000000
  152       11.865732   0.000000
  153       12.016624   0.000000
  154       12.187982   0.000000
  155       12.240732   0.000000
  156       12.624167   0.000000
 
  0.4000000E+00  0.2000000E+00  0.3742002E-15  0.1920000E+00
    1       -9.304970   1.000000
    2       -9.103829   1.000000
    3       -8.801527   1.000000
    4       -8.727795   1.000000
    5       -8.607351   1.000000
    6       -8.569738   1.000000
    7       -8.471643   1.000000
    8       -8.415199   1.000000
    9       -8.050257   1.000000
   10       -8.030140   1.000000
   11       -7.973190   1.000000
   12       -7.928263   1.000000
   13       -7.670392   1.000000
   14       -7.631295   1.000000
   15       -7.273494   1.000000
   16       -6.999396   1.000000
   17       -6.732554   1.000000
   18       -6.720273   1.000000
   19       -6.719373   1.000000
   20       -6.716456   1.000000
   21       -6.693534   1.000000
   22       -6.693278   1.000000
   23       -6.688416   1.000000
   24       -6.678274   1.000000
   25       -1.187146   1.000000
   26       -1.057482   1.000000
   27       -1.023024   1.000000
   28       -0.916784   1.000000
   29       -0.875500   1.000000
   30       -0.808156   1.000000
   31       -0.767249   1.000000
   32       -0.643306   1.000000
   33       -0.567194   1.000000
   34       -0.536675   1.000000
   35       -0.457910   1.000000
   36       -0.448927   1.000000
   37       -0.414414   1.000000
   38       -0.328306   1.000000
   39       -0.309033   1.000000
   40       -0.215335   1.000000
   41       -0.186255   1.000000
   42       -0.043701   1.000000
   43        0.427590   1.000000
   44        0.443562   1.000000
   45        0.516526   1.000000
   46        0.550664   1.000000
   47        0.693377   1.000000
   48        0.832425   1.000000
   49        0.914196   1.000000
   50        0.961342   1.000000
   51        1.056597   1.000000
   52        1.213475   1.000000
   53        1.279653   1.000000
   54        1.341318   1.000000
   55        1.451893   1.000000
   56        1.715019   1.000000
   57        1.848918   1.000000
   58        2.081108   1.000000
   59        2.082481   1.000000
   60        2.089232   1.000000
   61        2.252105   1.000000
   62        2.268285   1.000000
   63        2.389044   1.000000
   64        2.501892   1.000000
   65        2.512953   1.000000
   66        2.662774   1.000000
   67        2.705014   1.000000
   68        2.718211   1.000000
   69        2.790908   1.000000
   70        2.888182   1.000000
   71        2.954580   1.000000
   72        2.958007   1.000000
   73        3.124769   1.000000
   74        3.213455   1.000000
   75        3.267168   1.000000
   76        3.288442   1.000000
   77        3.384554   1.000000
   78        3.403799   1.000000
   79        3.424019   1.000000
   80        3.449047   1.000000
   81        3.622945   1.000000
   82        3.667280   1.000000
   83        3.686049   1.000000
   84        3.873612   1.000000
   85        3.909732   1.000000
   86        4.064096   1.000000
   87        4.129285   1.000000
   88        4.372167   1.000000
   89        4.472122   1.000000
   90        4.672952   1.000000
   91        4.880396   1.000000
   92        5.025926   1.000000
   93        5.101554   1.000000
   94        5.197634   1.000000
   95        5.241136   1.000000
   96        5.389065   1.000000
   97        6.410865   1.000000
   98        6.774147   1.000000
   99        6.844304   1.000000
  100        6.861640   1.000000
  101        6.998039   1.000000
  102        7.124095   1.000000
  103        7.493048   1.000000
  104        7.545803   1.000000
  105        7.642967   1.000000
  106        7.687340   1.000000
  107        7.800655   1.000000
  108        7.817355   1.000000
  109        7.841465   1.000000
  110        8.069231   1.000000
  111        8.097020   1.000000
  112        8.144382   1.000000
  113        8.320517   1.000000
  114        8.431638   1.000000
  115        8.511038   1.000000
  116        8.546014   1.000000
  117        8.650785   1.000000
  118        8.744687   1.000000
  119        8.746488   1.000000
  120        8.775104   1.000000
  121        9.098360   1.017969
  122        9.127294   1.044411
  123        9.130520   1.046739
  124        9.130950   1.047023
  125        9.600264   0.000011
  126        9.843314   0.000000
  127        9.913745   0.000000
  128        9.925538   0.000000
  129        9.978265   0.000000
  130       10.019004   0.000000
  131       10.109932   0.000000
  132       10.110347   0.000000
  133       10.332013   0.000000
  134       10.525627   0.000000
  135       10.567510   0.000000
  136       10.601022   0.000000
  137       10.630908   0.000000
  138       10.676454   0.000000
  139       10.790193   0.000000
  140       10.815353   0.000000
  141       10.900750   0.000000
  142       10.903643   0.000000
  143       10.905129   0.000000
  144       11.141990   0.000000
  145       11.291539   0.000000
  146       11.303905   0.000000
  147       11.312540   0.000000
  148       11.342505   0.000000
  149       11.600879   0.000000
  150       11.624970   0.000000
  151       11.771353   0.000000
  152       11.864503   0.000000
  153       11.950209   0.000000
  154       12.031886   0.000000
  155       12.235848   0.000000
  156       12.260342   0.000000
 
  0.4000000E+00  0.4000000E+00  0.3742002E-15  0.9600000E-01
    1       -9.181532   1.000000
    2       -8.998259   1.000000
    3       -8.998259   1.000000
    4       -8.854106   1.000000
    5       -8.557025   1.000000
    6       -8.507336   1.000000
    7       -8.507336   1.000000
    8       -8.453765   1.000000
    9       -8.098159   1.000000
   10       -8.048358   1.000000
   11       -8.048358   1.000000
   12       -7.993863   1.000000
   13       -7.491666   1.000000
   14       -7.365304   1.000000
   15       -7.365304   1.000000
   16       -7.149115   1.000000
   17       -6.724405   1.000000
   18       -6.709020   1.000000
   19       -6.709020   1.000000
   20       -6.689240   1.000000
   21       -6.681658   1.000000
   22       -6.680529   1.000000
   23       -6.680529   1.000000
   24       -6.663571   1.000000
   25       -1.200606   1.000000
   26       -1.076039   1.000000
   27       -1.076039   1.000000
   28       -0.952251   1.000000
   29       -0.764201   1.000000
   30       -0.750807   1.000000
   31       -0.706206   1.000000
   32       -0.647394   1.000000
   33       -0.647394   1.000000
   34       -0.630916   1.000000
   35       -0.630916   1.000000
   36       -0.528802   1.000000
   37       -0.370699   1.000000
   38       -0.312996   1.000000
   39       -0.312996   1.000000
   40       -0.125646   1.000000
   41       -0.117049   1.000000
   42        0.094659   1.000000
   43        0.196117   1.000000
   44        0.196117   1.000000
   45        0.424796   1.000000
   46        0.534014   1.000000
   47        0.534014   1.000000
   48        0.809787   1.000000
   49        0.874087   1.000000
   50        1.036328   1.000000
   51        1.036328   1.000000
   52        1.240930   1.000000
   53        1.456264   1.000000
   54        1.474199   1.000000
   55        1.570192   1.000000
   56        1.570192   1.000000
   57        2.128240   1.000000
   58        2.155628   1.000000
   59        2.155628   1.000000
   60        2.314653   1.000000
   61        2.413080   1.000000
   62        2.459677   1.000000
   63        2.459677   1.000000
   64        2.660023   1.000000
   65        2.694325   1.000000
   66        2.729189   1.000000
   67        2.729189   1.000000
   68        2.734866   1.000000
   69        2.752002   1.000000
   70        2.777603   1.000000
   71        2.780522   1.000000
   72        2.780522   1.000000
   73        3.045172   1.000000
   74        3.085975   1.000000
   75        3.085975   1.000000
   76        3.115282   1.000000
   77        3.281393   1.000000
   78        3.352542   1.000000
   79        3.352542   1.000000
   80        3.576630   1.000000
   81        3.591064   1.000000
   82        3.703609   1.000000
   83        3.703609   1.000000
   84        3.927674   1.000000
   85        4.033598   1.000000
   86        4.167931   1.000000
   87        4.167931   1.000000
   88        4.316809   1.000000
   89        4.544164   1.000000
   90        4.789461   1.000000
   91        4.789461   1.000000
   92        4.988289   1.000000
   93        5.163809   1.000000
   94        5.163809   1.000000
   95        5.202327   1.000000
   96        5.357149   1.000000
   97        6.423089   1.000000
   98        6.490720   1.000000
   99        6.490720   1.000000
  100        6.684263   1.000000
  101        6.824548   1.000000
  102        7.285559   1.000000
  103        7.285559   1.000000
  104        7.506020   1.000000
  105        7.647315   1.000000
  106        7.791326   1.000000
  107        7.791326   1.000000
  108        7.895762   1.000000
  109        7.916715   1.000000
  110        7.916715   1.000000
  111        8.104139   1.000000