       N       E                     dE             d eps       ncg     rms          rms(c)
DAV:   1     0.867112944794E+03    0.86711E+03   -0.97921E+04  3120   0.116E+03
DAV:   2    -0.246931673551E+03   -0.11140E+04   -0.10671E+04  3884   0.236E+02
DAV:   3    -0.353176267755E+03   -0.10624E+03   -0.10215E+03  3936   0.693E+01
DAV:   4    -0.357001716244E+03   -0.38254E+01   -0.37082E+01  3968   0.123E+01
DAV:   5    -0.357121310708E+03   -0.11959E+00   -0.11861E+00  3880   0.193E+00    0.355E+01
RMM:   6    -0.331566023567E+03    0.25555E+02   -0.15490E+02  3124   0.206E+01    0.161E+01
RMM:   7    -0.330783183285E+03    0.78284E+00   -0.42764E+00  3306   0.312E+00    0.927E+00
RMM:   8    -0.330690488728E+03    0.92695E-01   -0.30152E+00  3120   0.348E+00    0.240E+00
RMM:   9    -0.330492775686E+03    0.19771E+00   -0.36267E-01  3150   0.102E+00    0.747E-01
RMM:  10    -0.330489881394E+03    0.28943E-02   -0.98880E-02  3355   0.444E-01    0.269E-01
RMM:  11    -0.330491034889E+03   -0.11535E-02   -0.45765E-03  3294   0.121E-01    0.944E-02
RMM:  12    -0.330490977748E+03    0.57141E-04   -0.33039E-03  3349   0.799E-02    0.530E-02
RMM:  13    -0.330490907530E+03    0.70218E-04   -0.16984E-04  1956   0.225E-02
   1 F= -.33049091E+03 E0= -.33049551E+03  d E =-.330491E+03
       N       E                     dE             d eps       ncg     rms          rms(c)
DAV:   1    -0.330493578156E+03   -0.26004E-02   -0.19778E-01  3732   0.117E+00    0.192E-01
RMM:   2    -0.330496000889E+03   -0.24227E-02   -0.32393E-02  3171   0.400E-01    0.217E-01
RMM:   3    -0.330495685886E+03    0.31500E-03   -0.19157E-03  3163   0.652E-02    0.181E-01
RMM:   4    -0.330495564839E+03    0.12105E-03   -0.19389E-03  3123   0.753E-02    0.704E-02
RMM:   5    -0.330495484994E+03    0.79846E-04   -0.19784E-04  1919   0.261E-02
   2 F= -.33049548E+03 E0= -.33049971E+03  d E =-.457746E-02
       N       E                     dE             d eps       ncg     rms          rms(c)
DAV:   1    -0.330497042804E+03   -0.14780E-02   -0.22671E-02  3368   0.389E-01    0.698E-02
RMM:   2    -0.330497206995E+03   -0.16419E-03   -0.35167E-03  3174   0.126E-01    0.752E-02
RMM:   3    -0.330497144318E+03    0.62677E-04   -0.15154E-04  1841   0.240E-02
   3 F= -.33049714E+03 E0= -.33050150E+03  d E =-.623679E-02
