 vasp.5.4.4.18Apr17-6-g9f103f2a35 (build Nov 01 2019 12:17:22) complex          
  
 executed on             LinuxIFC date 2023.05.19  18:21:55
 running on   16 total cores
 distrk:  each k-point on   16 cores,    1 groups
 distr:  one band on NCORES_PER_BAND=   4 cores,    4 groups


--------------------------------------------------------------------------------------------------------


 INCAR:
 POTCAR:    PAW_PBE N 08Apr2002                   
 POTCAR:    PAW_PBE Si 05Jan2001                  
 POTCAR:    PAW_PBE N 08Apr2002                   
   VRHFIN =N: s2p3                                                              
   LEXCH  = PE                                                                  
   EATOM  =   264.5486 eV,   19.4438 Ry                                         
                                                                                
   TITEL  = PAW_PBE N 08Apr2002                                                 
   LULTRA =        F    use ultrasoft PP ?                                      
   IUNSCR =        1    unscreen: 0-lin 1-nonlin 2-no                           
   RPACOR =    1.200    partial core radius                                     
   POMASS =   14.001; ZVAL   =    5.000    mass and valenz                      
   RCORE  =    1.500    outmost cutoff radius                                   
   RWIGS  =    1.400; RWIGS  =    0.741    wigner-seitz radius (au A)           
   ENMAX  =  400.000; ENMIN  =  300.000 eV                                      
   ICORE  =        2    local potential                                         
   LCOR   =        T    correct aug charges                                     
   LPAW   =        T    paw PP                                                  
   EAUG   =  627.112                                                            
   DEXC   =    0.000                                                            
   RMAX   =    1.529    core radius for proj-oper                               
   RAUG   =    1.300    factor for augmentation sphere                          
   RDEP   =    1.514    radius for radial grids                                 
   RDEPT  =    1.338    core radius for aug-charge                              
                                                                                
   Atomic configuration                                                         
    4 entries                                                                   
     n  l   j            E        occ.                                          
     1  0  0.50      -384.7179   2.0000                                         
     2  0  0.50       -18.5828   2.0000                                         
     2  1  0.50        -7.0898   3.0000                                         
     3  2  1.50        -6.8029   0.0000                                         
   Description                                                                  
     l       E           TYP  RCUT    TYP  RCUT                                 
     0    -18.5828119     23  1.200                                             
     0    -13.5018863     23  1.200                                             
     1     -7.0897853     23  1.500                                             
     1      9.5240782     23  1.500                                             
     2     -6.8029130      7  1.500                                             
  local pseudopotential read in
  partial core-charges read in
  partial kinetic energy density read in
  atomic valenz-charges read in
  non local Contribution for L=           0  read in
    real space projection operators read in
  non local Contribution for L=           0  read in
    real space projection operators read in
  non local Contribution for L=           1  read in
    real space projection operators read in
  non local Contribution for L=           1  read in
    real space projection operators read in
    PAW grid and wavefunctions read in
 
   number of l-projection  operators is LMAX  =           4
   number of lm-projection operators is LMMAX =           8
 
 POTCAR:    PAW_PBE Si 05Jan2001                  
   VRHFIN =Si: s2p2                                                             
   LEXCH  = PE                                                                  
   EATOM  =   103.0669 eV,    7.5752 Ry                                         
                                                                                
   TITEL  = PAW_PBE Si 05Jan2001                                                
   LULTRA =        F    use ultrasoft PP ?                                      
   IUNSCR =        1    unscreen: 0-lin 1-nonlin 2-no                           
   RPACOR =    1.500    partial core radius                                     
   POMASS =   28.085; ZVAL   =    4.000    mass and valenz                      
   RCORE  =    1.900    outmost cutoff radius                                   
   RWIGS  =    2.480; RWIGS  =    1.312    wigner-seitz radius (au A)           
   ENMAX  =  245.345; ENMIN  =  184.009 eV                                      
   ICORE  =        2    local potential                                         
   LCOR   =        T    correct aug charges                                     
   LPAW   =        T    paw PP                                                  
   EAUG   =  322.069                                                            
   DEXC   =    0.000                                                            
   RMAX   =    1.950    core radius for proj-oper                               
   RAUG   =    1.300    factor for augmentation sphere                          
   RDEP   =    1.993    radius for radial grids                                 
   RDEPT  =    1.837    core radius for aug-charge                              
                                                                                
   Atomic configuration                                                         
    6 entries                                                                   
     n  l   j            E        occ.                                          
     1  0  0.50     -1785.8828   2.0000                                         
     2  0  0.50      -139.4969   2.0000                                         
     2  1  1.50       -95.5546   6.0000                                         
     3  0  0.50       -10.8127   2.0000                                         
     3  1  0.50        -4.0811   2.0000                                         
     3  2  1.50        -4.0817   0.0000                                         
   Description                                                                  
     l       E           TYP  RCUT    TYP  RCUT                                 
     0    -10.8127223     23  1.900                                             
     0     -7.6451159     23  1.900                                             
     1     -4.0811372     23  1.900                                             
     1      2.4879257     23  1.900                                             
     2     -4.0817478      7  1.900                                             
  local pseudopotential read in
  partial core-charges read in
  partial kinetic energy density read in
  atomic valenz-charges read in
  non local Contribution for L=           0  read in
    real space projection operators read in
  non local Contribution for L=           0  read in
    real space projection operators read in
  non local Contribution for L=           1  read in
    real space projection operators read in
  non local Contribution for L=           1  read in
    real space projection operators read in
    PAW grid and wavefunctions read in
 
   number of l-projection  operators is LMAX  =           4
   number of lm-projection operators is LMMAX =           8
 
 Optimization of the real space projectors (new method)

 maximal supplied QI-value         = 25.13
 optimisation between [QCUT,QGAM] = [ 10.05, 20.36] = [ 28.30,116.06] Ry 
 Optimized for a Real-space Cutoff    1.70 Angstroem

   l    n(q)    QCUT    max X(q) W(low)/X(q) W(high)/X(q)  e(spline) 
   0     10    10.053    79.467    0.61E-04    0.98E-04    0.61E-06
   0     10    10.053    66.151    0.60E-04    0.98E-04    0.61E-06
   1     10    10.053     8.350    0.17E-03    0.71E-03    0.45E-05
   1     10    10.053     5.531    0.18E-03    0.77E-03    0.49E-05
 Optimization of the real space projectors (new method)

 maximal supplied QI-value         = 19.84
 optimisation between [QCUT,QGAM] = [ 10.12, 20.44] = [ 28.68,116.96] Ry 
 Optimized for a Real-space Cutoff    1.38 Angstroem

   l    n(q)    QCUT    max X(q) W(low)/X(q) W(high)/X(q)  e(spline) 
   0      8    10.119   159.560    0.58E-04    0.11E-03    0.54E-07
   0      8    10.119   115.863    0.56E-04    0.11E-03    0.54E-07
   1      8    10.119    88.339    0.22E-03    0.17E-03    0.19E-06
   1      8    10.119    48.592    0.22E-03    0.17E-03    0.18E-06
  PAW_PBE N 08Apr2002                   :
 energy of atom  1       EATOM= -264.5486
 kinetic energy error for atom=    0.0736 (will be added to EATOM!!)
  PAW_PBE Si 05Jan2001                  :
 energy of atom  2       EATOM= -103.0669
 kinetic energy error for atom=    0.0012 (will be added to EATOM!!)
 
 
 POSCAR: Si24 N32                                
  positions in direct lattice
  No initial velocities read in
 exchange correlation table for  LEXCH =        8
   RHO(1)=    0.500       N(1)  =     2000
   RHO(2)=  100.500       N(2)  =     4000
 


--------------------------------------------------------------------------------------------------------


 ion  position               nearest neighbor table
   1  0.875  0.875  0.125-  26 2.18  28 2.18  47 2.18  49 2.18  54 2.18  56 2.18
   2  0.375  0.125  0.375-  25 2.18  27 2.18  29 2.18  31 2.18  32 2.18  42 2.18
   3  0.625  0.875  0.375-  27 2.18  31 2.18  44 2.18  49 2.18  53 2.18  54 2.18
   4  0.125  0.125  0.125-  26 2.18  28 2.18  29 2.18  30 2.18  32 2.18  43 2.18
   5  0.250  0.750  0.250-  28 1.86  50 1.86  51 1.86  31 1.86
   6  0.000  0.000  0.500-  29 1.86  38 1.86  48 1.86  49 1.86
   7  0.875  0.375  0.625-  34 2.18  36 2.18  41 2.18  46 2.18  48 2.18  55 2.18
   8  0.375  0.625  0.875-  33 2.18  35 2.18  37 2.18  39 2.18  40 2.18  50 2.18
   9  0.625  0.375  0.875-  35 2.18  39 2.18  41 2.18  45 2.18  46 2.18  52 2.18
  10  0.125  0.625  0.625-  34 2.18  36 2.18  37 2.18  38 2.18  40 2.18  51 2.18
  11  0.250  0.250  0.750-  36 1.86  42 1.86  43 1.86  39 1.86
  12  0.000  0.500  0.000-  30 1.86  37 1.86  56 1.86  41 1.86
  13  0.375  0.875  0.625-  31 2.18  33 2.18  38 2.18  40 2.18  42 2.18  44 2.18
  14  0.875  0.125  0.875-  26 2.18  41 2.18  43 2.18  45 2.18  47 2.18  48 2.18
  15  0.125  0.875  0.875-  28 2.18  33 2.18  37 2.18  38 2.18  43 2.18  47 2.18
  16  0.625  0.125  0.625-  27 2.18  42 2.18  44 2.18  45 2.18  46 2.18  48 2.18
  17  0.750  0.750  0.750-  34 1.86  35 1.86  44 1.86  47 1.86
  18  0.500  0.000  0.000-  32 1.86  45 1.86  54 1.86  33 1.86
  19  0.375  0.375  0.125-  25 2.18  30 2.18  32 2.18  39 2.18  50 2.18  52 2.18
  20  0.875  0.625  0.375-  34 2.18  49 2.18  51 2.18  53 2.18  55 2.18  56 2.18
  21  0.125  0.375  0.375-  25 2.18  29 2.18  30 2.18  36 2.18  51 2.18  55 2.18
  22  0.625  0.625  0.125-  35 2.18  50 2.18  52 2.18  53 2.18  54 2.18  56 2.18
  23  0.750  0.250  0.250-  26 1.86  27 1.86  52 1.86  55 1.86
  24  0.500  0.500  0.500-  40 1.86  46 1.86  53 1.86  25 1.86
  25  0.376  0.376  0.376-  24 1.86  19 2.18  21 2.18   2 2.18  40 3.03  46 3.03  53 3.03  51 3.06
                            27 3.06  50 3.06  42 3.06  52 3.06  36 3.06  30 3.10  32 3.10  29 3.10
  26  0.874  0.126  0.126-  23 1.86   4 2.18  14 2.18   1 2.18  52 3.03  27 3.03  55 3.03  41 3.06
                            45 3.06  49 3.06  29 3.06  54 3.06  30 3.06  28 3.10  43 3.10  47 3.10
  27  0.626  0.126  0.374-  23 1.86   3 2.18  16 2.18   2 2.18  26 3.03  52 3.03  55 3.03  25 3.06
                            49 3.06  32 3.06  46 3.06  54 3.06  48 3.06  42 3.10  44 3.10  31 3.10
  28  0.126  0.874  0.126-   5 1.86   4 2.18   1 2.18  15 2.18  50 3.03  31 3.03  51 3.03  33 3.06
                            37 3.06  49 3.06  29 3.06  32 3.06  56 3.06  26 3.10  43 3.10  47 3.10
  29  0.124  0.124  0.376-   6 1.86   4 2.18   2 2.18  21 2.18  38 3.03  48 3.03  49 3.03  31 3.06
                            55 3.06  42 3.06  26 3.06  36 3.06  28 3.06  30 3.10  32 3.10  25 3.10
  30  0.124  0.376  0.124-  12 1.86   4 2.18  19 2.18  21 2.18  56 3.03  41 3.03  37 3.03  26 3.06
                            43 3.06  50 3.06  51 3.06  55 3.06  39 3.06  32 3.10  29 3.10  25 3.10
  31  0.374  0.874  0.374-   5 1.86   3 2.18   2 2.18  13 2.18  28 3.03  50 3.03  51 3.03  29 3.06
                            53 3.06  32 3.06  38 3.06  40 3.06  54 3.06  42 3.10  44 3.10  27 3.10
  32  0.376  0.124  0.124-  18 1.86   4 2.18   2 2.18  19 2.18  54 3.03  45 3.03  33 3.03  27 3.06
                            39 3.06  43 3.06  28 3.06  52 3.06  31 3.06  30 3.10  25 3.10  29 3.10
  33  0.376  0.876  0.876-  18 1.86  13 2.18  15 2.18   8 2.18  32 3.03  45 3.03  54 3.03  35 3.06
                            43 3.06  44 3.06  42 3.06  50 3.06  28 3.06  38 3.10  40 3.10  37 3.10
  34  0.874  0.626  0.626-  17 1.86  10 2.18   7 2.18  20 2.18  44 3.03  35 3.03  47 3.03  41 3.06
                            37 3.06  46 3.06  38 3.06  49 3.06  53 3.06  36 3.10  51 3.10  55 3.10
  35  0.626  0.626  0.874-  17 1.86   9 2.18   8 2.18  22 2.18  34 3.03  44 3.03  47 3.03  33 3.06
                            41 3.06  46 3.06  40 3.06  54 3.06  56 3.06  50 3.10  52 3.10  39 3.10
  36  0.126  0.374  0.626-  11 1.86  10 2.18   7 2.18  21 2.18  42 3.03  39 3.03  43 3.03  25 3.06
                            40 3.06  41 3.06  29 3.06  37 3.06  48 3.06  34 3.10  51 3.10  55 3.10
  37  0.124  0.624  0.876-  12 1.86  10 2.18   8 2.18  15 2.18  30 3.03  41 3.03  56 3.03  47 3.06
                            39 3.06  34 3.06  36 3.06  50 3.06  28 3.06  38 3.10  40 3.10  33 3.10
  38  0.124  0.876  0.624-   6 1.86  10 2.18  13 2.18  15 2.18  48 3.03  29 3.03  49 3.03  42 3.06
                            43 3.06  47 3.06  31 3.06  34 3.06  51 3.06  40 3.10  37 3.10  33 3.10
  39  0.374  0.374  0.874-  11 1.86   9 2.18   8 2.18  19 2.18  36 3.03  42 3.03  43 3.03  37 3.06
                            45 3.06  30 3.06  32 3.06  40 3.06  46 3.06  50 3.10  52 3.10  35 3.10
  40  0.376  0.624  0.624-  24 1.86  10 2.18  13 2.18   8 2.18  46 3.03  25 3.03  53 3.03  36 3.06
                            39 3.06  44 3.06  31 3.06  51 3.06  35 3.06  38 3.10  33 3.10  37 3.10
  41  0.876  0.376  0.876-  12 1.86   9 2.18   7 2.18  14 2.18  30 3.03  37 3.03  56 3.03  43 3.06
                            35 3.06  34 3.06  26 3.06  52 3.06  36 3.06  46 3.10  48 3.10  45 3.10
  42  0.374  0.126  0.626-  11 1.86   2 2.18  13 2.18  16 2.18  36 3.03  39 3.03  43 3.03  25 3.06
                            38 3.06  29 3.06  33 3.06  45 3.06  46 3.06  44 3.10  27 3.10  31 3.10
  43  0.126  0.126  0.874-  11 1.86   4 2.18  14 2.18  15 2.18  36 3.03  39 3.03  42 3.03  41 3.06
                            33 3.06  30 3.06  32 3.06  38 3.06  48 3.06  28 3.10  26 3.10  47 3.10
  44  0.626  0.874  0.626-  17 1.86  13 2.18  16 2.18   3 2.18  34 3.03  35 3.03  47 3.03  40 3.06
                            45 3.06  33 3.06  48 3.06  49 3.06  53 3.06  42 3.10  27 3.10  31 3.10
  45  0.624  0.124  0.876-  18 1.86  14 2.18  16 2.18   9 2.18  32 3.03  33 3.03  54 3.03  47 3.06
                            39 3.06  44 3.06  26 3.06  52 3.06  42 3.06  46 3.10  48 3.10  41 3.10
  46  0.624  0.376  0.624-  24 1.86   9 2.18  16 2.18   7 2.18  40 3.03  25 3.03  53 3.03  35 3.06
                            39 3.06  27 3.06  42 3.06  34 3.06  55 3.06  48 3.10  45 3.10  41 3.10
  47  0.874  0.874  0.874-  17 1.86  14 2.18  15 2.18   1 2.18  34 3.03  35 3.03  44 3.03  37 3.06
                            45 3.06  38 3.06  48 3.06  54 3.06  56 3.06  28 3.10  26 3.10  43 3.10
  48  0.876  0.124  0.624-   6 1.86   7 2.18  14 2.18  16 2.18  38 3.03  29 3.03  49 3.03  27 3.06
                            43 3.06  44 3.06  47 3.06  36 3.06  55 3.06  46 3.10  41 3.10  45 3.10
  49  0.876  0.876  0.376-   6 1.86   3 2.18   1 2.18  20 2.18  29 3.03  38 3.03  48 3.03  27 3.06
                            51 3.06  28 3.06  44 3.06  26 3.06  34 3.06  54 3.10  56 3.10  53 3.10
  50  0.374  0.626  0.126-   5 1.86   8 2.18  19 2.18  22 2.18  28 3.03  31 3.03  51 3.03  25 3.06
                            33 3.06  37 3.06  30 3.06  53 3.06  54 3.06  52 3.10  35 3.10  39 3.10
  51  0.126  0.626  0.374-   5 1.86  10 2.18  20 2.18  21 2.18  28 3.03  31 3.03  50 3.03  49 3.06
                            25 3.06  40 3.06  30 3.06  38 3.06  56 3.06  36 3.10  34 3.10  55 3.10
  52  0.626  0.374  0.126-  23 1.86  19 2.18  22 2.18   9 2.18  26 3.03  27 3.03  55 3.03  32 3.06
                            41 3.06  45 3.06  53 3.06  25 3.06  56 3.06  50 3.10  35 3.10  39 3.10
  53  0.624  0.624  0.376-  24 1.86  20 2.18  22 2.18   3 2.18  25 3.03  40 3.03  46 3.03  31 3.06
                            55 3.06  34 3.06  50 3.06  52 3.06  44 3.06  54 3.10  56 3.10  49 3.10
  54  0.624  0.876  0.124-  18 1.86   3 2.18   1 2.18  22 2.18  32 3.03  33 3.03  45 3.03  26 3.06
                            27 3.06  35 3.06  31 3.06  47 3.06  50 3.06  56 3.10  53 3.10  49 3.10
  55  0.874  0.374  0.374-  23 1.86  20 2.18  21 2.18   7 2.18  26 3.03  27 3.03  52 3.03  29 3.06
                            53 3.06  48 3.06  30 3.06  46 3.06  56 3.06  36 3.10  34 3.10  51 3.10
  56  0.876  0.624  0.124-  12 1.86   1 2.18  20 2.18  22 2.18  30 3.03  37 3.03  41 3.03  28 3.06
                            35 3.06  47 3.06  51 3.06  52 3.06  55 3.06  54 3.10  49 3.10  53 3.10
 
  LATTYP: Found a simple cubic cell.
 ALAT       =     8.6647488384
  
  Lattice vectors:
  
 A1 = (   8.6647488384,   0.0000000000,   0.0000000000)
 A2 = (   0.0000000000,   8.6647488384,   0.0000000000)
 A3 = (   0.0000000000,   0.0000000000,   8.6647488384)


Analysis of symmetry for initial positions (statically):
=====================================================================
 Subroutine PRICEL returns following result:
 
  LATTYP: Found a face centered cubic cell.
 ALAT       =     8.6647488384
  
  Lattice vectors:
  
 A1 = (   4.3323744192,   4.3323744192,   0.0000000000)
 A2 = (   4.3323744192,   0.0000000000,  -4.3323744192)
 A3 = (   0.0000000000,   4.3323744192,  -4.3323744192)
 
   4 primitive cells build up your supercell.
 

 Routine SETGRP: Setting up the symmetry group for a 
 simple cubic supercell.


 Subroutine GETGRP returns: Found 48 space group operations
 (whereof 24 operations were pure point group operations)
 out of a pool of 48 trial point group operations.


The static configuration has the point symmetry T_d .
 The point group associated with its full space group is O_h .


Analysis of symmetry for dynamics (positions and initial velocities):
=====================================================================
 Subroutine PRICEL returns following result:
 
  LATTYP: Found a face centered cubic cell.
 ALAT       =     8.6647488384
  
  Lattice vectors:
  
 A1 = (   4.3323744192,   4.3323744192,   0.0000000000)
 A2 = (   4.3323744192,   0.0000000000,  -4.3323744192)
 A3 = (   0.0000000000,   4.3323744192,  -4.3323744192)
 
   4 primitive cells build up your supercell.
 

 Routine SETGRP: Setting up the symmetry group for a 
 simple cubic supercell.


 Subroutine GETGRP returns: Found 48 space group operations
 (whereof 24 operations were pure point group operations)
 out of a pool of 48 trial point group operations.


The dynamic configuration has the point symmetry T_d .
 The point group associated with its full space group is O_h .


 Subroutine INISYM returns: Found 48 space group operations
 (whereof 24 operations are pure point group operations),
 and found     4 'primitive' translations

 
 
 KPOINTS: Automatic mesh                          

Automatic generation of k-mesh.
 generate k-points for:    5    5    5
Space group operators:
 irot       det(A)        alpha          n_x          n_y          n_z        tau_x        tau_y        tau_z
    1     1.000000     0.000000     1.000000     0.000000     0.000000     0.000000     0.000000    -0.000000
    2     1.000000   120.000000    -0.577350    -0.577350    -0.577350     0.000000     0.000000    -0.000000
    3     1.000000   120.000000     0.577350     0.577350     0.577350     0.000000     0.000000    -0.000000
    4    -1.000000    90.000000     0.000000     0.000000    -1.000000     0.000000     0.000000    -0.000000
    5    -1.000000   180.000000     0.000000    -0.707107    -0.707107     0.000000     0.000000    -0.000000
    6    -1.000000    90.000000     0.000000     1.000000     0.000000     0.000000     0.000000    -0.000000
    7     1.000000   180.000000    -0.000000    -0.000000     1.000000     0.000000     0.000000    -0.000000
    8     1.000000   120.000000    -0.577350     0.577350     0.577350     0.000000     0.000000    -0.000000
    9     1.000000   120.000000    -0.577350     0.577350    -0.577350     0.000000     0.000000    -0.000000
   10    -1.000000    90.000000    -0.000000    -0.000000     1.000000     0.000000     0.000000    -0.000000
   11    -1.000000    90.000000    -1.000000     0.000000    -0.000000     0.000000     0.000000    -0.000000
   12    -1.000000   180.000000    -0.707107     0.000000    -0.707107     0.000000     0.000000    -0.000000
   13     1.000000   120.000000     0.577350    -0.577350     0.577350     0.000000     0.000000    -0.000000
   14     1.000000   120.000000    -0.577350    -0.577350     0.577350     0.000000     0.000000    -0.000000
   15     1.000000   180.000000     1.000000     0.000000     0.000000     0.000000     0.000000    -0.000000
   16    -1.000000    90.000000    -0.000000    -1.000000     0.000000     0.000000     0.000000    -0.000000
   17    -1.000000   180.000000     0.707107     0.707107     0.000000     0.000000     0.000000    -0.000000
   18    -1.000000    90.000000     1.000000    -0.000000    -0.000000     0.000000     0.000000    -0.000000
   19     1.000000   120.000000     0.577350    -0.577350    -0.577350     0.000000     0.000000    -0.000000
   20     1.000000   180.000000    -0.000000     1.000000     0.000000     0.000000     0.000000    -0.000000
   21     1.000000   120.000000     0.577350     0.577350    -0.577350     0.000000     0.000000    -0.000000
   22    -1.000000   180.000000    -0.000000    -0.707107     0.707107     0.000000     0.000000    -0.000000
   23    -1.000000   180.000000     0.707107    -0.707107     0.000000     0.000000     0.000000    -0.000000
   24    -1.000000   180.000000     0.707107     0.000000    -0.707107     0.000000     0.000000    -0.000000
   25    -1.000000     0.000000     1.000000     0.000000     0.000000     0.750000     0.750000    -0.750000
   26    -1.000000   120.000000    -0.577350    -0.577350    -0.577350     0.750000     0.750000    -0.750000
   27    -1.000000   120.000000     0.577350     0.577350     0.577350     0.750000     0.750000    -0.750000
   28     1.000000    90.000000     0.000000     0.000000    -1.000000     0.750000     0.750000    -0.750000
   29     1.000000   180.000000     0.000000    -0.707107    -0.707107     0.750000     0.750000    -0.750000
   30     1.000000    90.000000     0.000000     1.000000     0.000000     0.750000     0.750000    -0.750000
   31    -1.000000   180.000000    -0.000000    -0.000000     1.000000     0.750000     0.750000    -0.750000
   32    -1.000000   120.000000    -0.577350     0.577350     0.577350     0.750000     0.750000    -0.750000
   33    -1.000000   120.000000    -0.577350     0.577350    -0.577350     0.750000     0.750000    -0.750000
   34     1.000000    90.000000    -0.000000    -0.000000     1.000000     0.750000     0.750000    -0.750000
   35     1.000000    90.000000    -1.000000     0.000000    -0.000000     0.750000     0.750000    -0.750000
   36     1.000000   180.000000    -0.707107     0.000000    -0.707107     0.750000     0.750000    -0.750000
   37    -1.000000   120.000000     0.577350    -0.577350     0.577350     0.750000     0.750000    -0.750000
   38    -1.000000   120.000000    -0.577350    -0.577350     0.577350     0.750000     0.750000    -0.750000
   39    -1.000000   180.000000     1.000000     0.000000     0.000000     0.750000     0.750000    -0.750000
   40     1.000000    90.000000    -0.000000    -1.000000     0.000000     0.750000     0.750000    -0.750000
   41     1.000000   180.000000     0.707107     0.707107     0.000000     0.750000     0.750000    -0.750000
   42     1.000000    90.000000     1.000000    -0.000000    -0.000000     0.750000     0.750000    -0.750000
   43    -1.000000   120.000000     0.577350    -0.577350    -0.577350     0.750000     0.750000    -0.750000
   44    -1.000000   180.000000    -0.000000     1.000000     0.000000     0.750000     0.750000    -0.750000
   45    -1.000000   120.000000     0.577350     0.577350    -0.577350     0.750000     0.750000    -0.750000
   46     1.000000   180.000000    -0.000000    -0.707107     0.707107     0.750000     0.750000    -0.750000
   47     1.000000   180.000000     0.707107    -0.707107     0.000000     0.750000     0.750000    -0.750000
   48     1.000000   180.000000     0.707107     0.000000    -0.707107     0.750000     0.750000    -0.750000
 
 Subroutine IBZKPT returns following result:
 ===========================================
 
 Found     10 irreducible k-points:
 
 Following reciprocal coordinates:
            Coordinates               Weight
  0.000000  0.000000  0.000000      1.000000
  0.200000  0.000000  0.000000      6.000000
  0.400000  0.000000  0.000000      6.000000
  0.200000  0.200000  0.000000     12.000000
  0.400000  0.200000  0.000000     24.000000
  0.400000  0.400000  0.000000     12.000000
  0.200000  0.200000  0.200000      8.000000
  0.400000  0.200000  0.200000     24.000000
  0.400000  0.400000  0.200000     24.000000
  0.400000  0.400000  0.400000      8.000000
 
 Following cartesian coordinates:
            Coordinates               Weight
  0.000000  0.000000  0.000000      1.000000
  0.023082  0.000000  0.000000      6.000000
  0.046164  0.000000  0.000000      6.000000
  0.023082  0.023082  0.000000     12.000000
  0.046164  0.023082  0.000000     24.000000
  0.046164  0.046164  0.000000     12.000000
  0.023082  0.023082  0.023082      8.000000
  0.046164  0.023082  0.023082     24.000000
  0.046164  0.046164  0.023082     24.000000
  0.046164  0.046164  0.046164      8.000000
 


--------------------------------------------------------------------------------------------------------




 Dimension of arrays:
   k-points           NKPTS =     10   k-points in BZ     NKDIM =     10   number of bands    NBANDS=    156
   number of dos      NEDOS =    301   number of ions     NIONS =     56
   non local maximal  LDIM  =      4   non local SUM 2l+1 LMDIM =      8
   total plane-waves  NPLWV = 216000
   max r-space proj   IRMAX =   6857   max aug-charges    IRDMAX=  11300
   dimension x,y,z NGX =    60 NGY =   60 NGZ =   60
   dimension x,y,z NGXF=   120 NGYF=  120 NGZF=  120
   support grid    NGXF=   120 NGYF=  120 NGZF=  120
   ions per type =              24  32
   NGX,Y,Z   is equivalent  to a cutoff of  11.51, 11.51, 11.51 a.u.
   NGXF,Y,Z  is equivalent  to a cutoff of  23.02, 23.02, 23.02 a.u.

 SYSTEM =  unknown system                          
 POSCAR =  Si24 N32                                

 Startparameter for this run:
   NWRITE =      2    write-flag & timer
   PREC   = accura    normal or accurate (medium, high low for compatibility)
   ISTART =      0    job   : 0-new  1-cont  2-samecut
   ICHARG =      2    charge: 1-file 2-atom 10-const
   ISPIN  =      1    spin polarized calculation?
   LNONCOLLINEAR =      F non collinear calculations
   LSORBIT =      F    spin-orbit coupling
   INIWAV =      1    electr: 0-lowe 1-rand  2-diag
   LASPH  =      F    aspherical Exc in radial PAW
   METAGGA=      F    non-selfconsistent MetaGGA calc.

 Electronic Relaxation 1
   ENCUT  =  400.0 eV  29.40 Ry    5.42 a.u.  14.13 14.13 14.13*2*pi/ulx,y,z
   ENINI  =  400.0     initial cutoff
   ENAUG  =  627.1 eV  augmentation charge cutoff
   NELM   =     60;   NELMIN=  2; NELMDL= -5     # of ELM steps 
   EDIFF  = 0.1E-03   stopping-criterion for ELM
   LREAL  =      T    real-space projection
   NLSPLINE    = F    spline interpolate recip. space projectors
   LCOMPAT=      F    compatible to vasp.4.4
   GGA_COMPAT  = T    GGA compatible to vasp.4.4-vasp.4.6
   LMAXPAW     = -100 max onsite density
   LMAXMIX     =    2 max onsite mixed and CHGCAR
   VOSKOWN=      0    Vosko Wilk Nusair interpolation
   ROPT   =   -0.00025  -0.00025
 Ionic relaxation
   EDIFFG = 0.1E-02   stopping-criterion for IOM
   NSW    =    100    number of steps for IOM
   NBLOCK =      1;   KBLOCK =    100    inner block; outer block 
   IBRION =      2    ionic relax: 0-MD 1-quasi-New 2-CG
   NFREE  =      1    steps in history (QN), initial steepest desc. (CG)
   ISIF   =      2    stress and relaxation
   IWAVPR =     11    prediction:  0-non 1-charg 2-wave 3-comb
   ISYM   =      2    0-nonsym 1-usesym 2-fastsym
   LCORR  =      T    Harris-Foulkes like correction to forces

   POTIM  = 0.5000    time-step for ionic-motion
   TEIN   =    0.0    initial temperature
   TEBEG  =    0.0;   TEEND  =   0.0 temperature during run
   SMASS  =  -3.00    Nose mass-parameter (am)
   estimated Nose-frequenzy (Omega)   =  0.10E-29 period in steps =****** mass=  -0.172E-26a.u.
   SCALEE = 1.0000    scale energy and forces
   NPACO  =    256;   APACO  = 16.0  distance and # of slots for P.C.
   PSTRESS=    0.0 pullay stress

  Mass of Ions in am
   POMASS =  14.00 28.09
  Ionic Valenz
   ZVAL   =   5.00  4.00
  Atomic Wigner-Seitz radii
   RWIGS  =  -1.00 -1.00
  virtual crystal weights 
   VCA    =   1.00  1.00
   NELECT =     248.0000    total number of electrons
   NUPDOWN=      -1.0000    fix difference up-down

 DOS related values:
   EMIN   =  10.00;   EMAX   =-10.00  energy-range for DOS
   EFERMI =   0.00
   ISMEAR =     2;   SIGMA  =   0.10  broadening in eV -4-tet -1-fermi 0-gaus

 Electronic relaxation 2 (details)
   IALGO  =     68    algorithm
   LDIAG  =      T    sub-space diagonalisation (order eigenvalues)
   LSUBROT=      F    optimize rotation matrix (better conditioning)
   TURBO    =      0    0=normal 1=particle mesh
   IRESTART =      0    0=no restart 2=restart with 2 vectors
   NREBOOT  =      0    no. of reboots
   NMIN     =      0    reboot dimension
   EREF     =   0.00    reference energy to select bands
   IMIX   =      4    mixing-type and parameters
     AMIX     =   0.40;   BMIX     =  1.00
     AMIX_MAG =   1.60;   BMIX_MAG =  1.00
     AMIN     =   0.10
     WC   =   100.;   INIMIX=   1;  MIXPRE=   1;  MAXMIX= -45

 Intra band minimization:
   WEIMIN = 0.0010     energy-eigenvalue tresh-hold
   EBREAK =  0.16E-06  absolut break condition
   DEPER  =   0.30     relativ break condition  

   TIME   =   0.40     timestep for ELM

  volume/ion in A,a.u.               =      11.62        78.39
  Fermi-wavevector in a.u.,A,eV,Ry     =   1.187051  2.243201 19.171837  1.409090
  Thomas-Fermi vector in A             =   2.323211
 
 Write flags
   LWAVE        =      F    write WAVECAR
   LDOWNSAMPLE  =      F    k-point downsampling of WAVECAR
   LCHARG       =      F    write CHGCAR
   LVTOT        =      F    write LOCPOT, total local potential
   LVHAR        =      F    write LOCPOT, Hartree potential only
   LELF         =      F    write electronic localiz. function (ELF)
   LORBIT       =      0    0 simple, 1 ext, 2 COOP (PROOUT), +10 PAW based schemes


 Dipole corrections
   LMONO  =      F    monopole corrections only (constant potential shift)
   LDIPOL =      F    correct potential (dipole corrections)
   IDIPOL =      0    1-x, 2-y, 3-z, 4-all directions 
   EPSILON=  1.0000000 bulk dielectric constant

 Exchange correlation treatment:
   GGA     =    --    GGA type
   LEXCH   =     8    internal setting for exchange type
   VOSKOWN=      0    Vosko Wilk Nusair interpolation
   LHFCALC =     F    Hartree Fock is set to
   LHFONE  =     F    Hartree Fock one center treatment
   AEXX    =    0.0000 exact exchange contribution

 Linear response parameters
   LEPSILON=     F    determine dielectric tensor
   LRPA    =     F    only Hartree local field effects (RPA)
   LNABLA  =     F    use nabla operator in PAW spheres
   LVEL    =     F    velocity operator in full k-point grid
   LINTERFAST=   F  fast interpolation
   KINTER  =     0    interpolate to denser k-point grid
   CSHIFT  =0.1000    complex shift for real part using Kramers Kronig
   OMEGAMAX=  -1.0    maximum frequency
   DEG_THRESHOLD= 0.2000000E-02 threshold for treating states as degnerate
   RTIME   =   -0.100 relaxation time in fs
  (WPLASMAI=    0.000 imaginary part of plasma frequency in eV, 0.658/RTIME)
   DFIELD  = 0.0000000 0.0000000 0.0000000 field for delta impulse in time
 
 Orbital magnetization related:
   ORBITALMAG=     F  switch on orbital magnetization
   LCHIMAG   =     F  perturbation theory with respect to B field
   DQ        =  0.001000  dq finite difference perturbation B field
   LLRAUG    =     F  two centre corrections for induced B field



--------------------------------------------------------------------------------------------------------


 conjugate gradient relaxation of ions
 charge density and potential will be updated during run
 non-spin polarized calculation
 RMM-DIIS sequential band-by-band and
  variant of blocked Davidson during initial phase
 perform sub-space diagonalisation
    before iterative eigenvector-optimisation
 modified Broyden-mixing scheme, WC =      100.0
 initial mixing is a Kerker type mixing with AMIX =  0.4000 and BMIX =      1.0000
 Hartree-type preconditioning will be used
 using additional bands           32
 real space projection scheme for non local part
 use partial core corrections
 calculate Harris-corrections to forces 
   (improved forces if not selfconsistent)
 use gradient corrections 
 use of overlap-Matrix (Vanderbilt PP)
 Methfessel and Paxton  Order N= 2 SIGMA  =   0.10


--------------------------------------------------------------------------------------------------------


  energy-cutoff  :      400.00
  volume of cell :      650.53
      direct lattice vectors                 reciprocal lattice vectors
     8.664748838  0.000000000  0.000000000     0.115410154 -0.000000000  0.000000000
     0.000000000  8.664748838  0.000000000    -0.000000000  0.115410154  0.000000000
     0.000000000  0.000000000  8.664748838    -0.000000000 -0.000000000  0.115410154

  length of vectors
     8.664748838  8.664748838  8.664748838     0.115410154  0.115410154  0.115410154


 
 k-points in units of 2pi/SCALE and weight: Automatic mesh                          
   0.00000000  0.00000000  0.00000000       0.008
   0.02308203  0.00000000  0.00000000       0.048
   0.04616406  0.00000000  0.00000000       0.048
   0.02308203  0.02308203  0.00000000       0.096
   0.04616406  0.02308203  0.00000000       0.192
   0.04616406  0.04616406  0.00000000       0.096
   0.02308203  0.02308203  0.02308203       0.064
   0.04616406  0.02308203  0.02308203       0.192
   0.04616406  0.04616406  0.02308203       0.192
   0.04616406  0.04616406  0.04616406       0.064
 
 k-points in reciprocal lattice and weights: Automatic mesh                          
   0.00000000  0.00000000  0.00000000       0.008
   0.20000000  0.00000000  0.00000000       0.048
   0.40000000  0.00000000  0.00000000       0.048
   0.20000000  0.20000000  0.00000000       0.096
   0.40000000  0.20000000  0.00000000       0.192
   0.40000000  0.40000000  0.00000000       0.096
   0.20000000  0.20000000  0.20000000       0.064
   0.40000000  0.20000000  0.20000000       0.192
   0.40000000  0.40000000  0.20000000       0.192
   0.40000000  0.40000000  0.40000000       0.064
 
 position of ions in fractional coordinates (direct lattice) 
   0.87500000  0.87500000  0.12500000
   0.37500000  0.12500000  0.37500000
   0.62500000  0.87500000  0.37500000
   0.12500000  0.12500000  0.12500000
   0.25000000  0.75000000  0.25000000
   0.00000000  0.00000000  0.50000000
   0.87500000  0.37500000  0.62500000
   0.37500000  0.62500000  0.87500000
   0.62500000  0.37500000  0.87500000
   0.12500000  0.62500000  0.62500000
   0.25000000  0.25000000  0.75000000
   0.00000000  0.50000000  0.00000000
   0.37500000  0.87500000  0.62500000
   0.87500000  0.12500000  0.87500000
   0.12500000  0.87500000  0.87500000
   0.62500000  0.12500000  0.62500000
   0.75000000  0.75000000  0.75000000
   0.50000000  0.00000000  0.00000000
   0.37500000  0.37500000  0.12500000
   0.87500000  0.62500000  0.37500000
   0.12500000  0.37500000  0.37500000
   0.62500000  0.62500000  0.12500000
   0.75000000  0.25000000  0.25000000
   0.50000000  0.50000000  0.50000000
   0.37630293  0.37630293  0.37630293
   0.87369707  0.12630293  0.12630293
   0.62630293  0.12630293  0.37369707
   0.12630293  0.87369707  0.12630293
   0.12369707  0.12369707  0.37630293
   0.12369707  0.37630293  0.12369707
   0.37369707  0.87369707  0.37369707
   0.37630293  0.12369707  0.12369707
   0.37630293  0.87630293  0.87630293
   0.87369707  0.62630293  0.62630293
   0.62630293  0.62630293  0.87369707
   0.12630293  0.37369707  0.62630293
   0.12369707  0.62369707  0.87630293
   0.12369707  0.87630293  0.62369707
   0.37369707  0.37369707  0.87369707
   0.37630293  0.62369707  0.62369707
   0.87630293  0.37630293  0.87630293
   0.37369707  0.12630293  0.62630293
   0.12630293  0.12630293  0.87369707
   0.62630293  0.87369707  0.62630293
   0.62369707  0.12369707  0.87630293
   0.62369707  0.37630293  0.62369707
   0.87369707  0.87369707  0.87369707
   0.87630293  0.12369707  0.62369707
   0.87630293  0.87630293  0.37630293
   0.37369707  0.62630293  0.12630293
   0.12630293  0.62630293  0.37369707
   0.62630293  0.37369707  0.12630293
   0.62369707  0.62369707  0.37630293
   0.62369707  0.87630293  0.12369707
   0.87369707  0.37369707  0.37369707
   0.87630293  0.62369707  0.12369707
 
 position of ions in cartesian coordinates  (Angst):
   7.58165523  7.58165523  1.08309360
   3.24928081  1.08309360  3.24928081
   5.41546802  7.58165523  3.24928081
   1.08309360  1.08309360  1.08309360
   2.16618721  6.49856163  2.16618721
   0.00000000  0.00000000  4.33237442
   7.58165523  3.24928081  5.41546802
   3.24928081  5.41546802  7.58165523
   5.41546802  3.24928081  7.58165523
   1.08309360  5.41546802  5.41546802
   2.16618721  2.16618721  6.49856163
   0.00000000  4.33237442  0.00000000
   3.24928081  7.58165523  5.41546802
   7.58165523  1.08309360  7.58165523
   1.08309360  7.58165523  7.58165523
   5.41546802  1.08309360  5.41546802
   6.49856163  6.49856163  6.49856163
   4.33237442  0.00000000  0.00000000
   3.24928081  3.24928081  1.08309360
   7.58165523  5.41546802  3.24928081
   1.08309360  3.24928081  3.24928081
   5.41546802  5.41546802  1.08309360
   6.49856163  2.16618721  2.16618721
   4.33237442  4.33237442  4.33237442
   3.26057041  3.26057041  3.26057041
   7.57036564  1.09438320  1.09438320
   5.42675762  1.09438320  3.23799122
   1.09438320  7.57036564  1.09438320
   1.07180401  1.07180401  3.26057041
   1.07180401  3.26057041  1.07180401
   3.23799122  7.57036564  3.23799122
   3.26057041  1.07180401  1.07180401
   3.26057041  7.59294483  7.59294483
   7.57036564  5.42675762  5.42675762
   5.42675762  5.42675762  7.57036564
   1.09438320  3.23799122  5.42675762
   1.07180401  5.40417843  7.59294483
   1.07180401  7.59294483  5.40417843
   3.23799122  3.23799122  7.57036564
   3.26057041  5.40417843  5.40417843
   7.59294483  3.26057041  7.59294483
   3.23799122  1.09438320  5.42675762
   1.09438320  1.09438320  7.57036564
   5.42675762  7.57036564  5.42675762
   5.40417843  1.07180401  7.59294483
   5.40417843  3.26057041  5.40417843
   7.57036564  7.57036564  7.57036564
   7.59294483  1.07180401  5.40417843
   7.59294483  7.59294483  3.26057041
   3.23799122  5.42675762  1.09438320
   1.09438320  5.42675762  3.23799122
   5.42675762  3.23799122  1.09438320
   5.40417843  5.40417843  3.26057041
   5.40417843  7.59294483  1.07180401
   7.57036564  3.23799122  3.23799122
   7.59294483  5.40417843  1.07180401
 


--------------------------------------------------------------------------------------------------------


 k-point  1 :   0.0000 0.0000 0.0000  plane waves:   11753
 k-point  2 :   0.2000 0.0000 0.0000  plane waves:   11800
 k-point  3 :   0.4000 0.0000 0.0000  plane waves:   11808
 k-point  4 :   0.2000 0.2000 0.0000  plane waves:   11800
 k-point  5 :   0.4000 0.2000 0.0000  plane waves:   11836
 k-point  6 :   0.4000 0.4000 0.0000  plane waves:   11806
 k-point  7 :   0.2000 0.2000 0.2000  plane waves:   11776
 k-point  8 :   0.4000 0.2000 0.2000  plane waves:   11811
 k-point  9 :   0.4000 0.4000 0.2000  plane waves:   11834
 k-point 10 :   0.4000 0.4000 0.4000  plane waves:   11812

 maximum and minimum number of plane-waves per node :      2987     2896

 maximum number of plane-waves:     11836
 maximum index in each direction: 
   IXMAX=   14   IYMAX=   14   IZMAX=   14
   IXMIN=  -14   IYMIN=  -14   IZMIN=  -14


 real space projection operators:
  total allocation   :      17103.50 KBytes
  max/ min on nodes  :       4275.88       4275.88


 parallel 3D FFT for wavefunctions:
    minimum data exchange during FFTs selected (reduces bandwidth)
 parallel 3D FFT for charge:
    minimum data exchange during FFTs selected (reduces bandwidth)


 total amount of memory used by VASP MPI-rank0    75404. kBytes
=======================================================================

   base      :      30000. kBytes
   nonlr-proj:      11861. kBytes
   fftplans  :       5454. kBytes
   grid      :       8702. kBytes
   one-center:         43. kBytes
   wavefun   :      19344. kBytes
 
     INWAV:  cpu time    0.0000: real time    0.0000
 Broyden mixing: mesh for mixing (old mesh)
   NGX = 29   NGY = 29   NGZ = 29
  (NGX  =120   NGY  =120   NGZ  =120)
  gives a total of  24389 points

 initial charge density was supplied:
 charge density of overlapping atoms calculated
 number of electron     248.0000000 magnetization 
 keeping initial charge density in first step


--------------------------------------------------------------------------------------------------------


 Maximum index for non-local projection operator         1684
 Maximum index for augmentation-charges          774 (set IRDMAX)


--------------------------------------------------------------------------------------------------------


 First call to EWALD:  gamma=   0.205
 Maximum number of real-space cells 3x 3x 3
 Maximum number of reciprocal cells 3x 3x 3

    FEWALD:  cpu time    0.0029: real time    0.0033


--------------------------------------- Iteration      1(   1)  ---------------------------------------


    POTLOK:  cpu time    0.0873: real time    0.0893
    SETDIJ:  cpu time    0.0081: real time    0.0081
     EDDAV:  cpu time    7.5225: real time    7.5228
       DOS:  cpu time    0.0017: real time    0.0017
    --------------------------------------------
      LOOP:  cpu time    7.6196: real time    7.6219

 eigenvalue-minimisations  :  3120
 total energy-change (2. order) : 0.8671129E+03  (-0.9792061E+04)
 number of electron     248.0000000 magnetization 
 augmentation part      248.0000000 magnetization 

 Free energy of the ion-electron system (eV)
  ---------------------------------------------------
  alpha Z        PSCENC =       299.82966791
  Ewald energy   TEWEN  =     -9599.89874413
  -Hartree energ DENC   =     -1540.12734172
  -exchange      EXHF   =         0.00000000
  -V(xc)+E(xc)   XCENC  =       190.76573733
  PAW double counting   =      7738.34714636    -7203.94574617
  entropy T*S    EENTRO =         0.00103370
  eigenvalues    EBANDS =      1336.63725426
  atomic energy  EATOM  =      9645.50393724
  Solvation  Ediel_sol  =         0.00000000
  ---------------------------------------------------
  free energy    TOTEN  =       867.11294479 eV

  energy without entropy =      867.11191110  energy(sigma->0) =      867.11268637


--------------------------------------------------------------------------------------------------------




--------------------------------------- Iteration      1(   2)  ---------------------------------------


     EDDAV:  cpu time    7.3311: real time    7.3335
       DOS:  cpu time    0.0018: real time    0.0018
    --------------------------------------------
      LOOP:  cpu time    7.3329: real time    7.3353

 eigenvalue-minimisations  :  3884
 total energy-change (2. order) :-0.1114045E+04  (-0.1067068E+04)
 number of electron     248.0000000 magnetization 
 augmentation part      248.0000000 magnetization 

 Free energy of the ion-electron system (eV)
  ---------------------------------------------------
  alpha Z        PSCENC =       299.82966791
  Ewald energy   TEWEN  =     -9599.89874413
  -Hartree energ DENC   =     -1540.12734172
  -exchange      EXHF   =         0.00000000
  -V(xc)+E(xc)   XCENC  =       190.76573733
  PAW double counting   =      7738.34714636    -7203.94574617
  entropy T*S    EENTRO =         0.00496948
  eigenvalues    EBANDS =       222.58870013
  atomic energy  EATOM  =      9645.50393724
  Solvation  Ediel_sol  =         0.00000000
  ---------------------------------------------------
  free energy    TOTEN  =      -246.93167355 eV

  energy without entropy =     -246.93664303  energy(sigma->0) =     -246.93291592


--------------------------------------------------------------------------------------------------------




--------------------------------------- Iteration      1(   3)  ---------------------------------------


     EDDAV:  cpu time    7.3957: real time    7.3975
       DOS:  cpu time    0.0017: real time    0.0017
    --------------------------------------------
      LOOP:  cpu time    7.3974: real time    7.3992

 eigenvalue-minimisations  :  3936
 total energy-change (2. order) :-0.1062446E+03  (-0.1021518E+03)
 number of electron     248.0000000 magnetization 
 augmentation part      248.0000000 magnetization 

 Free energy of the ion-electron system (eV)
  ---------------------------------------------------
  alpha Z        PSCENC =       299.82966791
  Ewald energy   TEWEN  =     -9599.89874413
  -Hartree energ DENC   =     -1540.12734172
  -exchange      EXHF   =         0.00000000
  -V(xc)+E(xc)   XCENC  =       190.76573733
  PAW double counting   =      7738.34714636    -7203.94574617
  entropy T*S    EENTRO =        -0.00468273
  eigenvalues    EBANDS =       116.35375814
  atomic energy  EATOM  =      9645.50393724
  Solvation  Ediel_sol  =         0.00000000
  ---------------------------------------------------
  free energy    TOTEN  =      -353.17626775 eV

  energy without entropy =     -353.17158503  energy(sigma->0) =     -353.17509707


--------------------------------------------------------------------------------------------------------




--------------------------------------- Iteration      1(   4)  ---------------------------------------


     EDDAV:  cpu time    7.3991: real time    7.4006
       DOS:  cpu time    0.0018: real time    0.0018
    --------------------------------------------
      LOOP:  cpu time    7.4009: real time    7.4024

 eigenvalue-minimisations  :  3968
 total energy-change (2. order) :-0.3825448E+01  (-0.3708229E+01)
 number of electron     248.0000000 magnetization 
 augmentation part      248.0000000 magnetization 

 Free energy of the ion-electron system (eV)
  ---------------------------------------------------
  alpha Z        PSCENC =       299.82966791
  Ewald energy   TEWEN  =     -9599.89874413
  -Hartree energ DENC   =     -1540.12734172
  -exchange      EXHF   =         0.00000000
  -V(xc)+E(xc)   XCENC  =       190.76573733
  PAW double counting   =      7738.34714636    -7203.94574617
  entropy T*S    EENTRO =        -0.01102127
  eigenvalues    EBANDS =       112.53464819
  atomic energy  EATOM  =      9645.50393724
  Solvation  Ediel_sol  =         0.00000000
  ---------------------------------------------------
  free energy    TOTEN  =      -357.00171624 eV

  energy without entropy =     -356.99069498  energy(sigma->0) =     -356.99896093


--------------------------------------------------------------------------------------------------------




--------------------------------------- Iteration      1(   5)  ---------------------------------------


     EDDAV:  cpu time    7.2702: real time    7.2719
       DOS:  cpu time    0.0018: real time    0.0018
    CHARGE:  cpu time    0.3451: real time    0.3451
    MIXING:  cpu time    0.0019: real time    0.0019
    --------------------------------------------
      LOOP:  cpu time    7.6191: real time    7.6208

 eigenvalue-minimisations  :  3880
 total energy-change (2. order) :-0.1195945E+00  (-0.1186138E+00)
 number of electron     247.9999835 magnetization 
 augmentation part       -1.3066823 magnetization 

 Broyden mixing:
  rms(total) = 0.35469E+01    rms(broyden)= 0.35464E+01
  rms(prec ) = 0.49141E+01
  weight for this iteration     100.00

 Free energy of the ion-electron system (eV)
  ---------------------------------------------------
  alpha Z        PSCENC =       299.82966791
  Ewald energy   TEWEN  =     -9599.89874413
  -Hartree energ DENC   =     -1540.12734172
  -exchange      EXHF   =         0.00000000
  -V(xc)+E(xc)   XCENC  =       190.76573733
  PAW double counting   =      7738.34714636    -7203.94574617
  entropy T*S    EENTRO =        -0.01149858
  eigenvalues    EBANDS =       112.41553104
  atomic energy  EATOM  =      9645.50393724
  Solvation  Ediel_sol  =         0.00000000
  ---------------------------------------------------
  free energy    TOTEN  =      -357.12131071 eV

  energy without entropy =     -357.10981213  energy(sigma->0) =     -357.11843606


--------------------------------------------------------------------------------------------------------




--------------------------------------- Iteration      1(   6)  ---------------------------------------


    POTLOK:  cpu time    0.0765: real time    0.0781
    SETDIJ:  cpu time    0.0082: real time    0.0086
    EDDIAG:  cpu time    0.7754: real time    0.7757
  RMM-DIIS:  cpu time    4.8499: real time    4.8496
    ORTHCH:  cpu time    0.0986: real time    0.0986
       DOS:  cpu time    0.0017: real time    0.0017
    CHARGE:  cpu time    0.3321: real time    0.3324
    MIXING:  cpu time    0.0019: real time    0.0019
    --------------------------------------------
      LOOP:  cpu time    6.1441: real time    6.1465

 eigenvalue-minimisations  :  3124
 total energy-change (2. order) : 0.2555529E+02  (-0.1549019E+02)
 number of electron     247.9999900 magnetization 
 augmentation part       -4.0679971 magnetization 

 Broyden mixing:
  rms(total) = 0.16062E+01    rms(broyden)= 0.16053E+01
  rms(prec ) = 0.17207E+01
  weight for this iteration     100.00

 eigenvalues of (default mixing * dielectric matrix)
  average eigenvalue GAMMA=   0.9289
  0.9289

 Free energy of the ion-electron system (eV)
  ---------------------------------------------------
  alpha Z        PSCENC =       299.82966791
  Ewald energy   TEWEN  =     -9599.89874413
  -Hartree energ DENC   =     -1808.43997900
  -exchange      EXHF   =         0.00000000
  -V(xc)+E(xc)   XCENC  =       208.30460410
  PAW double counting   =     12437.16028379   -11904.09047468
  entropy T*S    EENTRO =         0.01569479
  eigenvalues    EBANDS =       390.04898642
  atomic energy  EATOM  =      9645.50393724
  Solvation  Ediel_sol  =         0.00000000
  ---------------------------------------------------
  free energy    TOTEN  =      -331.56602357 eV

  energy without entropy =     -331.58171836  energy(sigma->0) =     -331.56994726


--------------------------------------------------------------------------------------------------------




--------------------------------------- Iteration      1(   7)  ---------------------------------------


    POTLOK:  cpu time    0.0759: real time    0.0778
    SETDIJ:  cpu time    0.0082: real time    0.0087
    EDDIAG:  cpu time    0.7736: real time    0.7743
  RMM-DIIS:  cpu time    4.0946: real time    4.0958
    ORTHCH:  cpu time    0.0946: real time    0.0946
       DOS:  cpu time    0.0017: real time    0.0017
    CHARGE:  cpu time    0.3292: real time    0.3292
    MIXING:  cpu time    0.0033: real time    0.0033
    --------------------------------------------
      LOOP:  cpu time    5.3810: real time    5.3852

 eigenvalue-minimisations  :  3306
 total energy-change (2. order) : 0.7828403E+00  (-0.4276415E+00)
 number of electron     247.9999901 magnetization 
 augmentation part       -4.1198252 magnetization 

 Broyden mixing:
  rms(total) = 0.92682E+00    rms(broyden)= 0.92676E+00
  rms(prec ) = 0.10034E+01
  weight for this iteration     100.00

 eigenvalues of (default mixing * dielectric matrix)
  average eigenvalue GAMMA=   1.5259
  1.0288  2.0229

 Free energy of the ion-electron system (eV)
  ---------------------------------------------------
  alpha Z        PSCENC =       299.82966791
  Ewald energy   TEWEN  =     -9599.89874413
  -Hartree energ DENC   =     -1784.73085963
  -exchange      EXHF   =         0.00000000
  -V(xc)+E(xc)   XCENC  =       207.01692282
  PAW double counting   =     15569.27679498   -15036.22405511
  entropy T*S    EENTRO =         0.01800359
  eigenvalues    EBANDS =       368.42514904
  atomic energy  EATOM  =      9645.50393724
  Solvation  Ediel_sol  =         0.00000000
  ---------------------------------------------------
  free energy    TOTEN  =      -330.78318329 eV

  energy without entropy =     -330.80118687  energy(sigma->0) =     -330.78768418


--------------------------------------------------------------------------------------------------------




--------------------------------------- Iteration      1(   8)  ---------------------------------------


    POTLOK:  cpu time    0.0772: real time    0.0777
    SETDIJ:  cpu time    0.0081: real time    0.0081
    EDDIAG:  cpu time    0.7740: real time    0.7748
  RMM-DIIS:  cpu time    3.8937: real time    3.8949
    ORTHCH:  cpu time    0.0965: real time    0.0964
       DOS:  cpu time    0.0017: real time    0.0017
    CHARGE:  cpu time    0.3300: real time    0.3300
    MIXING:  cpu time    0.0020: real time    0.0020
    --------------------------------------------
      LOOP:  cpu time    5.1832: real time    5.1857

 eigenvalue-minimisations  :  3120
 total energy-change (2. order) : 0.9269456E-01  (-0.3015250E+00)
 number of electron     247.9999894 magnetization 
 augmentation part       -3.8224926 magnetization 

 Broyden mixing:
  rms(total) = 0.23957E+00    rms(broyden)= 0.23947E+00
  rms(prec ) = 0.36029E+00
  weight for this iteration     100.00

 eigenvalues of (default mixing * dielectric matrix)
  average eigenvalue GAMMA=   1.3849
  2.2899  0.9324  0.9324

 Free energy of the ion-electron system (eV)
  ---------------------------------------------------
  alpha Z        PSCENC =       299.82966791
  Ewald energy   TEWEN  =     -9599.89874413
  -Hartree energ DENC   =     -1751.94714877
  -exchange      EXHF   =         0.00000000
  -V(xc)+E(xc)   XCENC  =       205.32321526
  PAW double counting   =     19954.46397092   -19421.41874725
  entropy T*S    EENTRO =         0.01707026
  eigenvalues    EBANDS =       337.43628984
  atomic energy  EATOM  =      9645.50393724
  Solvation  Ediel_sol  =         0.00000000
  ---------------------------------------------------
  free energy    TOTEN  =      -330.69048873 eV

  energy without entropy =     -330.70755898  energy(sigma->0) =     -330.69475629


--------------------------------------------------------------------------------------------------------




--------------------------------------- Iteration      1(   9)  ---------------------------------------


    POTLOK:  cpu time    0.0755: real time    0.0776
    SETDIJ:  cpu time    0.0081: real time    0.0081
    EDDIAG:  cpu time    0.7687: real time    0.7687
  RMM-DIIS:  cpu time    3.9155: real time    3.9152
    ORTHCH:  cpu time    0.0942: real time    0.0942
       DOS:  cpu time    0.0017: real time    0.0017
    CHARGE:  cpu time    0.3273: real time    0.3273
    MIXING:  cpu time    0.0020: real time    0.0020
    --------------------------------------------
      LOOP:  cpu time    5.1930: real time    5.1947

 eigenvalue-minimisations  :  3150
 total energy-change (2. order) : 0.1977130E+00  (-0.3626673E-01)
 number of electron     247.9999897 magnetization 
 augmentation part       -3.9506073 magnetization 

 Broyden mixing:
  rms(total) = 0.74746E-01    rms(broyden)= 0.74734E-01
  rms(prec ) = 0.10232E+00
  weight for this iteration     100.00

 eigenvalues of (default mixing * dielectric matrix)
  average eigenvalue GAMMA=   1.2945
  2.2634  0.9852  0.9647  0.9647

 Free energy of the ion-electron system (eV)
  ---------------------------------------------------
  alpha Z        PSCENC =       299.82966791
  Ewald energy   TEWEN  =     -9599.89874413
  -Hartree energ DENC   =     -1770.43844697
  -exchange      EXHF   =         0.00000000
  -V(xc)+E(xc)   XCENC  =       206.56769712
  PAW double counting   =     20492.89040873   -19959.94773179
  entropy T*S    EENTRO =         0.01851018
  eigenvalues    EBANDS =       354.98192603
  atomic energy  EATOM  =      9645.50393724
  Solvation  Ediel_sol  =         0.00000000
  ---------------------------------------------------
  free energy    TOTEN  =      -330.49277569 eV

  energy without entropy =     -330.51128586  energy(sigma->0) =     -330.49740323


--------------------------------------------------------------------------------------------------------




--------------------------------------- Iteration      1(  10)  ---------------------------------------


    POTLOK:  cpu time    0.0772: real time    0.0774
    SETDIJ:  cpu time    0.0081: real time    0.0081
    EDDIAG:  cpu time    0.7666: real time    0.7666
  RMM-DIIS:  cpu time    4.1371: real time    4.1368
    ORTHCH:  cpu time    0.0956: real time    0.0955
       DOS:  cpu time    0.0017: real time    0.0017
    CHARGE:  cpu time    0.3314: real time    0.3314
    MIXING:  cpu time    0.0021: real time    0.0021
    --------------------------------------------
      LOOP:  cpu time    5.4197: real time    5.4195

 eigenvalue-minimisations  :  3355
 total energy-change (2. order) : 0.2894293E-02  (-0.9888037E-02)
 number of electron     247.9999898 magnetization 
 augmentation part       -4.0040074 magnetization 

 Broyden mixing:
  rms(total) = 0.26937E-01    rms(broyden)= 0.26895E-01
  rms(prec ) = 0.29912E-01
  weight for this iteration     100.00

 eigenvalues of (default mixing * dielectric matrix)
  average eigenvalue GAMMA=   1.5887
  2.5267  2.5267  0.9083  0.9908  0.9908

 Free energy of the ion-electron system (eV)
  ---------------------------------------------------
  alpha Z        PSCENC =       299.82966791
  Ewald energy   TEWEN  =     -9599.89874413
  -Hartree energ DENC   =     -1774.43959245
  -exchange      EXHF   =         0.00000000
  -V(xc)+E(xc)   XCENC  =       206.84875295
  PAW double counting   =     20504.65777998   -19971.75412381
  entropy T*S    EENTRO =         0.01840821
  eigenvalues    EBANDS =       358.74403270
  atomic energy  EATOM  =      9645.50393724
  Solvation  Ediel_sol  =         0.00000000
  ---------------------------------------------------
  free energy    TOTEN  =      -330.48988139 eV

  energy without entropy =     -330.50828961  energy(sigma->0) =     -330.49448345


--------------------------------------------------------------------------------------------------------




--------------------------------------- Iteration      1(  11)  ---------------------------------------


    POTLOK:  cpu time    0.0759: real time    0.0778
    SETDIJ:  cpu time    0.0081: real time    0.0081
    EDDIAG:  cpu time    0.7632: real time    0.7632
  RMM-DIIS:  cpu time    4.1045: real time    4.1041
    ORTHCH:  cpu time    0.0942: real time    0.0942
       DOS:  cpu time    0.0017: real time    0.0017
    CHARGE:  cpu time    0.3334: real time    0.3334
    MIXING:  cpu time    0.0021: real time    0.0021
    --------------------------------------------
      LOOP:  cpu time    5.3831: real time    5.3847

 eigenvalue-minimisations  :  3294
 total energy-change (2. order) :-0.1153495E-02  (-0.4576503E-03)
 number of electron     247.9999898 magnetization 
 augmentation part       -4.0016788 magnetization 

 Broyden mixing:
  rms(total) = 0.94356E-02    rms(broyden)= 0.94319E-02
  rms(prec ) = 0.13536E-01
  weight for this iteration     100.00

 eigenvalues of (default mixing * dielectric matrix)
  average eigenvalue GAMMA=   1.4570
  2.5996  2.4083  0.9576  0.9576  0.9093  0.9093

 Free energy of the ion-electron system (eV)
  ---------------------------------------------------
  alpha Z        PSCENC =       299.82966791
  Ewald energy   TEWEN  =     -9599.89874413
  -Hartree energ DENC   =     -1773.95321041
  -exchange      EXHF   =         0.00000000
  -V(xc)+E(xc)   XCENC  =       206.86482535
  PAW double counting   =     20421.88259900   -19889.01154041
  entropy T*S    EENTRO =         0.01833745
  eigenvalues    EBANDS =       358.27309312
  atomic energy  EATOM  =      9645.50393724
  Solvation  Ediel_sol  =         0.00000000
  ---------------------------------------------------
  free energy    TOTEN  =      -330.49103489 eV

  energy without entropy =     -330.50937234  energy(sigma->0) =     -330.49561925


--------------------------------------------------------------------------------------------------------




--------------------------------------- Iteration      1(  12)  ---------------------------------------


    POTLOK:  cpu time    0.0772: real time    0.0773
    SETDIJ:  cpu time    0.0080: real time    0.0080
    EDDIAG:  cpu time    5.9144: real time    5.9096
  RMM-DIIS:  cpu time    4.1068: real time    4.1065
    ORTHCH:  cpu time    0.0940: real time    0.0940
       DOS:  cpu time    0.0017: real time    0.0017
    CHARGE:  cpu time    0.3342: real time    0.3342
    MIXING:  cpu time    0.0023: real time    0.0023
    --------------------------------------------
      LOOP:  cpu time   10.5386: real time   10.5337

 eigenvalue-minimisations  :  3349
 total energy-change (2. order) : 0.5714071E-04  (-0.3303884E-03)
 number of electron     247.9999898 magnetization 
 augmentation part       -4.0120557 magnetization 

 Broyden mixing:
  rms(total) = 0.53007E-02    rms(broyden)= 0.52933E-02
  rms(prec ) = 0.72080E-02
  weight for this iteration     100.00

 eigenvalues of (default mixing * dielectric matrix)
  average eigenvalue GAMMA=   1.4449
  2.6469  2.3466  0.9374  0.9374  1.1063  1.1063  1.0336

 Free energy of the ion-electron system (eV)
  ---------------------------------------------------
  alpha Z        PSCENC =       299.82966791
  Ewald energy   TEWEN  =     -9599.89874413
  -Hartree energ DENC   =     -1774.93408812
  -exchange      EXHF   =         0.00000000
  -V(xc)+E(xc)   XCENC  =       206.92844059
  PAW double counting   =     20444.23038725   -19911.36106152
  entropy T*S    EENTRO =         0.01841818
  eigenvalues    EBANDS =       359.19206485
  atomic energy  EATOM  =      9645.50393724
  Solvation  Ediel_sol  =         0.00000000
  ---------------------------------------------------
  free energy    TOTEN  =      -330.49097775 eV

  energy without entropy =     -330.50939593  energy(sigma->0) =     -330.49558229


--------------------------------------------------------------------------------------------------------




--------------------------------------- Iteration      1(  13)  ---------------------------------------


    POTLOK:  cpu time    0.0754: real time    0.0772
    SETDIJ:  cpu time    0.0081: real time    0.0081
    EDDIAG:  cpu time    0.7598: real time    0.7597
  RMM-DIIS:  cpu time    2.5611: real time    2.5609
    ORTHCH:  cpu time    0.0947: real time    0.0947
       DOS:  cpu time    0.0017: real time    0.0017
    --------------------------------------------
      LOOP:  cpu time    3.5007: real time    3.5024

 eigenvalue-minimisations  :  1956
 total energy-change (2. order) : 0.7021779E-04  (-0.1698374E-04)
 number of electron     247.9999898 magnetization 
 augmentation part       -4.0120557 magnetization 

 Free energy of the ion-electron system (eV)
  ---------------------------------------------------
  alpha Z        PSCENC =       299.82966791
  Ewald energy   TEWEN  =     -9599.89874413
  -Hartree energ DENC   =     -1774.61296073
  -exchange      EXHF   =         0.00000000
  -V(xc)+E(xc)   XCENC  =       206.90827352
  PAW double counting   =     20439.52044224   -19906.64748243
  entropy T*S    EENTRO =         0.01839989
  eigenvalues    EBANDS =       358.88755896
  atomic energy  EATOM  =      9645.50393724
  Solvation  Ediel_sol  =         0.00000000
  ---------------------------------------------------
  free energy    TOTEN  =      -330.49090753 eV

  energy without entropy =     -330.50930742  energy(sigma->0) =     -330.49550750


--------------------------------------------------------------------------------------------------------




 average (electrostatic) potential at core
  the test charge radii are     0.7089  0.9892
  (the norm of the test charge is              1.0000)
       1 -61.3207       2 -61.3207       3 -61.3207       4 -61.3207       5 -61.1512
       6 -61.1512       7 -61.3207       8 -61.3207       9 -61.3207      10 -61.3207
      11 -61.1512      12 -61.1512      13 -61.3207      14 -61.3207      15 -61.3207
      16 -61.3207      17 -61.1512      18 -61.1512      19 -61.3207      20 -61.3207
      21 -61.3207      22 -61.3207      23 -61.1512      24 -61.1512      25 -81.4227
      26 -81.4227      27 -81.4227      28 -81.4227      29 -81.4227      30 -81.4227
      31 -81.4227      32 -81.4227      33 -81.4227      34 -81.4227      35 -81.4227
      36 -81.4227      37 -81.4227      38 -81.4227      39 -81.4227      40 -81.4227
      41 -81.4227      42 -81.4227      43 -81.4227      44 -81.4227      45 -81.4227
      46 -81.4227      47 -81.4227      48 -81.4227      49 -81.4227      50 -81.4227
      51 -81.4227      52 -81.4227      53 -81.4227      54 -81.4227      55 -81.4227
      56 -81.4227
 
 
 
 E-fermi :   9.2266     XC(G=0): -11.2851     alpha+bet :-15.0036


 k-point     1 :       0.0000    0.0000    0.0000
  band No.  band energies     occupation 
      1      -9.5426      2.00000
      2      -8.7262      2.00000
      3      -8.7262      2.00000
      4      -8.7262      2.00000
      5      -8.7262      2.00000
      6      -8.7262      2.00000
      7      -8.7262      2.00000
      8      -8.3989      2.00000
      9      -7.8450      2.00000
     10      -7.7857      2.00000
     11      -7.7857      2.00000
     12      -7.7857      2.00000
     13      -7.7857      2.00000
     14      -7.7857      2.00000
     15      -7.7857      2.00000
     16      -6.7502      2.00000
     17      -6.7502      2.00000
     18      -6.7502      2.00000
     19      -6.7502      2.00000
     20      -6.7502      2.00000
     21      -6.7502      2.00000
     22      -6.6360      2.00000
     23      -6.6360      2.00000
     24      -6.6360      2.00000
     25      -1.2072      2.00000
     26      -1.2072      2.00000
     27      -1.2072      2.00000
     28      -0.9321      2.00000
     29      -0.8322      2.00000
     30      -0.8322      2.00000
     31      -0.8322      2.00000
     32      -0.8322      2.00000
     33      -0.8322      2.00000
     34      -0.8322      2.00000
     35      -0.0069      2.00000
     36      -0.0069      2.00000
     37      -0.0069      2.00000
     38      -0.0069      2.00000
     39      -0.0069      2.00000
     40      -0.0069      2.00000
     41       0.3399      2.00000
     42       0.3399      2.00000
     43       0.3399      2.00000
     44       0.6413      2.00000
     45       0.6413      2.00000
     46       0.6413      2.00000
     47       0.6413      2.00000
     48       0.6413      2.00000
     49       0.6413      2.00000
     50       1.0094      2.00000
     51       1.0094      2.00000
     52       1.0094      2.00000
     53       1.0094      2.00000
     54       1.0094      2.00000
     55       1.0094      2.00000
     56       1.2915      2.00000
     57       1.2915      2.00000
     58       2.6170      2.00000
     59       2.6170      2.00000
     60       2.6170      2.00000
     61       2.6170      2.00000
     62       2.6170      2.00000
     63       2.6170      2.00000
     64       2.6838      2.00000
     65       2.6838      2.00000
     66       2.6838      2.00000
     67       2.6838      2.00000
     68       2.6838      2.00000
     69       2.6838      2.00000
     70       2.7105      2.00000
     71       2.7105      2.00000
     72       2.7105      2.00000
     73       2.7105      2.00000
     74       2.7105      2.00000
     75       2.7105      2.00000
     76       2.8575      2.00000
     77       2.8575      2.00000
     78       2.8575      2.00000
     79       3.2820      2.00000
     80       3.2820      2.00000
     81       3.2820      2.00000
     82       3.2820      2.00000
     83       3.2820      2.00000
     84       3.2820      2.00000
     85       4.5402      2.00000
     86       4.5402      2.00000
     87       4.5402      2.00000
     88       4.5531      2.00000
     89       5.1981      2.00000
     90       5.1981      2.00000
     91       5.1981      2.00000
     92       5.1981      2.00000
     93       5.1981      2.00000
     94       5.1981      2.00000
     95       5.6490      2.00000
     96       5.6490      2.00000
     97       5.6490      2.00000
     98       7.2604      2.00000
     99       7.2604      2.00000
    100       7.2604      2.00000
    101       7.5707      2.00000
    102       7.5707      2.00000
    103       7.5707      2.00000
    104       7.5707      2.00000
    105       7.5707      2.00000
    106       7.5707      2.00000
    107       8.2706      2.00000
    108       8.2706      2.00000
    109       8.2706      2.00000
    110       8.2706      2.00000
    111       8.2706      2.00000
    112       8.2706      2.00000
    113       8.3075      2.00000
    114       8.3075      2.00000
    115       8.3075      2.00000
    116       8.3075      2.00000
    117       8.3075      2.00000
    118       8.3075      2.00000
    119       8.5754      2.00000
    120       8.5754      2.00000
    121       8.5754      2.00000
    122       8.7142      2.00000
    123       8.7142      2.00000
    124       8.7142      2.00000
    125       8.7142      2.00000
    126       8.7142      2.00000
    127       8.7142      2.00000
    128      10.3063      0.00000
    129      10.5339      0.00000
    130      10.5339      0.00000
    131      10.5339      0.00000
    132      10.5339      0.00000
    133      10.5339      0.00000
    134      10.5339      0.00000
    135      10.6822      0.00000
    136      10.6822      0.00000
    137      10.6822      0.00000
    138      10.6822      0.00000
    139      10.6823      0.00000
    140      10.6823      0.00000
    141      10.7071      0.00000
    142      10.7071      0.00000
    143      10.8071      0.00000
    144      10.8071      0.00000
    145      10.8071      0.00000
    146      10.8072      0.00000
    147      10.8072      0.00000
    148      10.8072      0.00000
    149      11.2302      0.00000
    150      11.6066      0.00000
    151      11.6067      0.00000
    152      11.6072      0.00000
    153      12.7315      0.00000
    154      12.8016      0.00000
    155      12.9323      0.00000
    156      12.9742      0.00000

 k-point     2 :       0.2000    0.0000    0.0000
  band No.  band energies     occupation 
      1      -9.4974      2.00000
      2      -8.9314      2.00000
      3      -8.7175      2.00000
      4      -8.7175      2.00000
      5      -8.7175      2.00000
      6      -8.7175      2.00000
      7      -8.5916      2.00000
      8      -8.4127      2.00000
      9      -7.9161      2.00000
     10      -7.8624      2.00000
     11      -7.8135      2.00000
     12      -7.8135      2.00000
     13      -7.8135      2.00000
     14      -7.8135      2.00000
     15      -7.5278      2.00000
     16      -6.7395      2.00000
     17      -6.7395      2.00000
     18      -6.7257      2.00000
     19      -6.7257      2.00000
     20      -6.7257      2.00000
     21      -6.7257      2.00000
     22      -6.7079      2.00000
     23      -6.6474      2.00000
     24      -6.6474      2.00000
     25      -1.1920      2.00000
     26      -1.1920      2.00000
     27      -1.0937      2.00000
     28      -0.8939      2.00000
     29      -0.8939      2.00000
     30      -0.8400      2.00000
     31      -0.7906      2.00000
     32      -0.7906      2.00000
     33      -0.7906      2.00000
     34      -0.7906      2.00000
     35      -0.2642      2.00000
     36      -0.1330      2.00000
     37      -0.1330      2.00000
     38      -0.1330      2.00000
     39      -0.1330      2.00000
     40       0.0684      2.00000
     41       0.0854      2.00000
     42       0.3320      2.00000
     43       0.4452      2.00000
     44       0.4452      2.00000
     45       0.6221      2.00000
     46       0.6221      2.00000
     47       0.6221      2.00000
     48       0.6221      2.00000
     49       0.7912      2.00000
     50       1.0427      2.00000
     51       1.0427      2.00000
     52       1.0974      2.00000
     53       1.0974      2.00000
     54       1.0974      2.00000
     55       1.0974      2.00000
     56       1.3480      2.00000
     57       1.7263      2.00000
     58       2.1655      2.00000
     59       2.2972      2.00000
     60       2.2972      2.00000
     61       2.2972      2.00000
     62       2.2972      2.00000
     63       2.5414      2.00000
     64       2.5449      2.00000
     65       2.5449      2.00000
     66       2.7329      2.00000
     67       2.7329      2.00000
     68       2.7329      2.00000
     69       2.7329      2.00000
     70       2.8012      2.00000
     71       2.8012      2.00000
     72       2.8725      2.00000
     73       2.9380      2.00000
     74       3.1080      2.00000
     75       3.1080      2.00000
     76       3.1080      2.00000
     77       3.1080      2.00000
     78       3.1215      2.00000
     79       3.3188      2.00000
     80       3.3188      2.00000
     81       3.3188      2.00000
     82       3.3188      2.00000
     83       3.4634      2.00000
     84       3.4634      2.00000
     85       4.3593      2.00000
     86       4.3593      2.00000
     87       4.4180      2.00000
     88       4.5523      2.00000
     89       5.0338      2.00000
     90       5.0338      2.00000
     91       5.0338      2.00000
     92       5.0338      2.00000
     93       5.2227      2.00000
     94       5.2227      2.00000
     95       5.5561      2.00000
     96       5.5561      2.00000
     97       5.7542      2.00000
     98       7.0542      2.00000
     99       7.3177      2.00000
    100       7.4216      2.00000
    101       7.5739      2.00000
    102       7.5739      2.00000
    103       7.5739      2.00000
    104       7.5739      2.00000
    105       7.6104      2.00000
    106       7.6104      2.00000
    107       7.9051      2.00000
    108       7.9051      2.00000
    109       7.9051      2.00000
    110       7.9051      2.00000
    111       8.0182      2.00000
    112       8.0888      2.00000
    113       8.2240      2.00000
    114       8.2240      2.00000
    115       8.3884      2.00000
    116       8.3884      2.00000
    117       8.3884      2.00000
    118       8.3884      2.00000
    119       8.5580      2.00000
    120       8.5580      2.00000
    121       8.9543      1.99808
    122       8.9543      1.99808
    123       9.0682      2.01089
    124       9.1376      2.09974
    125       9.1376      2.09974
    126       9.1376      2.09974
    127       9.1376      2.09974
    128      10.1249      0.00000
    129      10.1249      0.00000
    130      10.1249      0.00000
    131      10.1250      0.00000
    132      10.4548      0.00000
    133      10.4701      0.00000
    134      10.5274      0.00000
    135      10.5277      0.00000
    136      10.5502      0.00000
    137      10.6667      0.00000
    138      10.7120      0.00000
    139      10.7392      0.00000
    140      10.7911      0.00000
    141      10.7912      0.00000
    142      10.7912      0.00000
    143      10.7914      0.00000
    144      11.1108      0.00000
    145      11.1108      0.00000
    146      11.1109      0.00000
    147      11.1110      0.00000
    148      11.3366      0.00000
    149      11.5183      0.00000
    150      11.5527      0.00000
    151      11.5531      0.00000
    152      11.6566      0.00000
    153      12.1066      0.00000
    154      12.7277      0.00000
    155      12.7435      0.00000
    156      12.8212      0.00000

 k-point     3 :       0.4000    0.0000    0.0000
  band No.  band energies     occupation 
      1      -9.3659      2.00000
      2      -9.1649      2.00000
      3      -8.7026      2.00000
      4      -8.7026      2.00000
      5      -8.7026      2.00000
      6      -8.7026      2.00000
      7      -8.5086      2.00000
      8      -8.4508      2.00000
      9      -7.9366      2.00000
     10      -7.9032      2.00000
     11      -7.8571      2.00000
     12      -7.8571      2.00000
     13      -7.8571      2.00000
     14      -7.8571      2.00000
     15      -7.2070      2.00000
     16      -6.9111      2.00000
     17      -6.7115      2.00000
     18      -6.7115      2.00000
     19      -6.6881      2.00000
     20      -6.6881      2.00000
     21      -6.6881      2.00000
     22      -6.6881      2.00000
     23      -6.6763      2.00000
     24      -6.6763      2.00000
     25      -1.1329      2.00000
     26      -1.1329      2.00000
     27      -1.0220      2.00000
     28      -1.0220      2.00000
     29      -0.7723      2.00000
     30      -0.6800      2.00000
     31      -0.6800      2.00000
     32      -0.6800      2.00000
     33      -0.6800      2.00000
     34      -0.5845      2.00000
     35      -0.3918      2.00000
     36      -0.3593      2.00000
     37      -0.3593      2.00000
     38      -0.3593      2.00000
     39      -0.3593      2.00000
     40      -0.3132      2.00000
     41      -0.2224      2.00000
     42      -0.1089      2.00000
     43       0.5982      2.00000
     44       0.5982      2.00000
     45       0.5982      2.00000
     46       0.5982      2.00000
     47       0.7095      2.00000
     48       0.7095      2.00000
     49       0.9758      2.00000
     50       0.9758      2.00000
     51       1.2306      2.00000
     52       1.2306      2.00000
     53       1.2306      2.00000
     54       1.2306      2.00000
     55       1.2769      2.00000
     56       1.5173      2.00000
     57       1.7933      2.00000
     58       1.9164      2.00000
     59       2.0297      2.00000
     60       2.0297      2.00000
[...]
    120       8.9448      1.99924
    121       8.9448      1.99924
    122       9.0596      1.99430
    123       9.0596      1.99430
    124       9.0596      1.99430
    125       9.9038      0.00000
    126       9.9038      0.00000
    127       9.9038      0.00000
    128      10.0381      0.00000
    129      10.0381      0.00000
    130      10.0652      0.00000
    131      10.0652      0.00000
    132      10.0652      0.00000
    133      10.4336      0.00000
    134      10.4336      0.00000
    135      10.4336      0.00000
    136      10.8257      0.00000
    137      10.8257      0.00000
    138      10.8257      0.00000
    139      10.9684      0.00000
    140      10.9684      0.00000
    141      10.9816      0.00000
    142      11.2368      0.00000
    143      11.2368      0.00000
    144      11.2368      0.00000
    145      11.5059      0.00000
    146      11.5059      0.00000
    147      11.5061      0.00000
    148      11.5518      0.00000
    149      11.5520      0.00000
    150      11.5534      0.00000
    151      11.7458      0.00000
    152      11.7485      0.00000
    153      11.8336      0.00000
    154      11.8677      0.00000
    155      11.8862      0.00000
    156      11.8941      0.00000


--------------------------------------------------------------------------------------------------------


 soft charge-density along one line, spin component           1
         0         1         2         3         4         5         6         7         8         9
 total charge-density along one line
 
 pseudopotential strength for first ion, spin component:           1
 12.402  14.865   0.000  -0.000  -0.000   0.000  -0.000  -0.000
 14.865  17.818   0.000  -0.000  -0.000   0.000  -0.000  -0.000
  0.000   0.000  -5.884  -0.003   0.003  -7.847  -0.005   0.005
 -0.000  -0.000  -0.003  -5.884  -0.003  -0.005  -7.847  -0.005
 -0.000  -0.000   0.003  -0.003  -5.884   0.005  -0.005  -7.847
  0.000   0.000  -7.847  -0.005   0.005  -9.752  -0.008   0.008
 -0.000  -0.000  -0.005  -7.847  -0.005  -0.008  -9.752  -0.008
 -0.000  -0.000   0.005  -0.005  -7.847   0.008  -0.008  -9.752
 total augmentation occupancy for first ion, spin component:           1
  5.464  -2.499   0.000  -0.000  -0.000   0.000  -0.000   0.000
 -2.499   1.705   0.000  -0.000   0.000   0.000   0.000   0.000
  0.000   0.000   1.767  -0.043   0.043  -0.258   0.003  -0.003
 -0.000  -0.000  -0.043   1.767  -0.043   0.003  -0.258   0.003
 -0.000   0.000   0.043  -0.043   1.767  -0.003   0.003  -0.258
  0.000   0.000  -0.258   0.003  -0.003   0.048   0.001  -0.001
 -0.000   0.000   0.003  -0.258   0.003   0.001   0.048   0.001
  0.000   0.000  -0.003   0.003  -0.258  -0.001   0.001   0.048


------------------------ aborting loop because EDIFF is reached ----------------------------------------


    CHARGE:  cpu time    2.2162: real time    2.2166
    FORLOC:  cpu time    0.0580: real time    0.0580
    FORNL :  cpu time    2.1451: real time    2.1452
    STRESS:  cpu time    5.7770: real time    5.7769
    FORCOR:  cpu time    0.1073: real time    0.1072
    FORHAR:  cpu time    0.0474: real time    0.0474
    MIXING:  cpu time    0.0021: real time    0.0021
    OFIELD:  cpu time    0.0000: real time    0.0000

  FORCE on cell =-STRESS in cart. coord.  units (eV):
  Direction    XX          YY          ZZ          XY          YZ          ZX
  --------------------------------------------------------------------------------------
  Alpha Z   299.82967   299.82967   299.82967
  Ewald   -3199.78658 -3199.78658 -3199.78658     0.00000    -0.00000     0.00000
  Hartree   591.84153   591.84153   591.84153    -0.00000    -0.00000    -0.00000
  E(xc)    -914.99439  -914.99439  -914.99439    -0.00000    -0.00000    -0.00000
  Local    -804.15893  -804.15893  -804.15893    -0.00000    -0.00000    -0.00000
  n-local   973.53964   974.28747   975.51460     0.09103     1.28327     0.33456
  augment  -181.71887  -181.71887  -181.71887    -0.00000    -0.00000     0.00000
  Kinetic  3215.77029  3227.25734  3236.79091    -2.73147    -3.28780    -1.40132
  Fock        0.00000     0.00000     0.00000     0.00000     0.00000     0.00000
  -------------------------------------------------------------------------------------
  Total      -7.93415    -7.93415    -7.93415    -0.00000    -0.00000    -0.00000
  in kB     -19.54084   -19.54084   -19.54084    -0.00000    -0.00000    -0.00000
  external pressure =      -19.54 kB  Pullay stress =        0.00 kB


 VOLUME and BASIS-vectors are now :
 -----------------------------------------------------------------------------
  energy-cutoff  :      400.00
  volume of cell :      650.53
      direct lattice vectors                 reciprocal lattice vectors
     8.664748838  0.000000000  0.000000000     0.115410154 -0.000000000  0.000000000
     0.000000000  8.664748838  0.000000000    -0.000000000  0.115410154  0.000000000
     0.000000000  0.000000000  8.664748838    -0.000000000 -0.000000000  0.115410154

  length of vectors
     8.664748838  8.664748838  8.664748838     0.115410154  0.115410154  0.115410154


 FORCES acting on ions
    electron-ion (+dipol)            ewald-force                    non-local-force                 convergence-correction
 -----------------------------------------------------------------------------------------------
   0.292E-11 -.133E-11 -.122E-11   0.161E-14 0.142E-13 -.351E-13   -.193E-22 -.984E-22 -.303E-21   -.273E-12 -.192E-12 -.414E-12
   -.212E-12 -.150E-11 -.472E-12   0.906E-14 -.254E-14 0.133E-14   0.279E-21 0.566E-21 -.582E-21   0.232E-12 -.721E-12 -.700E-12
   -.322E-12 -.661E-13 -.293E-12   -.533E-14 0.888E-14 0.178E-13   -.225E-21 0.907E-23 -.389E-22   -.314E-12 -.362E-12 0.910E-12
   -.250E-13 0.250E-12 0.135E-11   0.222E-13 0.347E-13 0.683E-14   0.202E-21 -.218E-21 0.168E-21   0.771E-12 -.155E-12 -.458E-12
   0.886E-13 0.100E-12 -.315E-12   -.284E-13 -.195E-13 0.444E-13   0.220E-17 0.395E-17 -.492E-17   0.414E-12 0.321E-12 -.549E-13
   0.989E-14 0.132E-14 0.134E-12   -.124E-13 0.711E-14 -.533E-14   0.424E-17 -.153E-17 -.910E-18   -.102E-12 -.143E-11 0.141E-11
   -.168E-11 -.397E-12 -.157E-11   0.161E-13 0.533E-14 -.142E-13   -.615E-22 0.129E-21 -.854E-22   -.332E-13 0.554E-12 0.129E-11
   0.744E-14 0.563E-12 -.112E-11   -.144E-13 0.252E-14 -.977E-14   -.474E-21 0.139E-21 0.577E-21   0.345E-12 0.271E-12 -.970E-13
   -.165E-12 0.808E-13 -.443E-12   -.888E-14 0.142E-13 0.249E-13   0.209E-21 -.382E-21 0.627E-21   0.355E-13 0.503E-12 0.160E-12
   -.282E-13 -.153E-12 0.723E-12   0.204E-13 0.395E-13 0.324E-13   -.606E-22 -.464E-22 0.167E-21   -.440E-12 0.555E-12 0.449E-13
   0.360E-13 -.120E-12 -.986E-13   -.284E-13 -.382E-13 0.662E-13   -.243E-18 0.380E-17 -.185E-18   -.215E-12 0.118E-12 0.277E-12
   0.296E-13 0.136E-12 0.112E-15   0.000E+00 0.355E-13 -.142E-13   0.377E-17 -.740E-17 0.292E-17   -.251E-13 0.100E-12 -.748E-12
   0.534E-12 0.540E-13 -.871E-12   0.172E-13 0.200E-13 0.361E-14   0.122E-21 0.133E-22 -.143E-21   0.348E-12 -.405E-12 0.710E-13
   0.260E-11 -.265E-11 0.299E-12   0.260E-13 -.119E-13 -.888E-15   -.664E-22 0.252E-21 -.572E-22   -.511E-13 -.404E-12 -.716E-12
   0.304E-13 0.501E-12 0.988E-12   0.178E-14 0.213E-13 0.142E-13   0.241E-21 -.217E-22 -.490E-22   -.681E-13 0.220E-12 -.533E-12
   0.845E-13 0.892E-13 0.295E-13   0.426E-13 0.360E-13 0.101E-14   0.622E-22 -.421E-23 0.110E-22   0.258E-12 -.823E-12 0.777E-13
   0.197E-12 -.223E-11 -.146E-11   -.178E-14 -.187E-13 0.373E-13   -.308E-17 0.154E-17 0.819E-18   0.481E-12 0.171E-12 -.110E-11
   0.115E-12 0.855E-14 -.132E-11   0.115E-13 0.266E-14 -.400E-13   -.759E-18 -.321E-17 0.464E-17   0.579E-13 -.196E-12 0.351E-12
   -.450E-12 -.613E-13 -.248E-12   0.749E-15 -.142E-13 0.113E-13   -.449E-22 -.209E-21 -.721E-22   0.177E-12 -.824E-13 -.415E-12
   -.567E-12 0.452E-12 -.493E-12   0.797E-14 -.619E-14 -.284E-13   -.669E-22 -.215E-21 -.172E-21   -.167E-12 0.104E-11 0.894E-12
   0.161E-13 0.529E-12 0.163E-11   0.533E-14 -.178E-14 0.195E-13   -.337E-21 0.506E-21 -.311E-21   0.354E-12 0.327E-12 -.199E-12
   0.699E-12 0.406E-12 -.293E-12   0.355E-13 0.394E-13 0.353E-13   -.231E-21 0.323E-21 -.559E-22   -.455E-12 0.971E-13 -.219E-12
   0.213E-12 -.320E-11 -.244E-11   0.977E-14 -.657E-13 0.364E-13   -.415E-17 0.754E-17 -.249E-17   -.520E-12 -.220E-12 -.907E-12
   0.118E-12 0.839E-12 0.205E-13   0.311E-13 0.258E-13 -.355E-14   -.632E-19 -.402E-17 0.103E-17   0.349E-13 0.122E-11 0.658E-12
   -.259E+01 -.259E+01 -.259E+01   0.332E+01 0.332E+01 0.332E+01   -.731E+00 -.731E+00 -.731E+00   -.488E-03 -.488E-03 -.488E-03
   0.259E+01 -.259E+01 -.259E+01   -.332E+01 0.332E+01 0.332E+01   0.731E+00 -.731E+00 -.731E+00   0.488E-03 -.488E-03 -.488E-03
   -.259E+01 -.259E+01 0.259E+01   0.332E+01 0.332E+01 -.332E+01   -.731E+00 -.731E+00 0.731E+00   -.488E-03 -.488E-03 0.488E-03
   -.259E+01 0.259E+01 -.259E+01   0.332E+01 -.332E+01 0.332E+01   -.731E+00 0.731E+00 -.731E+00   -.488E-03 0.488E-03 -.488E-03
   0.259E+01 0.259E+01 -.259E+01   -.332E+01 -.332E+01 0.332E+01   0.731E+00 0.731E+00 -.731E+00   0.488E-03 0.488E-03 -.488E-03
   0.259E+01 -.259E+01 0.259E+01   -.332E+01 0.332E+01 -.332E+01   0.731E+00 -.731E+00 0.731E+00   0.488E-03 -.488E-03 0.488E-03
   0.259E+01 0.259E+01 0.259E+01   -.332E+01 -.332E+01 -.332E+01   0.731E+00 0.731E+00 0.731E+00   0.488E-03 0.488E-03 0.488E-03
   -.259E+01 0.259E+01 0.259E+01   0.332E+01 -.332E+01 -.332E+01   -.731E+00 0.731E+00 0.731E+00   -.488E-03 0.488E-03 0.488E-03
   -.259E+01 -.259E+01 -.259E+01   0.332E+01 0.332E+01 0.332E+01   -.731E+00 -.731E+00 -.731E+00   -.488E-03 -.488E-03 -.488E-03
   0.259E+01 -.259E+01 -.259E+01   -.332E+01 0.332E+01 0.332E+01   0.731E+00 -.731E+00 -.731E+00   0.488E-03 -.488E-03 -.488E-03
   -.259E+01 -.259E+01 0.259E+01   0.332E+01 0.332E+01 -.332E+01   -.731E+00 -.731E+00 0.731E+00   -.488E-03 -.488E-03 0.488E-03
   -.259E+01 0.259E+01 -.259E+01   0.332E+01 -.332E+01 0.332E+01   -.731E+00 0.731E+00 -.731E+00   -.488E-03 0.488E-03 -.488E-03
   0.259E+01 0.259E+01 -.259E+01   -.332E+01 -.332E+01 0.332E+01   0.731E+00 0.731E+00 -.731E+00   0.488E-03 0.488E-03 -.488E-03
   0.259E+01 -.259E+01 0.259E+01   -.332E+01 0.332E+01 -.332E+01   0.731E+00 -.731E+00 0.731E+00   0.488E-03 -.488E-03 0.488E-03
   0.259E+01 0.259E+01 0.259E+01   -.332E+01 -.332E+01 -.332E+01   0.731E+00 0.731E+00 0.731E+00   0.488E-03 0.488E-03 0.488E-03
   -.259E+01 0.259E+01 0.259E+01   0.332E+01 -.332E+01 -.332E+01   -.731E+00 0.731E+00 0.731E+00   -.488E-03 0.488E-03 0.488E-03
   -.259E+01 -.259E+01 -.259E+01   0.332E+01 0.332E+01 0.332E+01   -.731E+00 -.731E+00 -.731E+00   -.488E-03 -.488E-03 -.488E-03
   0.259E+01 -.259E+01 -.259E+01   -.332E+01 0.332E+01 0.332E+01   0.731E+00 -.731E+00 -.731E+00   0.488E-03 -.488E-03 -.488E-03
   -.259E+01 -.259E+01 0.259E+01   0.332E+01 0.332E+01 -.332E+01   -.731E+00 -.731E+00 0.731E+00   -.488E-03 -.488E-03 0.488E-03
   -.259E+01 0.259E+01 -.259E+01   0.332E+01 -.332E+01 0.332E+01   -.731E+00 0.731E+00 -.731E+00   -.488E-03 0.488E-03 -.488E-03
   0.259E+01 0.259E+01 -.259E+01   -.332E+01 -.332E+01 0.332E+01   0.731E+00 0.731E+00 -.731E+00   0.488E-03 0.488E-03 -.488E-03
   0.259E+01 -.259E+01 0.259E+01   -.332E+01 0.332E+01 -.332E+01   0.731E+00 -.731E+00 0.731E+00   0.488E-03 -.488E-03 0.488E-03
   0.259E+01 0.259E+01 0.259E+01   -.332E+01 -.332E+01 -.332E+01   0.731E+00 0.731E+00 0.731E+00   0.488E-03 0.488E-03 0.488E-03
   -.259E+01 0.259E+01 0.259E+01   0.332E+01 -.332E+01 -.332E+01   -.731E+00 0.731E+00 0.731E+00   -.488E-03 0.488E-03 0.488E-03
   -.259E+01 -.259E+01 -.259E+01   0.332E+01 0.332E+01 0.332E+01   -.731E+00 -.731E+00 -.731E+00   -.488E-03 -.488E-03 -.488E-03
   0.259E+01 -.259E+01 -.259E+01   -.332E+01 0.332E+01 0.332E+01   0.731E+00 -.731E+00 -.731E+00   0.488E-03 -.488E-03 -.488E-03
   -.259E+01 -.259E+01 0.259E+01   0.332E+01 0.332E+01 -.332E+01   -.731E+00 -.731E+00 0.731E+00   -.488E-03 -.488E-03 0.488E-03
   -.259E+01 0.259E+01 -.259E+01   0.332E+01 -.332E+01 0.332E+01   -.731E+00 0.731E+00 -.731E+00   -.488E-03 0.488E-03 -.488E-03
   0.259E+01 0.259E+01 -.259E+01   -.332E+01 -.332E+01 0.332E+01   0.731E+00 0.731E+00 -.731E+00   0.488E-03 0.488E-03 -.488E-03
   0.259E+01 -.259E+01 0.259E+01   -.332E+01 0.332E+01 -.332E+01   0.731E+00 -.731E+00 0.731E+00   0.488E-03 -.488E-03 0.488E-03
   0.259E+01 0.259E+01 0.259E+01   -.332E+01 -.332E+01 -.332E+01   0.731E+00 0.731E+00 0.731E+00   0.488E-03 0.488E-03 0.488E-03
   -.259E+01 0.259E+01 0.259E+01   0.332E+01 -.332E+01 -.332E+01   -.731E+00 0.731E+00 0.731E+00   -.488E-03 0.488E-03 0.488E-03
 -----------------------------------------------------------------------------------------------
   0.137E-11 -.468E-11 -.548E-11   0.533E-14 -.373E-13 0.124E-13   0.400E-14 -.155E-14 0.555E-15   0.823E-12 0.453E-12 -.454E-12
 
 
 POSITION                                       TOTAL-FORCE (eV/Angst)
 -----------------------------------------------------------------------------------
      7.58166      7.58166      1.08309         0.000000      0.000000      0.000000
      3.24928      1.08309      3.24928         0.000000      0.000000      0.000000
      5.41547      7.58166      3.24928         0.000000      0.000000      0.000000
      1.08309      1.08309      1.08309         0.000000      0.000000      0.000000
      2.16619      6.49856      2.16619         0.000000      0.000000      0.000000
     -0.00000     -0.00000      4.33237         0.000000      0.000000      0.000000
      7.58166      3.24928      5.41547         0.000000      0.000000      0.000000
      3.24928      5.41547      7.58166         0.000000      0.000000      0.000000
      5.41547      3.24928      7.58166         0.000000      0.000000      0.000000
      1.08309      5.41547      5.41547         0.000000      0.000000      0.000000
      2.16619      2.16619      6.49856         0.000000      0.000000      0.000000
      0.00000      4.33237      0.00000         0.000000      0.000000      0.000000
      3.24928      7.58166      5.41547         0.000000      0.000000      0.000000
      7.58166      1.08309      7.58166         0.000000      0.000000      0.000000
      1.08309      7.58166      7.58166         0.000000      0.000000      0.000000
      5.41547      1.08309      5.41547         0.000000      0.000000      0.000000
      6.49856      6.49856      6.49856         0.000000      0.000000      0.000000
      4.33237      0.00000      0.00000         0.000000      0.000000      0.000000
      3.24928      3.24928      1.08309         0.000000      0.000000      0.000000
      7.58166      5.41547      3.24928         0.000000      0.000000      0.000000
      1.08309      3.24928      3.24928         0.000000      0.000000      0.000000
      5.41547      5.41547      1.08309         0.000000      0.000000      0.000000
      6.49856      2.16619      2.16619         0.000000      0.000000      0.000000
      4.33237      4.33237      4.33237         0.000000      0.000000      0.000000
      3.25856      3.25856      3.25856        -0.000320     -0.000320     -0.000320
      7.57237      1.09238      1.09238         0.000320     -0.000320     -0.000320
      5.42475      1.09238      3.24000        -0.000320     -0.000320      0.000320
      1.09238      7.57237      1.09238        -0.000320      0.000320     -0.000320
      1.07381      1.07381      3.25856         0.000320      0.000320     -0.000320
      1.07381      3.25856      1.07381         0.000320     -0.000320      0.000320
      3.24000      7.57237      3.24000         0.000320      0.000320      0.000320
      3.25856      1.07381      1.07381        -0.000320      0.000320      0.000320
      3.25856      7.59094      7.59094        -0.000320     -0.000320     -0.000320
      7.57237      5.42475      5.42475         0.000320     -0.000320     -0.000320
      5.42475      5.42475      7.57237        -0.000320     -0.000320      0.000320
      1.09238      3.24000      5.42475        -0.000320      0.000320     -0.000320
      1.07381      5.40619      7.59094         0.000320      0.000320     -0.000320
      1.07381      7.59094      5.40619         0.000320     -0.000320      0.000320
      3.24000      3.24000      7.57237         0.000320      0.000320      0.000320
      3.25856      5.40619      5.40619        -0.000320      0.000320      0.000320
      7.59094      3.25856      7.59094        -0.000320     -0.000320     -0.000320
      3.24000      1.09238      5.42475         0.000320     -0.000320     -0.000320
      1.09238      1.09238      7.57237        -0.000320     -0.000320      0.000320
      5.42475      7.57237      5.42475        -0.000320      0.000320     -0.000320
      5.40619      1.07381      7.59094         0.000320      0.000320     -0.000320
      5.40619      3.25856      5.40619         0.000320     -0.000320      0.000320
      7.57237      7.57237      7.57237         0.000320      0.000320      0.000320
      7.59094      1.07381      5.40619        -0.000320      0.000320      0.000320
      7.59094      7.59094      3.25856        -0.000320     -0.000320     -0.000320
      3.24000      5.42475      1.09238         0.000320     -0.000320     -0.000320
      1.09238      5.42475      3.24000        -0.000320     -0.000320      0.000320
      5.42475      3.24000      1.09238        -0.000320      0.000320     -0.000320
      5.40619      5.40619      3.25856         0.000320      0.000320     -0.000320
      5.40619      7.59094      1.07381         0.000320     -0.000320      0.000320
      7.57237      3.24000      3.24000         0.000320      0.000320      0.000320
      7.59094      5.40619      1.07381        -0.000320      0.000320      0.000320
 -----------------------------------------------------------------------------------
    total drift:                                0.000000     -0.000000     -0.000000


--------------------------------------------------------------------------------------------------------



  FREE ENERGIE OF THE ION-ELECTRON SYSTEM (eV)
  ---------------------------------------------------
  free  energy   TOTEN  =      -330.49714432 eV

  energy  without entropy=     -330.51455015  energy(sigma->0) =     -330.50149578
 
 d Force = 0.1732771E-02[-0.329E-04, 0.350E-02]  d Energy = 0.1659324E-02 0.734E-04
 d Force = 0.3551373E+00[ 0.341E+00, 0.369E+00]  d Ewald  = 0.3551411E+00-0.374E-05


--------------------------------------------------------------------------------------------------------


    POTLOK:  cpu time    0.0842: real time    0.0848


--------------------------------------------------------------------------------------------------------




--------------------------------------------------------------------------------------------------------


  
 reached required accuracy - stopping structural energy minimisation
     LOOP+:  cpu time   30.9845: real time   31.1845
    4ORBIT:  cpu time    0.0000: real time    0.0000

 total amount of memory used by VASP MPI-rank0    75404. kBytes
=======================================================================

   base      :      30000. kBytes
   nonlr-proj:      11861. kBytes
   fftplans  :       5454. kBytes
   grid      :       8702. kBytes
   one-center:         43. kBytes
   wavefun   :      19344. kBytes
 
  
  
 General timing and accounting informations for this job:
 ========================================================
  
                  Total CPU time used (sec):      171.739
                            User time (sec):      170.733
                          System time (sec):        1.006
                         Elapsed time (sec):      173.729
  
                   Maximum memory used (kb):      100152.
                   Average memory used (kb):           0.
  
                          Minor page faults:       235217
                          Major page faults:            6
                 Voluntary context switches:         5742
