<?xml version="1.0" encoding="ISO-8859-1"?>
<modeling>
 <generator>
  <i name="program" type="string">vasp </i>
  <i name="version" type="string">5.4.4.18Apr17-6-g9f103f2a35  </i>
  <i name="subversion" type="string">(build Nov 01 2019 12:17:22) complex            parallel </i>
  <i name="platform" type="string">LinuxIFC </i>
  <i name="date" type="string">2023 05 19 </i>
  <i name="time" type="string">18:21:55 </i>
 </generator>
 <incar>
  <i type="string" name="PREC">accurate</i>
  <i type="string" name="ALGO"> Fast</i>
  <i type="int" name="IBRION">     2</i>
  <i type="int" name="NSW">   100</i>
  <i type="int" name="ISIF">     2</i>
  <i type="string" name="LREAL"> Auto</i>
  <i type="int" name="ISMEAR">     2</i>
  <i name="SIGMA">      0.10000000</i>
  <i type="logical" name="LWAVE"> F  </i>
  <i type="logical" name="LCHARG"> F  </i>
  <v type="int" name="KPOINT_BSE">    -1     0     0     0</v>
 </incar>
 <structure name="primitive_cell" >
  <crystal>
   <varray name="basis" >
    <v>       4.33237442       4.33237442       0.00000000 </v>
    <v>       4.33237442       0.00000000      -4.33237442 </v>
    <v>       0.00000000       4.33237442      -4.33237442 </v>
   </varray>
   <i name="volume">    162.63272699 </i>
   <varray name="rec_basis" >
    <v>       0.11541015       0.11541015       0.11541015 </v>
    <v>       0.11541015      -0.11541015      -0.11541015 </v>
    <v>      -0.11541015       0.11541015      -0.11541015 </v>
   </varray>
  </crystal>
  <varray name="positions" >
   <v>      -0.12500000      -0.12500000      -0.12500000 </v>
   <v>       0.12630293      -0.37890880       0.12630293 </v>
   <v>       0.12630293       0.12630293      -0.37890880 </v>
   <v>      -0.37890880       0.12630293       0.12630293 </v>
   <v>       0.12890880      -0.37630293      -0.37630293 </v>
   <v>      -0.37630293      -0.37630293       0.12890880 </v>
   <v>      -0.37630293       0.12890880      -0.37630293 </v>
   <v>      -0.12500000       0.37500000      -0.12500000 </v>
   <v>      -0.12500000      -0.12500000       0.37500000 </v>
   <v>       0.37500000      -0.12500000      -0.12500000 </v>
   <v>      -0.50000000      -0.50000000      -0.50000000 </v>
   <v>       0.25000000       0.25000000       0.25000000 </v>
   <v>       0.12630293       0.12630293       0.12630293 </v>
   <v>      -0.37630293      -0.37630293      -0.37630293 </v>
  </varray>
 </structure>
 <varray name="primitive_index" >
  <v type="int" >        1 </v>
  <v type="int" >       26 </v>
  <v type="int" >       28 </v>
  <v type="int" >       47 </v>
  <v type="int" >       49 </v>
  <v type="int" >       54 </v>
  <v type="int" >       56 </v>
  <v type="int" >        3 </v>
  <v type="int" >       14 </v>
  <v type="int" >        4 </v>
  <v type="int" >       12 </v>
  <v type="int" >       23 </v>
  <v type="int" >       27 </v>
  <v type="int" >       37 </v>
 </varray>
 <kpoints>
  <generation param="Auto">
   <i name="subdivisionlength">     45.00000000 </i>
   <v type="int" name="divisions">       5        5        5 </v>
   <v name="usershift">      0.00000000       0.00000000       0.00000000 </v>
   <v name="genvec1">      0.20000000       0.00000000       0.00000000 </v>
   <v name="genvec2">      0.00000000       0.20000000       0.00000000 </v>
   <v name="genvec3">      0.00000000      -0.00000000       0.20000000 </v>
   <v name="shift">      0.00000000       0.00000000       0.00000000 </v>
  </generation>
  <varray name="kpointlist" >
   <v>       0.00000000       0.00000000       0.00000000 </v>
   <v>       0.20000000       0.00000000       0.00000000 </v>
   <v>       0.40000000       0.00000000       0.00000000 </v>
   <v>       0.20000000       0.20000000       0.00000000 </v>
   <v>       0.40000000       0.20000000       0.00000000 </v>
   <v>       0.40000000       0.40000000       0.00000000 </v>
   <v>       0.20000000       0.20000000       0.20000000 </v>
   <v>       0.40000000       0.20000000       0.20000000 </v>
   <v>       0.40000000       0.40000000       0.20000000 </v>
   <v>       0.40000000       0.40000000       0.40000000 </v>
  </varray>
  <varray name="weights" >
   <v>       0.00800000 </v>
   <v>       0.04800000 </v>
   <v>       0.04800000 </v>
   <v>       0.09600000 </v>
   <v>       0.19200000 </v>
   <v>       0.09600000 </v>
   <v>       0.06400000 </v>
   <v>       0.19200000 </v>
   <v>       0.19200000 </v>
   <v>       0.06400000 </v>
  </varray>
 </kpoints>
 <parameters>
  <separator name="general" >
   <i type="string" name="SYSTEM">unknown system</i>
   <i type="logical" name="LCOMPAT"> F  </i>
  </separator>
  <separator name="electronic" >
   <i type="string" name="PREC">accura</i>
   <i name="ENMAX">    400.00000000</i>
   <i name="ENAUG">    627.11200000</i>
   <i name="EDIFF">      0.00010000</i>
   <i type="int" name="IALGO">    68</i>
   <i type="int" name="IWAVPR">    11</i>
   <i type="int" name="NBANDS">   156</i>
   <i name="NELECT">    248.00000000</i>
   <i type="int" name="TURBO">     0</i>
   <i type="int" name="IRESTART">     0</i>
   <i type="int" name="NREBOOT">     0</i>
   <i type="int" name="NMIN">     0</i>
   <i name="EREF">      0.00000000</i>
   <separator name="electronic smearing" >
    <i type="int" name="ISMEAR">     2</i>
    <i name="SIGMA">      0.10000000</i>
    <i name="KSPACING">      0.50000000</i>
    <i type="logical" name="KGAMMA"> T  </i>
   </separator>
   <separator name="electronic projectors" >
    <i type="logical" name="LREAL"> T  </i>
    <v name="ROPT">     -0.00025000     -0.00025000</v>
    <i type="int" name="LMAXPAW">  -100</i>
    <i type="int" name="LMAXMIX">     2</i>
    <i type="logical" name="NLSPLINE"> F  </i>
   </separator>
   <separator name="electronic startup" >
    <i type="int" name="ISTART">     0</i>
    <i type="int" name="ICHARG">     2</i>
    <i type="int" name="INIWAV">     1</i>
   </separator>
   <separator name="electronic spin" >
    <i type="int" name="ISPIN">     1</i>
    <i type="logical" name="LNONCOLLINEAR"> F  </i>
    <v name="MAGMOM">      1.00000000      1.00000000      1.00000000      1.00000000      1.00000000      1.00000000      1.00000000      1.00000000      1.00000000      1.00000000      1.00000000      1.00000000      1.00000000      1.00000000      1.00000000      1.00000000      1.00000000      1.00000000      1.00000000      1.00000000
      1.00000000      1.00000000      1.00000000      1.00000000      1.00000000      1.00000000      1.00000000      1.00000000      1.00000000      1.00000000      1.00000000      1.00000000      1.00000000      1.00000000      1.00000000      1.00000000      1.00000000      1.00000000      1.00000000      1.00000000
      1.00000000      1.00000000      1.00000000      1.00000000      1.00000000      1.00000000      1.00000000      1.00000000      1.00000000      1.00000000      1.00000000      1.00000000      1.00000000      1.00000000      1.00000000      1.00000000</v>
    <i name="NUPDOWN">     -1.00000000</i>
    <i type="logical" name="LSORBIT"> F  </i>
    <v name="SAXIS">      0.00000000      0.00000000      1.00000000</v>
    <i type="logical" name="LSPIRAL"> F  </i>
    <v name="QSPIRAL">      0.00000000      0.00000000      0.00000000</v>
    <i type="logical" name="LZEROZ"> F  </i>
   </separator>
   <separator name="electronic exchange-correlation" >
    <i type="logical" name="LASPH"> F  </i>
    <i type="logical" name="LMETAGGA"> F  </i>
   </separator>
   <separator name="electronic convergence" >
    <i type="int" name="NELM">    60</i>
    <i type="int" name="NELMDL">    -5</i>
    <i type="int" name="NELMIN">     2</i>
    <i name="ENINI">    400.00000000</i>
    <separator name="electronic convergence detail" >
     <i type="logical" name="LDIAG"> T  </i>
     <i type="logical" name="LSUBROT"> F  </i>
     <i name="WEIMIN">      0.00100000</i>
     <i name="EBREAK">      0.00000016</i>
     <i name="DEPER">      0.30000000</i>
     <i type="int" name="NRMM">     4</i>
     <i name="TIME">      0.40000000</i>
    </separator>
   </separator>
   <separator name="electronic mixer" >
    <i name="AMIX">      0.40000000</i>
    <i name="BMIX">      1.00000000</i>
    <i name="AMIN">      0.10000000</i>
    <i name="AMIX_MAG">      1.60000000</i>
    <i name="BMIX_MAG">      1.00000000</i>
    <separator name="electronic mixer details" >
     <i type="int" name="IMIX">     4</i>
     <i type="logical" name="MIXFIRST"> F  </i>
     <i type="int" name="MAXMIX">   -45</i>
     <i name="WC">    100.00000000</i>
     <i type="int" name="INIMIX">     1</i>
     <i type="int" name="MIXPRE">     1</i>
     <i type="int" name="MREMOVE">     5</i>
    </separator>
   </separator>
   <separator name="electronic dipolcorrection" >
    <i type="logical" name="LDIPOL"> F  </i>
    <i type="logical" name="LMONO"> F  </i>
    <i type="int" name="IDIPOL">     0</i>
    <i name="EPSILON">      1.00000000</i>
    <v name="DIPOL">   -100.00000000   -100.00000000   -100.00000000</v>
    <i name="EFIELD">      0.00000000</i>
   </separator>
  </separator>
  <separator name="grids" >
   <i type="int" name="NGX">    60</i>
   <i type="int" name="NGY">    60</i>
   <i type="int" name="NGZ">    60</i>
   <i type="int" name="NGXF">   120</i>
   <i type="int" name="NGYF">   120</i>
   <i type="int" name="NGZF">   120</i>
   <i type="logical" name="ADDGRID"> F  </i>
  </separator>
  <separator name="ionic" >
   <i type="int" name="NSW">   100</i>
   <i type="int" name="IBRION">     2</i>
   <i type="int" name="MDALGO">     0</i>
   <i type="int" name="ISIF">     2</i>
   <i name="PSTRESS">      0.00000000</i>
   <i name="EDIFFG">      0.00100000</i>
   <i type="int" name="NFREE">     1</i>
   <i name="POTIM">      0.50000000</i>
   <i name="SMASS">     -3.00000000</i>
   <i name="SCALEE">      1.00000000</i>
  </separator>
  <separator name="ionic md" >
   <i name="TEBEG">      0.00010000</i>
   <i name="TEEND">      0.00010000</i>
   <i type="int" name="NBLOCK">     1</i>
   <i type="int" name="KBLOCK">   100</i>
   <i type="int" name="NPACO">   256</i>
   <i name="APACO">     16.00000000</i>
  </separator>
  <separator name="symmetry" >
   <i type="int" name="ISYM">     2</i>
   <i name="SYMPREC">      0.00001000</i>
  </separator>
  <separator name="dos" >
   <i type="int" name="LORBIT">     0</i>
   <v name="RWIGS">     -1.00000000     -1.00000000</v>
   <i type="int" name="NEDOS">   301</i>
   <i name="EMIN">     10.00000000</i>
   <i name="EMAX">    -10.00000000</i>
   <i name="EFERMI">      0.00000000</i>
  </separator>
  <separator name="writing" >
   <i type="int" name="NWRITE">     2</i>
   <i type="logical" name="LWAVE"> F  </i>
   <i type="logical" name="LDOWNSAMPLE"> F  </i>
   <i type="logical" name="LCHARG"> F  </i>
   <i type="logical" name="LPARD"> F  </i>
   <i type="logical" name="LVTOT"> F  </i>
   <i type="logical" name="LVHAR"> F  </i>
   <i type="logical" name="LELF"> F  </i>
   <i type="logical" name="LOPTICS"> F  </i>
   <v name="STM">      0.00000000      0.00000000      0.00000000      0.00000000      0.00000000      0.00000000      0.00000000</v>
  </separator>
  <separator name="performance" >
   <i type="int" name="NPAR">     4</i>
   <i type="int" name="NSIM">     4</i>
   <i type="int" name="NBLK">    -1</i>
   <i type="logical" name="LPLANE"> T  </i>
   <i type="logical" name="LSCALAPACK"> F  </i>
   <i type="logical" name="LSCAAWARE"> F  </i>
   <i type="logical" name="LSCALU"> F  </i>
   <i type="logical" name="LASYNC"> F  </i>
   <i type="logical" name="LORBITALREAL"> F  </i>
  </separator>
  <separator name="miscellaneous" >
   <i type="int" name="IDIOT">     3</i>
   <i type="int" name="ISPECIAL">     0</i>
   <i type="logical" name="LMUSIC"> F  </i>
   <v name="POMASS">     14.00100000     28.08500000</v>
   <v name="DARWINR">      0.00000000      0.00000000</v>
   <v name="DARWINV">      1.00000000      1.00000000</v>
   <i type="logical" name="LCORR"> T  </i>
  </separator>
  <i type="logical" name="GGA_COMPAT"> T  </i>
  <i type="logical" name="LBERRY"> F  </i>
  <i type="int" name="ICORELEVEL">     0</i>
  <i type="logical" name="LDAU"> F  </i>
  <i type="int" name="I_CONSTRAINED_M">     0</i>
  <separator name="electronic exchange-correlation" >
   <i type="string" name="GGA">--</i>
   <i type="int" name="VOSKOWN">     0</i>
   <i type="logical" name="LHFCALC"> F  </i>
   <i type="string" name="PRECFOCK"></i>
   <i type="logical" name="LSYMGRAD"> F  </i>
   <i type="logical" name="LHFONE"> F  </i>
   <i type="logical" name="LRHFCALC"> F  </i>
   <i type="logical" name="LTHOMAS"> F  </i>
   <i type="logical" name="LMODELHF"> F  </i>
   <i name="ENCUT4O">     -1.00000000</i>
   <i type="int" name="EXXOEP">     0</i>
   <i type="int" name="FOURORBIT">     0</i>
   <i name="AEXX">      0.00000000</i>
   <i name="HFALPHA">      0.00000000</i>
   <i name="MCALPHA">      0.00000000</i>
   <i name="ALDAX">      1.00000000</i>
   <i name="AGGAX">      1.00000000</i>
   <i name="ALDAC">      1.00000000</i>
   <i name="AGGAC">      1.00000000</i>
   <i type="int" name="NKREDX">     1</i>
   <i type="int" name="NKREDY">     1</i>
   <i type="int" name="NKREDZ">     1</i>
   <i type="logical" name="SHIFTRED"> F  </i>
   <i type="logical" name="ODDONLY"> F  </i>
   <i type="logical" name="EVENONLY"> F  </i>
   <i type="int" name="LMAXFOCK">     0</i>
   <i type="int" name="NMAXFOCKAE">     0</i>
   <i type="logical" name="LFOCKAEDFT"> F  </i>
   <i name="HFSCREEN">      0.00000000</i>
   <i name="HFSCREENC">      0.00000000</i>
   <i type="int" name="NBANDSGWLOW">     0</i>
  </separator>
  <separator name="vdW DFT" >
   <i type="logical" name="LUSE_VDW"> F  </i>
   <i name="Zab_VDW">     -0.84910000</i>
   <i name="PARAM1">      0.12340000</i>
   <i name="PARAM2">      1.00000000</i>
   <i name="PARAM3">      0.00000000</i>
  </separator>
  <separator name="model GW" >
   <i type="int" name="MODEL_GW">     0</i>
   <i name="MODEL_EPS0">      6.96997401</i>
   <i name="MODEL_ALPHA">      1.00000000</i>
  </separator>
  <separator name="linear response parameters" >
   <i type="logical" name="LEPSILON"> F  </i>
   <i type="logical" name="LRPA"> F  </i>
   <i type="logical" name="LNABLA"> F  </i>
   <i type="logical" name="LVEL"> F  </i>
   <i type="int" name="KINTER">     0</i>
   <i name="CSHIFT">      0.10000000</i>
   <i name="OMEGAMAX">     -1.00000000</i>
   <i name="DEG_THRESHOLD">      0.00200000</i>
   <i name="RTIME">     -0.10000000</i>
   <i name="WPLASMAI">      0.00000000</i>
   <v name="DFIELD">      0.00000000      0.00000000      0.00000000</v>
   <v name="WPLASMA">      0.00000000      0.00000000      0.00000000      0.00000000      0.00000000      0.00000000      0.00000000      0.00000000      0.00000000</v>
  </separator>
  <separator name="orbital magnetization" >
   <i type="logical" name="NUCIND"> F  </i>
   <v name="MAGPOS">      0.00000000      0.00000000      0.00000000</v>
   <i type="logical" name="LNICSALL"> T  </i>
   <i type="logical" name="ORBITALMAG"> F  </i>
   <i type="logical" name="LMAGBLOCH"> F  </i>
   <i type="logical" name="LCHIMAG"> F  </i>
   <i type="logical" name="LGAUGE"> T  </i>
   <i type="int" name="MAGATOM">     0</i>
   <v name="MAGDIPOL">      0.00000000      0.00000000      0.00000000</v>
   <v name="AVECCONST">      0.00000000      0.00000000      0.00000000</v>
  </separator>
  <separator name="response functions" >
   <i type="logical" name="LADDER"> F  </i>
   <i type="logical" name="LRPAFORCE"> F  </i>
   <i type="logical" name="LFXC"> F  </i>
   <i type="logical" name="LHARTREE"> T  </i>
   <i type="int" name="IBSE">     0</i>
   <v type="int" name="KPOINT">    -1     0     0     0</v>
   <i type="logical" name="LTCTE"> F  </i>
   <i type="logical" name="LTETE"> F  </i>
   <i type="logical" name="LTRIPLET"> F  </i>
   <i type="logical" name="LFXCEPS"> F  </i>
   <i type="logical" name="LFXHEG"> F  </i>
   <i type="int" name="NATURALO">     2</i>
   <i type="logical" name="L2ORDER"> F  </i>
   <i type="logical" name="LMP2LT"> F  </i>
   <i type="logical" name="LUSEW"> F  </i>
   <i name="ENCUTGW">     -2.00000000</i>
   <i name="ENCUTGWSOFT">     -2.00000000</i>
   <i name="ENCUTLF">     -1.00000000</i>
   <i type="int" name="LMAXMP2">    -1</i>
   <i name="SCISSOR">      0.00000000</i>
   <i type="int" name="NOMEGA">     0</i>
   <i type="int" name="NOMEGAR">     0</i>
   <i type="int" name="NBANDSGW">    -1</i>
   <i type="int" name="NBANDSO">    -1</i>
   <i type="int" name="NBANDSV">    -1</i>
   <i type="int" name="NELM">     1</i>
   <i type="int" name="NELMHF">     1</i>
   <i type="int" name="DIM">     3</i>
   <i type="int" name="ANTIRES">     0</i>
   <i name="OMEGAMAX">    -30.00000000</i>
   <i name="OMEGAMIN">    -30.00000000</i>
   <i name="OMEGATL">   -200.00000000</i>
   <i type="int" name="OMEGAGRID">   140</i>
   <i name="CSHIFT">     -0.10000000</i>
   <i type="logical" name="SELFENERGY"> F  </i>
   <i type="logical" name="LSPECTRAL"> F  </i>
   <i type="logical" name="LSPECTRALGW"> F  </i>
   <i type="logical" name="LSINGLES"> F  </i>
   <i type="logical" name="LFERMIGW"> F  </i>
   <i type="logical" name="ODDONLYGW"> F  </i>
   <i type="logical" name="EVENONLYGW"> F  </i>
   <i type="int" name="NKREDLFX">     1</i>
   <i type="int" name="NKREDLFY">     1</i>
   <i type="int" name="NKREDLFZ">     1</i>
   <i type="int" name="MAXMEM">  2800</i>
   <i type="int" name="TELESCOPE">     0</i>
   <i type="int" name="TAUPAR">     1</i>
   <i type="int" name="OMEGAPAR">    -1</i>
   <i name="LAMBDA">      1.00000000</i>
  </separator>
  <separator name="External order field" >
   <i name="OFIELD_KAPPA">      0.00000000</i>
   <v name="OFIELD_K">      0.00000000      0.00000000      0.00000000</v>
   <i name="OFIELD_Q6_NEAR">      0.00000000</i>
   <i name="OFIELD_Q6_FAR">      0.00000000</i>
   <i name="OFIELD_A">      0.00000000</i>
  </separator>
 </parameters>
 <atominfo>
  <atoms>      56 </atoms>
  <types>       2 </types>
  <array name="atoms" >
   <dimension dim="1">ion</dimension>
   <field type="string">element</field>
   <field type="int">atomtype</field>
   <set>
    <rc><c>N </c><c>   1</c></rc>
    <rc><c>N </c><c>   1</c></rc>
    <rc><c>N </c><c>   1</c></rc>
    <rc><c>N </c><c>   1</c></rc>
    <rc><c>N </c><c>   1</c></rc>
    <rc><c>N </c><c>   1</c></rc>
    <rc><c>N </c><c>   1</c></rc>
    <rc><c>N </c><c>   1</c></rc>
    <rc><c>N </c><c>   1</c></rc>
    <rc><c>N </c><c>   1</c></rc>
    <rc><c>N </c><c>   1</c></rc>
    <rc><c>N </c><c>   1</c></rc>
    <rc><c>N </c><c>   1</c></rc>
    <rc><c>N </c><c>   1</c></rc>
    <rc><c>N </c><c>   1</c></rc>
    <rc><c>N </c><c>   1</c></rc>
    <rc><c>N </c><c>   1</c></rc>
    <rc><c>N </c><c>   1</c></rc>
    <rc><c>N </c><c>   1</c></rc>
    <rc><c>N </c><c>   1</c></rc>
    <rc><c>N </c><c>   1</c></rc>
    <rc><c>N </c><c>   1</c></rc>
    <rc><c>N </c><c>   1</c></rc>
    <rc><c>N </c><c>   1</c></rc>
    <rc><c>Si</c><c>   2</c></rc>
    <rc><c>Si</c><c>   2</c></rc>
    <rc><c>Si</c><c>   2</c></rc>
    <rc><c>Si</c><c>   2</c></rc>
    <rc><c>Si</c><c>   2</c></rc>
    <rc><c>Si</c><c>   2</c></rc>
    <rc><c>Si</c><c>   2</c></rc>
    <rc><c>Si</c><c>   2</c></rc>
    <rc><c>Si</c><c>   2</c></rc>
    <rc><c>Si</c><c>   2</c></rc>
    <rc><c>Si</c><c>   2</c></rc>
    <rc><c>Si</c><c>   2</c></rc>
    <rc><c>Si</c><c>   2</c></rc>
    <rc><c>Si</c><c>   2</c></rc>
    <rc><c>Si</c><c>   2</c></rc>
    <rc><c>Si</c><c>   2</c></rc>
    <rc><c>Si</c><c>   2</c></rc>
    <rc><c>Si</c><c>   2</c></rc>
    <rc><c>Si</c><c>   2</c></rc>
    <rc><c>Si</c><c>   2</c></rc>
    <rc><c>Si</c><c>   2</c></rc>
    <rc><c>Si</c><c>   2</c></rc>
    <rc><c>Si</c><c>   2</c></rc>
    <rc><c>Si</c><c>   2</c></rc>
    <rc><c>Si</c><c>   2</c></rc>
    <rc><c>Si</c><c>   2</c></rc>
    <rc><c>Si</c><c>   2</c></rc>
    <rc><c>Si</c><c>   2</c></rc>
    <rc><c>Si</c><c>   2</c></rc>
    <rc><c>Si</c><c>   2</c></rc>
    <rc><c>Si</c><c>   2</c></rc>
    <rc><c>Si</c><c>   2</c></rc>
   </set>
  </array>
  <array name="atomtypes" >
   <dimension dim="1">type</dimension>
   <field type="int">atomspertype</field>
   <field type="string">element</field>
   <field>mass</field>
   <field>valence</field>
   <field type="string">pseudopotential</field>
   <set>
    <rc><c>  24</c><c>N </c><c>     14.00100000</c><c>      5.00000000</c><c>  PAW_PBE N 08Apr2002                   </c></rc>
    <rc><c>  32</c><c>Si</c><c>     28.08500000</c><c>      4.00000000</c><c>  PAW_PBE Si 05Jan2001                  </c></rc>
   </set>
  </array>
 </atominfo>
 <structure name="initialpos" >
  <crystal>
   <varray name="basis" >
    <v>       8.66474884       0.00000000       0.00000000 </v>
    <v>       0.00000000       8.66474884       0.00000000 </v>
    <v>       0.00000000       0.00000000       8.66474884 </v>
   </varray>
   <i name="volume">    650.53090795 </i>
   <varray name="rec_basis" >
    <v>       0.11541015      -0.00000000       0.00000000 </v>
    <v>      -0.00000000       0.11541015       0.00000000 </v>
    <v>      -0.00000000      -0.00000000       0.11541015 </v>
   </varray>
  </crystal>
  <varray name="positions" >
   <v>       0.87500000       0.87500000       0.12500000 </v>
   <v>       0.37500000       0.12500000       0.37500000 </v>
   <v>       0.62500000       0.87500000       0.37500000 </v>
   <v>       0.12500000       0.12500000       0.12500000 </v>
   <v>       0.25000000       0.75000000       0.25000000 </v>
   <v>       0.00000000       0.00000000       0.50000000 </v>
   <v>       0.87500000       0.37500000       0.62500000 </v>
   <v>       0.37500000       0.62500000       0.87500000 </v>
   <v>       0.62500000       0.37500000       0.87500000 </v>
   <v>       0.12500000       0.62500000       0.62500000 </v>
   <v>       0.25000000       0.25000000       0.75000000 </v>
   <v>       0.00000000       0.50000000       0.00000000 </v>
   <v>       0.37500000       0.87500000       0.62500000 </v>
   <v>       0.87500000       0.12500000       0.87500000 </v>
   <v>       0.12500000       0.87500000       0.87500000 </v>
   <v>       0.62500000       0.12500000       0.62500000 </v>
   <v>       0.75000000       0.75000000       0.75000000 </v>
   <v>       0.50000000       0.00000000       0.00000000 </v>
   <v>       0.37500000       0.37500000       0.12500000 </v>
   <v>       0.87500000       0.62500000       0.37500000 </v>
   <v>       0.12500000       0.37500000       0.37500000 </v>
   <v>       0.62500000       0.62500000       0.12500000 </v>
   <v>       0.75000000       0.25000000       0.25000000 </v>
   <v>       0.50000000       0.50000000       0.50000000 </v>
   <v>       0.37630293       0.37630293       0.37630293 </v>
   <v>       0.87369707       0.12630293       0.12630293 </v>
   <v>       0.62630293       0.12630293       0.37369707 </v>
   <v>       0.12630293       0.87369707       0.12630293 </v>
   <v>       0.12369707       0.12369707       0.37630293 </v>
   <v>       0.12369707       0.37630293       0.12369707 </v>
   <v>       0.37369707       0.87369707       0.37369707 </v>
   <v>       0.37630293       0.12369707       0.12369707 </v>
   <v>       0.37630293       0.87630293       0.87630293 </v>
   <v>       0.87369707       0.62630293       0.62630293 </v>
   <v>       0.62630293       0.62630293       0.87369707 </v>
   <v>       0.12630293       0.37369707       0.62630293 </v>
   <v>       0.12369707       0.62369707       0.87630293 </v>
   <v>       0.12369707       0.87630293       0.62369707 </v>
   <v>       0.37369707       0.37369707       0.87369707 </v>
   <v>       0.37630293       0.62369707       0.62369707 </v>
   <v>       0.87630293       0.37630293       0.87630293 </v>
   <v>       0.37369707       0.12630293       0.62630293 </v>
   <v>       0.12630293       0.12630293       0.87369707 </v>
   <v>       0.62630293       0.87369707       0.62630293 </v>
   <v>       0.62369707       0.12369707       0.87630293 </v>
   <v>       0.62369707       0.37630293       0.62369707 </v>
   <v>       0.87369707       0.87369707       0.87369707 </v>
   <v>       0.87630293       0.12369707       0.62369707 </v>
   <v>       0.87630293       0.87630293       0.37630293 </v>
   <v>       0.37369707       0.62630293       0.12630293 </v>
   <v>       0.12630293       0.62630293       0.37369707 </v>
   <v>       0.62630293       0.37369707       0.12630293 </v>
   <v>       0.62369707       0.62369707       0.37630293 </v>
   <v>       0.62369707       0.87630293       0.12369707 </v>
   <v>       0.87369707       0.37369707       0.37369707 </v>
   <v>       0.87630293       0.62369707       0.12369707 </v>
  </varray>
 </structure>
 <calculation>
  <scstep>
   <time name="dav">    7.52    7.52</time>
   <time name="total">    7.62    7.62</time>
   <energy>
    <i name="alphaZ">    299.82966791 </i>
    <i name="ewald">  -9599.89874413 </i>
    <i name="hartreedc">  -1540.12734172 </i>
    <i name="XCdc">    190.76573733 </i>
    <i name="pawpsdc">   7738.34714636 </i>
    <i name="pawaedc">  -7203.94574617 </i>
    <i name="eentropy">      0.00103370 </i>
    <i name="bandstr">   1336.63725426 </i>
    <i name="atom">   9645.50393724 </i>
    <i name="e_fr_energy">    867.11294479 </i>
    <i name="e_wo_entrp">    867.11191110 </i>
    <i name="e_0_energy">    867.11268637 </i>
   </energy>
  </scstep>
  <scstep>
   <time name="dav">    7.33    7.33</time>
   <time name="total">    7.33    7.34</time>
   <energy>
    <i name="e_fr_energy">   -246.93167355 </i>
    <i name="e_wo_entrp">   -246.93664303 </i>
    <i name="e_0_energy">   -246.93291592 </i>
   </energy>
  </scstep>
  <scstep>
   <time name="dav">    7.40    7.40</time>
   <time name="total">    7.40    7.40</time>
   <energy>
    <i name="e_fr_energy">   -353.17626775 </i>
    <i name="e_wo_entrp">   -353.17158503 </i>
    <i name="e_0_energy">   -353.17509707 </i>
   </energy>
  </scstep>
  <scstep>
   <time name="dav">    7.40    7.40</time>
   <time name="total">    7.40    7.40</time>
   <energy>
    <i name="e_fr_energy">   -357.00171624 </i>
    <i name="e_wo_entrp">   -356.99069498 </i>
    <i name="e_0_energy">   -356.99896093 </i>
   </energy>
  </scstep>
  <scstep>
   <time name="dav">    7.27    7.27</time>
   <time name="total">    7.62    7.62</time>
   <energy>
    <i name="e_fr_energy">   -357.12131071 </i>
    <i name="e_wo_entrp">   -357.10981213 </i>
    <i name="e_0_energy">   -357.11843606 </i>
   </energy>
  </scstep>
  <scstep>
   <time name="diag">    0.78    0.78</time>
   <time name="diis">    4.85    4.85</time>
   <time name="orth">    0.10    0.10</time>
   <time name="total">    6.14    6.15</time>
   <energy>
    <i name="e_fr_energy">   -331.56602357 </i>
    <i name="e_wo_entrp">   -331.58171836 </i>
    <i name="e_0_energy">   -331.56994726 </i>
   </energy>
  </scstep>
  <scstep>
   <time name="diag">    0.77    0.77</time>
   <time name="diis">    4.09    4.10</time>
   <time name="orth">    0.09    0.09</time>
   <time name="total">    5.38    5.39</time>
   <energy>
    <i name="e_fr_energy">   -330.78318329 </i>
    <i name="e_wo_entrp">   -330.80118687 </i>
    <i name="e_0_energy">   -330.78768418 </i>
   </energy>
  </scstep>
  <scstep>
   <time name="diag">    0.77    0.77</time>
   <time name="diis">    3.89    3.89</time>
   <time name="orth">    0.10    0.10</time>
   <time name="total">    5.18    5.19</time>
   <energy>
    <i name="e_fr_energy">   -330.69048873 </i>
    <i name="e_wo_entrp">   -330.70755898 </i>
    <i name="e_0_energy">   -330.69475629 </i>
   </energy>
  </scstep>
  <scstep>
   <time name="diag">    0.77    0.77</time>
   <time name="diis">    3.92    3.92</time>
   <time name="orth">    0.09    0.09</time>
   <time name="total">    5.19    5.19</time>
   <energy>
    <i name="e_fr_energy">   -330.49277569 </i>
    <i name="e_wo_entrp">   -330.51128586 </i>
    <i name="e_0_energy">   -330.49740323 </i>
   </energy>
  </scstep>
  <scstep>
   <time name="diag">    0.77    0.77</time>
   <time name="diis">    4.14    4.14</time>
   <time name="orth">    0.10    0.10</time>
   <time name="total">    5.42    5.42</time>
   <energy>
    <i name="e_fr_energy">   -330.48988139 </i>
    <i name="e_wo_entrp">   -330.50828961 </i>
    <i name="e_0_energy">   -330.49448345 </i>
   </energy>
  </scstep>
  <scstep>
   <time name="diag">    0.76    0.76</time>
   <time name="diis">    4.10    4.10</time>
   <time name="orth">    0.09    0.09</time>
   <time name="total">    5.38    5.38</time>
   <energy>
    <i name="e_fr_energy">   -330.49103489 </i>
    <i name="e_wo_entrp">   -330.50937234 </i>
    <i name="e_0_energy">   -330.49561925 </i>
   </energy>
  </scstep>
  <scstep>
   <time name="diag">    5.91    5.91</time>
   <time name="diis">    4.11    4.11</time>
   <time name="orth">    0.09    0.09</time>
   <time name="total">   10.54   10.53</time>
   <energy>
    <i name="e_fr_energy">   -330.49097775 </i>
    <i name="e_wo_entrp">   -330.50939593 </i>
    <i name="e_0_energy">   -330.49558229 </i>
   </energy>
  </scstep>
  <scstep>
   <time name="diag">    0.76    0.76</time>
   <time name="diis">    2.56    2.56</time>
   <time name="orth">    0.09    0.09</time>
   <time name="total">    3.50    3.50</time>
   <energy>
    <i name="alphaZ">    299.82966791 </i>
    <i name="ewald">  -9599.89874413 </i>
    <i name="hartreedc">  -1774.61296073 </i>
    <i name="XCdc">    206.90827352 </i>
    <i name="pawpsdc">  20439.52044224 </i>
    <i name="pawaedc"> -19906.64748243 </i>
    <i name="eentropy">      0.01839989 </i>
    <i name="bandstr">    358.88755896 </i>
    <i name="atom">   9645.50393724 </i>
    <i name="e_fr_energy">   -330.49090753 </i>
    <i name="e_wo_entrp">   -330.50930742 </i>
    <i name="e_0_energy">   -330.49550750 </i>
   </energy>
  </scstep>
  <structure>
   <crystal>
    <varray name="basis" >
     <v>       8.66474884       0.00000000       0.00000000 </v>
     <v>       0.00000000       8.66474884       0.00000000 </v>
     <v>       0.00000000       0.00000000       8.66474884 </v>
    </varray>
    <i name="volume">    650.53090795 </i>
    <varray name="rec_basis" >
     <v>       0.11541015      -0.00000000       0.00000000 </v>
     <v>      -0.00000000       0.11541015       0.00000000 </v>
     <v>      -0.00000000      -0.00000000       0.11541015 </v>
    </varray>
   </crystal>
   <varray name="positions" >
    <v>       0.87500000       0.87500000       0.12500000 </v>
    <v>       0.37500000       0.12500000       0.37500000 </v>
    <v>       0.62500000       0.87500000       0.37500000 </v>
    <v>       0.12500000       0.12500000       0.12500000 </v>
    <v>       0.25000000       0.75000000       0.25000000 </v>
    <v>       0.00000000       0.00000000       0.50000000 </v>
    <v>       0.87500000       0.37500000       0.62500000 </v>
    <v>       0.37500000       0.62500000       0.87500000 </v>
    <v>       0.62500000       0.37500000       0.87500000 </v>
    <v>       0.12500000       0.62500000       0.62500000 </v>
    <v>       0.25000000       0.25000000       0.75000000 </v>
    <v>       0.00000000       0.50000000       0.00000000 </v>
    <v>       0.37500000       0.87500000       0.62500000 </v>
    <v>       0.87500000       0.12500000       0.87500000 </v>
    <v>       0.12500000       0.87500000       0.87500000 </v>
    <v>       0.62500000       0.12500000       0.62500000 </v>
    <v>       0.75000000       0.75000000       0.75000000 </v>
    <v>       0.50000000       0.00000000       0.00000000 </v>
    <v>       0.37500000       0.37500000       0.12500000 </v>
    <v>       0.87500000       0.62500000       0.37500000 </v>
    <v>       0.12500000       0.37500000       0.37500000 </v>
    <v>       0.62500000       0.62500000       0.12500000 </v>
    <v>       0.75000000       0.25000000       0.25000000 </v>
    <v>       0.50000000       0.50000000       0.50000000 </v>
    <v>       0.37630293       0.37630293       0.37630293 </v>
    <v>       0.87369707       0.12630293       0.12630293 </v>
    <v>       0.62630293       0.12630293       0.37369707 </v>
    <v>       0.12630293       0.87369707       0.12630293 </v>
    <v>       0.12369707       0.12369707       0.37630293 </v>
    <v>       0.12369707       0.37630293       0.12369707 </v>
    <v>       0.37369707       0.87369707       0.37369707 </v>
    <v>       0.37630293       0.12369707       0.12369707 </v>
    <v>       0.37630293       0.87630293       0.87630293 </v>
    <v>       0.87369707       0.62630293       0.62630293 </v>
    <v>       0.62630293       0.62630293       0.87369707 </v>
    <v>       0.12630293       0.37369707       0.62630293 </v>
    <v>       0.12369707       0.62369707       0.87630293 </v>
    <v>       0.12369707       0.87630293       0.62369707 </v>
    <v>       0.37369707       0.37369707       0.87369707 </v>
    <v>       0.37630293       0.62369707       0.62369707 </v>
    <v>       0.87630293       0.37630293       0.87630293 </v>
    <v>       0.37369707       0.12630293       0.62630293 </v>
    <v>       0.12630293       0.12630293       0.87369707 </v>
    <v>       0.62630293       0.87369707       0.62630293 </v>
    <v>       0.62369707       0.12369707       0.87630293 </v>
    <v>       0.62369707       0.37630293       0.62369707 </v>
    <v>       0.87369707       0.87369707       0.87369707 </v>
    <v>       0.87630293       0.12369707       0.62369707 </v>
    <v>       0.87630293       0.87630293       0.37630293 </v>
    <v>       0.37369707       0.62630293       0.12630293 </v>
    <v>       0.12630293       0.62630293       0.37369707 </v>
    <v>       0.62630293       0.37369707       0.12630293 </v>
    <v>       0.62369707       0.62369707       0.37630293 </v>
    <v>       0.62369707       0.87630293       0.12369707 </v>
    <v>       0.87369707       0.37369707       0.37369707 </v>
    <v>       0.87630293       0.62369707       0.12369707 </v>
   </varray>
  </structure>
  <varray name="forces" >
   <v>      -0.00000000      -0.00000000      -0.00000000 </v>
   <v>      -0.00000000      -0.00000000      -0.00000000 </v>
   <v>      -0.00000000      -0.00000000      -0.00000000 </v>
   <v>      -0.00000000      -0.00000000      -0.00000000 </v>
   <v>      -0.00000000      -0.00000000      -0.00000000 </v>
   <v>      -0.00000000      -0.00000000      -0.00000000 </v>
   <v>      -0.00000000      -0.00000000      -0.00000000 </v>
   <v>      -0.00000000      -0.00000000      -0.00000000 </v>
   <v>      -0.00000000      -0.00000000      -0.00000000 </v>
   <v>      -0.00000000      -0.00000000      -0.00000000 </v>
   <v>      -0.00000000      -0.00000000      -0.00000000 </v>
   <v>      -0.00000000      -0.00000000      -0.00000000 </v>
   <v>      -0.00000000      -0.00000000      -0.00000000 </v>
   <v>      -0.00000000      -0.00000000      -0.00000000 </v>
   <v>      -0.00000000      -0.00000000      -0.00000000 </v>
   <v>      -0.00000000      -0.00000000      -0.00000000 </v>
   <v>      -0.00000000      -0.00000000      -0.00000000 </v>
   <v>      -0.00000000      -0.00000000      -0.00000000 </v>
   <v>      -0.00000000      -0.00000000      -0.00000000 </v>
   <v>      -0.00000000      -0.00000000      -0.00000000 </v>
   <v>      -0.00000000      -0.00000000      -0.00000000 </v>
   <v>      -0.00000000      -0.00000000      -0.00000000 </v>
   <v>      -0.00000000      -0.00000000      -0.00000000 </v>
   <v>      -0.00000000      -0.00000000      -0.00000000 </v>
   <v>      -0.06382272      -0.06382272      -0.06382272 </v>
   <v>       0.06382272      -0.06382272      -0.06382272 </v>
   <v>      -0.06382272      -0.06382272       0.06382272 </v>
   <v>      -0.06382272       0.06382272      -0.06382272 </v>
   <v>       0.06382272       0.06382272      -0.06382272 </v>
   <v>       0.06382272      -0.06382272       0.06382272 </v>
   <v>       0.06382272       0.06382272       0.06382272 </v>
   <v>      -0.06382272       0.06382272       0.06382272 </v>
   <v>      -0.06382272      -0.06382272      -0.06382272 </v>
   <v>       0.06382272      -0.06382272      -0.06382272 </v>
   <v>      -0.06382272      -0.06382272       0.06382272 </v>
   <v>      -0.06382272       0.06382272      -0.06382272 </v>
   <v>       0.06382272       0.06382272      -0.06382272 </v>
   <v>       0.06382272      -0.06382272       0.06382272 </v>
   <v>       0.06382272       0.06382272       0.06382272 </v>
   <v>      -0.06382272       0.06382272       0.06382272 </v>
   <v>      -0.06382272      -0.06382272      -0.06382272 </v>
   <v>       0.06382272      -0.06382272      -0.06382272 </v>
   <v>      -0.06382272      -0.06382272       0.06382272 </v>
   <v>      -0.06382272       0.06382272      -0.06382272 </v>
   <v>       0.06382272       0.06382272      -0.06382272 </v>
   <v>       0.06382272      -0.06382272       0.06382272 </v>
   <v>       0.06382272       0.06382272       0.06382272 </v>
   <v>      -0.06382272       0.06382272       0.06382272 </v>
   <v>      -0.06382272      -0.06382272      -0.06382272 </v>
   <v>       0.06382272      -0.06382272      -0.06382272 </v>
   <v>      -0.06382272      -0.06382272       0.06382272 </v>
   <v>      -0.06382272       0.06382272      -0.06382272 </v>
   <v>       0.06382272       0.06382272      -0.06382272 </v>
   <v>       0.06382272      -0.06382272       0.06382272 </v>
   <v>       0.06382272       0.06382272       0.06382272 </v>
   <v>      -0.06382272       0.06382272       0.06382272 </v>
  </varray>
  <varray name="stress" >
   <v>     -20.38880118      -0.00000000      -0.00000000 </v>
   <v>      -0.00000000     -20.38880118      -0.00000000 </v>
   <v>      -0.00000000      -0.00000000     -20.38880118 </v>
  </varray>
  <energy>
   <i name="e_fr_energy">   -330.49090753 </i>
   <i name="e_wo_entrp">   -330.49550750 </i>
   <i name="e_0_energy">      0.01839989 </i>
  </energy>
  <time name="totalsc">  100.08  100.12</time>
 </calculation>
 <calculation>
  <scstep>
   <time name="dav">    7.79    8.61</time>
   <time name="total">    8.54    9.77</time>
   <energy>
    <i name="alphaZ">    299.82966791 </i>
    <i name="ewald">  -9598.95259759 </i>
    <i name="hartreedc">  -1776.42291305 </i>
    <i name="XCdc">    206.90585576 </i>
    <i name="pawpsdc">  20432.17590127 </i>
    <i name="pawaedc"> -19899.30037078 </i>
    <i name="eentropy">      0.01663825 </i>
    <i name="bandstr">    359.75030283 </i>
    <i name="atom">   9645.50393724 </i>
    <i name="e_fr_energy">   -330.49357816 </i>
    <i name="e_wo_entrp">   -330.51021641 </i>
    <i name="e_0_energy">   -330.49773772 </i>
   </energy>
  </scstep>
  <scstep>
   <time name="diag">    0.76    0.76</time>
   <time name="diis">    3.93    3.93</time>
   <time name="orth">    0.10    0.10</time>
   <time name="total">    5.21    5.21</time>
   <energy>
    <i name="e_fr_energy">   -330.49600089 </i>
    <i name="e_wo_entrp">   -330.51256692 </i>
    <i name="e_0_energy">   -330.50014240 </i>
   </energy>
  </scstep>
  <scstep>
   <time name="diag">    0.76    0.76</time>
   <time name="diis">    3.93    3.93</time>
   <time name="orth">    0.10    0.10</time>
   <time name="total">    5.21    5.21</time>
   <energy>
    <i name="e_fr_energy">   -330.49568589 </i>
    <i name="e_wo_entrp">   -330.51239031 </i>
    <i name="e_0_energy">   -330.49986199 </i>
   </energy>
  </scstep>
  <scstep>
   <time name="diag">    0.75    0.75</time>
   <time name="diis">    3.90    3.90</time>
   <time name="orth">    0.09    0.09</time>
   <time name="total">    5.17    5.17</time>
   <energy>
    <i name="e_fr_energy">   -330.49556484 </i>
    <i name="e_wo_entrp">   -330.51252273 </i>
    <i name="e_0_energy">   -330.49980431 </i>
   </energy>
  </scstep>
  <scstep>
   <time name="diag">    0.75    0.75</time>
   <time name="diis">    2.53    2.53</time>
   <time name="orth">    0.09    0.09</time>
   <time name="total">    3.47    3.47</time>
   <energy>
    <i name="alphaZ">    299.82966791 </i>
    <i name="ewald">  -9598.95259759 </i>
    <i name="hartreedc">  -1775.88397623 </i>
    <i name="XCdc">    206.87403206 </i>
    <i name="pawpsdc">  20385.04246636 </i>
    <i name="pawaedc"> -19852.14803282 </i>
    <i name="eentropy">      0.01689861 </i>
    <i name="bandstr">    359.22211945 </i>
    <i name="atom">   9645.50393724 </i>
    <i name="e_fr_energy">   -330.49548499 </i>
    <i name="e_wo_entrp">   -330.51238361 </i>
    <i name="e_0_energy">   -330.49970965 </i>
   </energy>
  </scstep>
  <structure>
   <crystal>
    <varray name="basis" >
     <v>       8.66474884       0.00000000       0.00000000 </v>
     <v>       0.00000000       8.66474884       0.00000000 </v>
     <v>       0.00000000       0.00000000       8.66474884 </v>
    </varray>
    <i name="volume">    650.53090795 </i>
    <varray name="rec_basis" >
     <v>       0.11541015      -0.00000000       0.00000000 </v>
     <v>      -0.00000000       0.11541015       0.00000000 </v>
     <v>      -0.00000000      -0.00000000       0.11541015 </v>
    </varray>
   </crystal>
   <varray name="positions" >
    <v>       0.87500000       0.87500000       0.12500000 </v>
    <v>       0.37500000       0.12500000       0.37500000 </v>
    <v>       0.62500000       0.87500000       0.37500000 </v>
    <v>       0.12500000       0.12500000       0.12500000 </v>
    <v>       0.25000000       0.75000000       0.25000000 </v>
    <v>      -0.00000000      -0.00000000       0.50000000 </v>
    <v>       0.87500000       0.37500000       0.62500000 </v>
    <v>       0.37500000       0.62500000       0.87500000 </v>
    <v>       0.62500000       0.37500000       0.87500000 </v>
    <v>       0.12500000       0.62500000       0.62500000 </v>
    <v>       0.25000000       0.25000000       0.75000000 </v>
    <v>      -0.00000000       0.50000000      -0.00000000 </v>
    <v>       0.37500000       0.87500000       0.62500000 </v>
    <v>       0.87500000       0.12500000       0.87500000 </v>
    <v>       0.12500000       0.87500000       0.87500000 </v>
    <v>       0.62500000       0.12500000       0.62500000 </v>
    <v>       0.75000000       0.75000000       0.75000000 </v>
    <v>       0.50000000      -0.00000000      -0.00000000 </v>
    <v>       0.37500000       0.37500000       0.12500000 </v>
    <v>       0.87500000       0.62500000       0.37500000 </v>
    <v>       0.12500000       0.37500000       0.37500000 </v>
    <v>       0.62500000       0.62500000       0.12500000 </v>
    <v>       0.75000000       0.25000000       0.25000000 </v>
    <v>       0.50000000       0.50000000       0.50000000 </v>
    <v>       0.37594759       0.37594759       0.37594759 </v>
    <v>       0.87405241       0.12594759       0.12594759 </v>
    <v>       0.62594759       0.12594759       0.37405241 </v>
    <v>       0.12594759       0.87405241       0.12594759 </v>
    <v>       0.12405241       0.12405241       0.37594759 </v>
    <v>       0.12405241       0.37594759       0.12405241 </v>
    <v>       0.37405241       0.87405241       0.37405241 </v>
    <v>       0.37594759       0.12405241       0.12405241 </v>
    <v>       0.37594759       0.87594759       0.87594759 </v>
    <v>       0.87405241       0.62594759       0.62594759 </v>
    <v>       0.62594759       0.62594759       0.87405241 </v>
    <v>       0.12594759       0.37405241       0.62594759 </v>
    <v>       0.12405241       0.62405241       0.87594759 </v>
    <v>       0.12405241       0.87594759       0.62405241 </v>
    <v>       0.37405241       0.37405241       0.87405241 </v>
    <v>       0.37594759       0.62405241       0.62405241 </v>
    <v>       0.87594759       0.37594759       0.87594759 </v>
    <v>       0.37405241       0.12594759       0.62594759 </v>
    <v>       0.12594759       0.12594759       0.87405241 </v>
    <v>       0.62594759       0.87405241       0.62594759 </v>
    <v>       0.62405241       0.12405241       0.87594759 </v>
    <v>       0.62405241       0.37594759       0.62405241 </v>
    <v>       0.87405241       0.87405241       0.87405241 </v>
    <v>       0.87594759       0.12405241       0.62405241 </v>
    <v>       0.87594759       0.87594759       0.37594759 </v>
    <v>       0.37405241       0.62594759       0.12594759 </v>
    <v>       0.12594759       0.62594759       0.37405241 </v>
    <v>       0.62594759       0.37405241       0.12594759 </v>
    <v>       0.62405241       0.62405241       0.37594759 </v>
    <v>       0.62405241       0.87594759       0.12405241 </v>
    <v>       0.87405241       0.37405241       0.37405241 </v>
    <v>       0.87594759       0.62405241       0.12405241 </v>
   </varray>
  </structure>
  <varray name="forces" >
   <v>       0.00000000       0.00000000       0.00000000 </v>
   <v>       0.00000000       0.00000000       0.00000000 </v>
   <v>       0.00000000       0.00000000       0.00000000 </v>
   <v>       0.00000000       0.00000000       0.00000000 </v>
   <v>       0.00000000       0.00000000       0.00000000 </v>
   <v>       0.00000000       0.00000000       0.00000000 </v>
   <v>       0.00000000       0.00000000       0.00000000 </v>
   <v>       0.00000000       0.00000000       0.00000000 </v>
   <v>       0.00000000       0.00000000       0.00000000 </v>
   <v>       0.00000000       0.00000000       0.00000000 </v>
   <v>       0.00000000       0.00000000       0.00000000 </v>
   <v>       0.00000000       0.00000000       0.00000000 </v>
   <v>       0.00000000       0.00000000       0.00000000 </v>
   <v>       0.00000000       0.00000000       0.00000000 </v>
   <v>       0.00000000       0.00000000       0.00000000 </v>
   <v>       0.00000000       0.00000000       0.00000000 </v>
   <v>       0.00000000       0.00000000       0.00000000 </v>
   <v>       0.00000000       0.00000000       0.00000000 </v>
   <v>       0.00000000       0.00000000       0.00000000 </v>
   <v>       0.00000000       0.00000000       0.00000000 </v>
   <v>       0.00000000       0.00000000       0.00000000 </v>
   <v>       0.00000000       0.00000000       0.00000000 </v>
   <v>       0.00000000       0.00000000       0.00000000 </v>
   <v>       0.00000000       0.00000000       0.00000000 </v>
   <v>       0.03403237       0.03403237       0.03403237 </v>
   <v>      -0.03403237       0.03403237       0.03403237 </v>
   <v>       0.03403237       0.03403237      -0.03403237 </v>
   <v>       0.03403237      -0.03403237       0.03403237 </v>
   <v>      -0.03403237      -0.03403237       0.03403237 </v>
   <v>      -0.03403237       0.03403237      -0.03403237 </v>
   <v>      -0.03403237      -0.03403237      -0.03403237 </v>
   <v>       0.03403237      -0.03403237      -0.03403237 </v>
   <v>       0.03403237       0.03403237       0.03403237 </v>
   <v>      -0.03403237       0.03403237       0.03403237 </v>
   <v>       0.03403237       0.03403237      -0.03403237 </v>
   <v>       0.03403237      -0.03403237       0.03403237 </v>
   <v>      -0.03403237      -0.03403237       0.03403237 </v>
   <v>      -0.03403237       0.03403237      -0.03403237 </v>
   <v>      -0.03403237      -0.03403237      -0.03403237 </v>
   <v>       0.03403237      -0.03403237      -0.03403237 </v>
   <v>       0.03403237       0.03403237       0.03403237 </v>
   <v>      -0.03403237       0.03403237       0.03403237 </v>
   <v>       0.03403237       0.03403237      -0.03403237 </v>
   <v>       0.03403237      -0.03403237       0.03403237 </v>
   <v>      -0.03403237      -0.03403237       0.03403237 </v>
   <v>      -0.03403237       0.03403237      -0.03403237 </v>
   <v>      -0.03403237      -0.03403237      -0.03403237 </v>
   <v>       0.03403237      -0.03403237      -0.03403237 </v>
   <v>       0.03403237       0.03403237       0.03403237 </v>
   <v>      -0.03403237       0.03403237       0.03403237 </v>
   <v>       0.03403237       0.03403237      -0.03403237 </v>
   <v>       0.03403237      -0.03403237       0.03403237 </v>
   <v>      -0.03403237      -0.03403237       0.03403237 </v>
   <v>      -0.03403237       0.03403237      -0.03403237 </v>
   <v>      -0.03403237      -0.03403237      -0.03403237 </v>
   <v>       0.03403237      -0.03403237      -0.03403237 </v>
  </varray>
  <varray name="stress" >
   <v>     -19.23793700      -0.00000000      -0.00000000 </v>
   <v>      -0.00000000     -19.23793700      -0.00000000 </v>
   <v>      -0.00000000      -0.00000000     -19.23793700 </v>
  </varray>
  <energy>
   <i name="e_fr_energy">   -330.49548499 </i>
   <i name="e_wo_entrp">   -330.49970965 </i>
   <i name="e_0_energy">      0.01689861 </i>
  </energy>
  <time name="totalsc">   36.42   37.66</time>
 </calculation>
 <calculation>
  <scstep>
   <time name="dav">    6.66    6.84</time>
   <time name="total">    7.99    8.17</time>
   <energy>
    <i name="alphaZ">    299.82966791 </i>
    <i name="ewald">  -9599.30773864 </i>
    <i name="hartreedc">  -1775.21059055 </i>
    <i name="XCdc">    206.87304936 </i>
    <i name="pawpsdc">  20383.34879749 </i>
    <i name="pawaedc"> -19850.45308609 </i>
    <i name="eentropy">      0.01740206 </i>
    <i name="bandstr">    358.90151841 </i>
    <i name="atom">   9645.50393724 </i>
    <i name="e_fr_energy">   -330.49704280 </i>
    <i name="e_wo_entrp">   -330.51444487 </i>
    <i name="e_0_energy">   -330.50139332 </i>
   </energy>
  </scstep>
  <scstep>
   <time name="diag">    0.76    0.76</time>
   <time name="diis">    3.94    3.95</time>
   <time name="orth">    0.10    0.10</time>
   <time name="total">    5.22    5.23</time>
   <energy>
    <i name="e_fr_energy">   -330.49720699 </i>
    <i name="e_wo_entrp">   -330.51467451 </i>
    <i name="e_0_energy">   -330.50157387 </i>
   </energy>
  </scstep>
  <scstep>
   <time name="diag">    0.75    0.76</time>
   <time name="diis">    3.23    3.23</time>
   <time name="orth">    3.16    3.16</time>
   <time name="total">    7.23    7.23</time>
   <energy>
    <i name="alphaZ">    299.82966791 </i>
    <i name="ewald">  -9599.30773864 </i>
    <i name="hartreedc">  -1775.48312270 </i>
    <i name="XCdc">    206.88735225 </i>
    <i name="pawpsdc">  20390.25072284 </i>
    <i name="pawaedc"> -19857.36028831 </i>
    <i name="eentropy">      0.01740583 </i>
    <i name="bandstr">    359.16491926 </i>
    <i name="atom">   9645.50393724 </i>
    <i name="e_fr_energy">   -330.49714432 </i>
    <i name="e_wo_entrp">   -330.51455015 </i>
    <i name="e_0_energy">   -330.50149578 </i>
   </energy>
  </scstep>
  <structure>
   <crystal>
    <varray name="basis" >
     <v>       8.66474884       0.00000000       0.00000000 </v>
     <v>       0.00000000       8.66474884       0.00000000 </v>
     <v>       0.00000000       0.00000000       8.66474884 </v>
    </varray>
    <i name="volume">    650.53090795 </i>
    <varray name="rec_basis" >
     <v>       0.11541015      -0.00000000       0.00000000 </v>
     <v>      -0.00000000       0.11541015       0.00000000 </v>
     <v>      -0.00000000      -0.00000000       0.11541015 </v>
    </varray>
   </crystal>
   <varray name="positions" >
    <v>       0.87500000       0.87500000       0.12500000 </v>
    <v>       0.37500000       0.12500000       0.37500000 </v>
    <v>       0.62500000       0.87500000       0.37500000 </v>
    <v>       0.12500000       0.12500000       0.12500000 </v>
    <v>       0.25000000       0.75000000       0.25000000 </v>
    <v>      -0.00000000      -0.00000000       0.50000000 </v>
    <v>       0.87500000       0.37500000       0.62500000 </v>
    <v>       0.37500000       0.62500000       0.87500000 </v>
    <v>       0.62500000       0.37500000       0.87500000 </v>
    <v>       0.12500000       0.62500000       0.62500000 </v>
    <v>       0.25000000       0.25000000       0.75000000 </v>
    <v>      -0.00000000       0.50000000      -0.00000000 </v>
    <v>       0.37500000       0.87500000       0.62500000 </v>
    <v>       0.87500000       0.12500000       0.87500000 </v>
    <v>       0.12500000       0.87500000       0.87500000 </v>
    <v>       0.62500000       0.12500000       0.62500000 </v>
    <v>       0.75000000       0.75000000       0.75000000 </v>
    <v>       0.50000000      -0.00000000      -0.00000000 </v>
    <v>       0.37500000       0.37500000       0.12500000 </v>
    <v>       0.87500000       0.62500000       0.37500000 </v>
    <v>       0.12500000       0.37500000       0.37500000 </v>
    <v>       0.62500000       0.62500000       0.12500000 </v>
    <v>       0.75000000       0.25000000       0.25000000 </v>
    <v>       0.50000000       0.50000000       0.50000000 </v>
    <v>       0.37607117       0.37607117       0.37607117 </v>
    <v>       0.87392883       0.12607117       0.12607117 </v>
    <v>       0.62607117       0.12607117       0.37392883 </v>
    <v>       0.12607117       0.87392883       0.12607117 </v>
    <v>       0.12392883       0.12392883       0.37607117 </v>
    <v>       0.12392883       0.37607117       0.12392883 </v>
    <v>       0.37392883       0.87392883       0.37392883 </v>
    <v>       0.37607117       0.12392883       0.12392883 </v>
    <v>       0.37607117       0.87607117       0.87607117 </v>
    <v>       0.87392883       0.62607117       0.62607117 </v>
    <v>       0.62607117       0.62607117       0.87392883 </v>
    <v>       0.12607117       0.37392883       0.62607117 </v>
    <v>       0.12392883       0.62392883       0.87607117 </v>
    <v>       0.12392883       0.87607117       0.62392883 </v>
    <v>       0.37392883       0.37392883       0.87392883 </v>
    <v>       0.37607117       0.62392883       0.62392883 </v>
    <v>       0.87607117       0.37607117       0.87607117 </v>
    <v>       0.37392883       0.12607117       0.62607117 </v>
    <v>       0.12607117       0.12607117       0.87392883 </v>
    <v>       0.62607117       0.87392883       0.62607117 </v>
    <v>       0.62392883       0.12392883       0.87607117 </v>
    <v>       0.62392883       0.37607117       0.62392883 </v>
    <v>       0.87392883       0.87392883       0.87392883 </v>
    <v>       0.87607117       0.12392883       0.62392883 </v>
    <v>       0.87607117       0.87607117       0.37607117 </v>
    <v>       0.37392883       0.62607117       0.12607117 </v>
    <v>       0.12607117       0.62607117       0.37392883 </v>
    <v>       0.62607117       0.37392883       0.12607117 </v>
    <v>       0.62392883       0.62392883       0.37607117 </v>
    <v>       0.62392883       0.87607117       0.12392883 </v>
    <v>       0.87392883       0.37392883       0.37392883 </v>
    <v>       0.87607117       0.62392883       0.12392883 </v>
   </varray>
  </structure>
  <varray name="forces" >
   <v>       0.00000000       0.00000000       0.00000000 </v>
   <v>       0.00000000       0.00000000       0.00000000 </v>
   <v>       0.00000000       0.00000000       0.00000000 </v>
   <v>       0.00000000       0.00000000       0.00000000 </v>
   <v>       0.00000000       0.00000000       0.00000000 </v>
   <v>       0.00000000       0.00000000       0.00000000 </v>
   <v>       0.00000000       0.00000000       0.00000000 </v>
   <v>       0.00000000       0.00000000       0.00000000 </v>
   <v>       0.00000000       0.00000000       0.00000000 </v>
   <v>       0.00000000       0.00000000       0.00000000 </v>
   <v>       0.00000000       0.00000000       0.00000000 </v>
   <v>       0.00000000       0.00000000       0.00000000 </v>
   <v>       0.00000000       0.00000000       0.00000000 </v>
   <v>       0.00000000       0.00000000       0.00000000 </v>
   <v>       0.00000000       0.00000000       0.00000000 </v>
   <v>       0.00000000       0.00000000       0.00000000 </v>
   <v>       0.00000000       0.00000000       0.00000000 </v>
   <v>       0.00000000       0.00000000       0.00000000 </v>
   <v>       0.00000000       0.00000000       0.00000000 </v>
   <v>       0.00000000       0.00000000       0.00000000 </v>
   <v>       0.00000000       0.00000000       0.00000000 </v>
   <v>       0.00000000       0.00000000       0.00000000 </v>
   <v>       0.00000000       0.00000000       0.00000000 </v>
   <v>       0.00000000       0.00000000       0.00000000 </v>
   <v>      -0.00032035      -0.00032035      -0.00032035 </v>
   <v>       0.00032035      -0.00032035      -0.00032035 </v>
   <v>      -0.00032035      -0.00032035       0.00032035 </v>
   <v>      -0.00032035       0.00032035      -0.00032035 </v>
   <v>       0.00032035       0.00032035      -0.00032035 </v>
   <v>       0.00032035      -0.00032035       0.00032035 </v>
   <v>       0.00032035       0.00032035       0.00032035 </v>
   <v>      -0.00032035       0.00032035       0.00032035 </v>
   <v>      -0.00032035      -0.00032035      -0.00032035 </v>
   <v>       0.00032035      -0.00032035      -0.00032035 </v>
   <v>      -0.00032035      -0.00032035       0.00032035 </v>
   <v>      -0.00032035       0.00032035      -0.00032035 </v>
   <v>       0.00032035       0.00032035      -0.00032035 </v>
   <v>       0.00032035      -0.00032035       0.00032035 </v>
   <v>       0.00032035       0.00032035       0.00032035 </v>
   <v>      -0.00032035       0.00032035       0.00032035 </v>
   <v>      -0.00032035      -0.00032035      -0.00032035 </v>
   <v>       0.00032035      -0.00032035      -0.00032035 </v>
   <v>      -0.00032035      -0.00032035       0.00032035 </v>
   <v>      -0.00032035       0.00032035      -0.00032035 </v>
   <v>       0.00032035       0.00032035      -0.00032035 </v>
   <v>       0.00032035      -0.00032035       0.00032035 </v>
   <v>       0.00032035       0.00032035       0.00032035 </v>
   <v>      -0.00032035       0.00032035       0.00032035 </v>
   <v>      -0.00032035      -0.00032035      -0.00032035 </v>
   <v>       0.00032035      -0.00032035      -0.00032035 </v>
   <v>      -0.00032035      -0.00032035       0.00032035 </v>
   <v>      -0.00032035       0.00032035      -0.00032035 </v>
   <v>       0.00032035       0.00032035      -0.00032035 </v>
   <v>       0.00032035      -0.00032035       0.00032035 </v>
   <v>       0.00032035       0.00032035       0.00032035 </v>
   <v>      -0.00032035       0.00032035       0.00032035 </v>
  </varray>
  <varray name="stress" >
   <v>     -19.54084441      -0.00000000      -0.00000000 </v>
   <v>      -0.00000000     -19.54084441      -0.00000000 </v>
   <v>      -0.00000000      -0.00000000     -19.54084441 </v>
  </varray>
  <energy>
   <i name="e_fr_energy">   -330.49714432 </i>
   <i name="e_wo_entrp">   -330.50149578 </i>
   <i name="e_0_energy">      0.01740583 </i>
  </energy>
  <time name="totalsc">   30.98   31.18</time>
  <eigenvalues>
   <array>
    <dimension dim="1">band</dimension>
    <dimension dim="2">kpoint</dimension>
    <dimension dim="3">spin</dimension>
    <field>eigene</field>
    <field>occ</field>
    <set>
     <set comment="spin 1">
      <set comment="kpoint 1">
       <r>   -9.5281    1.0000 </r>
       <r>   -8.6827    1.0000 </r>
       <r>   -8.6827    1.0000 </r>
       <r>   -8.6827    1.0000 </r>
       <r>   -8.6827    1.0000 </r>
       <r>   -8.6827    1.0000 </r>
       <r>   -8.6827    1.0000 </r>
       <r>   -8.3488    1.0000 </r>
       <r>   -7.8380    1.0000 </r>
       <r>   -7.8068    1.0000 </r>
       <r>   -7.8068    1.0000 </r>
       <r>   -7.8068    1.0000 </r>
       <r>   -7.8068    1.0000 </r>
       <r>   -7.8068    1.0000 </r>
       <r>   -7.8068    1.0000 </r>
       <r>   -6.7741    1.0000 </r>
       <r>   -6.7741    1.0000 </r>
       <r>   -6.7741    1.0000 </r>
       <r>   -6.7741    1.0000 </r>
       <r>   -6.7741    1.0000 </r>
       <r>   -6.7741    1.0000 </r>
       <r>   -6.6608    1.0000 </r>
       <r>   -6.6608    1.0000 </r>
       <r>   -6.6608    1.0000 </r>
       <r>   -1.2059    1.0000 </r>
       <r>   -1.2059    1.0000 </r>
       <r>   -1.2059    1.0000 </r>
       <r>   -0.9759    1.0000 </r>
       <r>   -0.8157    1.0000 </r>
       <r>   -0.8157    1.0000 </r>
       <r>   -0.8157    1.0000 </r>
       <r>   -0.8157    1.0000 </r>
       <r>   -0.8157    1.0000 </r>
       <r>   -0.8157    1.0000 </r>
       <r>   -0.0082    1.0000 </r>
       <r>   -0.0082    1.0000 </r>
       <r>   -0.0082    1.0000 </r>
       <r>   -0.0082    1.0000 </r>
       <r>   -0.0082    1.0000 </r>
       <r>   -0.0082    1.0000 </r>
       <r>    0.3778    1.0000 </r>
       <r>    0.3778    1.0000 </r>
       <r>    0.3778    1.0000 </r>
       <r>    0.6402    1.0000 </r>
       <r>    0.6402    1.0000 </r>
       <r>    0.6402    1.0000 </r>
       <r>    0.6402    1.0000 </r>
       <r>    0.6402    1.0000 </r>
       <r>    0.6402    1.0000 </r>
       <r>    1.0325    1.0000 </r>
       <r>    1.0325    1.0000 </r>
       <r>    1.0325    1.0000 </r>
       <r>    1.0325    1.0000 </r>
       <r>    1.0325    1.0000 </r>
       <r>    1.0325    1.0000 </r>
       <r>    1.2773    1.0000 </r>
       <r>    1.2773    1.0000 </r>
       <r>    2.6010    1.0000 </r>
       <r>    2.6010    1.0000 </r>
       <r>    2.6010    1.0000 </r>
       <r>    2.6010    1.0000 </r>
       <r>    2.6010    1.0000 </r>
       <r>    2.6010    1.0000 </r>
       <r>    2.6746    1.0000 </r>
       <r>    2.6746    1.0000 </r>
       <r>    2.6746    1.0000 </r>
       <r>    2.6746    1.0000 </r>
       <r>    2.6746    1.0000 </r>
       <r>    2.6746    1.0000 </r>
       <r>    2.7048    1.0000 </r>
       <r>    2.7048    1.0000 </r>
       <r>    2.7048    1.0000 </r>
       <r>    2.7048    1.0000 </r>
       <r>    2.7048    1.0000 </r>
       <r>    2.7048    1.0000 </r>
       <r>    2.8770    1.0000 </r>
       <r>    2.8770    1.0000 </r>
       <r>    2.8770    1.0000 </r>
       <r>    3.2922    1.0000 </r>
       <r>    3.2922    1.0000 </r>
       <r>    3.2922    1.0000 </r>
       <r>    3.2922    1.0000 </r>
       <r>    3.2922    1.0000 </r>
       <r>    3.2922    1.0000 </r>
       <r>    4.5212    1.0000 </r>
       <r>    4.5212    1.0000 </r>
       <r>    4.5212    1.0000 </r>
       <r>    4.5660    1.0000 </r>
       <r>    5.1679    1.0000 </r>
       <r>    5.1679    1.0000 </r>
       <r>    5.1679    1.0000 </r>
       <r>    5.1679    1.0000 </r>
       <r>    5.1679    1.0000 </r>
       <r>    5.1679    1.0000 </r>
       <r>    5.6210    1.0000 </r>
       <r>    5.6210    1.0000 </r>
       <r>    5.6210    1.0000 </r>
       <r>    7.2592    1.0000 </r>
       <r>    7.2592    1.0000 </r>
       <r>    7.2592    1.0000 </r>
       <r>    7.5850    1.0000 </r>
       <r>    7.5850    1.0000 </r>
       <r>    7.5850    1.0000 </r>
       <r>    7.5850    1.0000 </r>
       <r>    7.5850    1.0000 </r>
       <r>    7.5850    1.0000 </r>
       <r>    8.2836    1.0000 </r>
       <r>    8.2836    1.0000 </r>
       <r>    8.2836    1.0000 </r>
       <r>    8.2836    1.0000 </r>
       <r>    8.2836    1.0000 </r>
       <r>    8.2836    1.0000 </r>
       <r>    8.3099    1.0000 </r>
       <r>    8.3099    1.0000 </r>
       <r>    8.3099    1.0000 </r>
       <r>    8.3099    1.0000 </r>
       <r>    8.3099    1.0000 </r>
       <r>    8.3099    1.0000 </r>
       <r>    8.5960    1.0000 </r>
       <r>    8.5960    1.0000 </r>
       <r>    8.5960    1.0000 </r>
       <r>    8.7233    1.0000 </r>
       <r>    8.7233    1.0000 </r>
       <r>    8.7233    1.0000 </r>
       <r>    8.7233    1.0000 </r>
       <r>    8.7233    1.0000 </r>
       <r>    8.7233    1.0000 </r>
       <r>   10.2600    0.0000 </r>
       <r>   10.5479    0.0000 </r>
       <r>   10.5479    0.0000 </r>
       <r>   10.5479    0.0000 </r>
       <r>   10.5479    0.0000 </r>
       <r>   10.5479    0.0000 </r>
       <r>   10.5479    0.0000 </r>
       <r>   10.6910    0.0000 </r>
       <r>   10.6910    0.0000 </r>
       <r>   10.6910    0.0000 </r>
       <r>   10.6910    0.0000 </r>
       <r>   10.6910    0.0000 </r>
       <r>   10.6910    0.0000 </r>
       <r>   10.7206    0.0000 </r>
       <r>   10.7206    0.0000 </r>
       <r>   10.8062    0.0000 </r>
       <r>   10.8062    0.0000 </r>
       <r>   10.8062    0.0000 </r>
       <r>   10.8062    0.0000 </r>
       <r>   10.8062    0.0000 </r>
       <r>   10.8062    0.0000 </r>
       <r>   11.2355    0.0000 </r>
       <r>   11.6138    0.0000 </r>
       <r>   11.6138    0.0000 </r>
       <r>   11.6138    0.0000 </r>
       <r>   12.6302    0.0000 </r>
       <r>   12.6318    0.0000 </r>
       <r>   12.8988    0.0000 </r>
       <r>   12.9038    0.0000 </r>
      </set>
      <set comment="kpoint 2">
       <r>   -9.4821    1.0000 </r>
       <r>   -8.8988    1.0000 </r>
       <r>   -8.6727    1.0000 </r>
       <r>   -8.6727    1.0000 </r>
       <r>   -8.6727    1.0000 </r>
       <r>   -8.6727    1.0000 </r>
       <r>   -8.5427    1.0000 </r>
       <r>   -8.3627    1.0000 </r>
       <r>   -7.9268    1.0000 </r>
       <r>   -7.8562    1.0000 </r>
       <r>   -7.8363    1.0000 </r>
       <r>   -7.8363    1.0000 </r>
       <r>   -7.8363    1.0000 </r>
       <r>   -7.8363    1.0000 </r>
       <r>   -7.5537    1.0000 </r>
       <r>   -6.7635    1.0000 </r>
       <r>   -6.7635    1.0000 </r>
       <r>   -6.7492    1.0000 </r>
       <r>   -6.7492    1.0000 </r>
       <r>   -6.7492    1.0000 </r>
       <r>   -6.7492    1.0000 </r>
       <r>   -6.7328    1.0000 </r>
       <r>   -6.6721    1.0000 </r>
       <r>   -6.6721    1.0000 </r>
       <r>   -1.1891    1.0000 </r>
       <r>   -1.1891    1.0000 </r>
       <r>   -1.0929    1.0000 </r>
       <r>   -0.8822    1.0000 </r>
       <r>   -0.8792    1.0000 </r>
       <r>   -0.8792    1.0000 </r>
       <r>   -0.7747    1.0000 </r>
       <r>   -0.7747    1.0000 </r>
       <r>   -0.7747    1.0000 </r>
       <r>   -0.7747    1.0000 </r>
       <r>   -0.2526    1.0000 </r>
       <r>   -0.1291    1.0000 </r>
       <r>   -0.1291    1.0000 </r>
       <r>   -0.1291    1.0000 </r>
       <r>   -0.1291    1.0000 </r>
       <r>    0.0686    1.0000 </r>
       <r>    0.0928    1.0000 </r>
       <r>    0.3024    1.0000 </r>
       <r>    0.4823    1.0000 </r>
       <r>    0.4823    1.0000 </r>
       <r>    0.6236    1.0000 </r>
       <r>    0.6236    1.0000 </r>
       <r>    0.6236    1.0000 </r>
       <r>    0.6236    1.0000 </r>
       <r>    0.8236    1.0000 </r>
       <r>    1.0705    1.0000 </r>
       <r>    1.0705    1.0000 </r>
       <r>    1.1068    1.0000 </r>
       <r>    1.1068    1.0000 </r>
       <r>    1.1068    1.0000 </r>
       <r>    1.1068    1.0000 </r>
       <r>    1.3337    1.0000 </r>
       <r>    1.7245    1.0000 </r>
       <r>    2.1501    1.0000 </r>
       <r>    2.2966    1.0000 </r>
       <r>    2.2966    1.0000 </r>
       <r>    2.2966    1.0000 </r>
       <r>    2.2966    1.0000 </r>
       <r>    2.5408    1.0000 </r>
       <r>    2.5408    1.0000 </r>
       <r>    2.5623    1.0000 </r>
       <r>    2.7242    1.0000 </r>
       <r>    2.7242    1.0000 </r>
       <r>    2.7242    1.0000 </r>
       <r>    2.7242    1.0000 </r>
       <r>    2.8188    1.0000 </r>
       <r>    2.8188    1.0000 </r>
       <r>    2.8777    1.0000 </r>
       <r>    2.9120    1.0000 </r>
       <r>    3.0980    1.0000 </r>
       <r>    3.0980    1.0000 </r>
       <r>    3.0980    1.0000 </r>
       <r>    3.0980    1.0000 </r>
       <r>    3.1046    1.0000 </r>
       <r>    3.3247    1.0000 </r>
       <r>    3.3247    1.0000 </r>
       <r>    3.3247    1.0000 </r>
       <r>    3.3247    1.0000 </r>
       <r>    3.4688    1.0000 </r>
       <r>    3.4688    1.0000 </r>
       <r>    4.3418    1.0000 </r>
       <r>    4.3418    1.0000 </r>
       <r>    4.3991    1.0000 </r>
       <r>    4.5486    1.0000 </r>
       <r>    5.0037    1.0000 </r>
       <r>    5.0037    1.0000 </r>
       <r>    5.0037    1.0000 </r>
       <r>    5.0037    1.0000 </r>
       <r>    5.1928    1.0000 </r>
       <r>    5.1928    1.0000 </r>
       <r>    5.5291    1.0000 </r>
       <r>    5.5291    1.0000 </r>
       <r>    5.7412    1.0000 </r>
       <r>    7.0672    1.0000 </r>
       <r>    7.3165    1.0000 </r>
       <r>    7.4339    1.0000 </r>
       <r>    7.5841    1.0000 </r>
       <r>    7.5841    1.0000 </r>
       <r>    7.5841    1.0000 </r>
       <r>    7.5841    1.0000 </r>
       <r>    7.6082    1.0000 </r>
       <r>    7.6082    1.0000 </r>
       <r>    7.9142    1.0000 </r>
       <r>    7.9142    1.0000 </r>
       <r>    7.9142    1.0000 </r>
       <r>    7.9142    1.0000 </r>
       <r>    8.0174    1.0000 </r>
       <r>    8.1067    1.0000 </r>
       <r>    8.2378    1.0000 </r>
       <r>    8.2378    1.0000 </r>
       <r>    8.4008    1.0000 </r>
       <r>    8.4008    1.0000 </r>
       <r>    8.4008    1.0000 </r>
       <r>    8.4008    1.0000 </r>
       <r>    8.5782    1.0000 </r>
       <r>    8.5782    1.0000 </r>
       <r>    8.9623    0.9992 </r>
       <r>    8.9623    0.9992 </r>
       <r>    9.0753    1.0024 </r>
       <r>    9.1444    1.0516 </r>
       <r>    9.1444    1.0516 </r>
       <r>    9.1444    1.0516 </r>
       <r>    9.1444    1.0516 </r>
       <r>   10.1358    0.0000 </r>
       <r>   10.1358    0.0000 </r>
       <r>   10.1358    0.0000 </r>
       <r>   10.1358    0.0000 </r>
       <r>   10.4143    0.0000 </r>
       <r>   10.4836    0.0000 </r>
       <r>   10.5342    0.0000 </r>
       <r>   10.5342    0.0000 </r>
       <r>   10.5585    0.0000 </r>
       <r>   10.6801    0.0000 </r>
       <r>   10.7265    0.0000 </r>
       <r>   10.7527    0.0000 </r>
       <r>   10.8001    0.0000 </r>
       <r>   10.8001    0.0000 </r>
       <r>   10.8001    0.0000 </r>
       <r>   10.8001    0.0000 </r>
       <r>   11.1123    0.0000 </r>
       <r>   11.1123    0.0000 </r>
       <r>   11.1123    0.0000 </r>
       <r>   11.1123    0.0000 </r>
       <r>   11.3236    0.0000 </r>
       <r>   11.5205    0.0000 </r>
       <r>   11.5572    0.0000 </r>
       <r>   11.5572    0.0000 </r>
       <r>   11.6638    0.0000 </r>
       <r>   12.1064    0.0000 </r>
       <r>   12.6772    0.0000 </r>
       <r>   12.6800    0.0000 </r>
       <r>   12.6970    0.0000 </r>
      </set>
      <set comment="kpoint 3">
       <r>   -9.3480    1.0000 </r>
       <r>   -9.1416    1.0000 </r>
       <r>   -8.6555    1.0000 </r>
       <r>   -8.6555    1.0000 </r>
       <r>   -8.6555    1.0000 </r>
       <r>   -8.6555    1.0000 </r>
       <r>   -8.4589    1.0000 </r>
       <r>   -8.4010    1.0000 </r>
       <r>   -7.9382    1.0000 </r>
       <r>   -7.8996    1.0000 </r>
       <r>   -7.8831    1.0000 </r>
       <r>   -7.8831    1.0000 </r>
       <r>   -7.8831    1.0000 </r>
       <r>   -7.8831    1.0000 </r>
       <r>   -7.2330    1.0000 </r>
       <r>   -6.9365    1.0000 </r>
       <r>   -6.7357    1.0000 </r>
       <r>   -6.7357    1.0000 </r>
       <r>   -6.7109    1.0000 </r>
       <r>   -6.7109    1.0000 </r>
       <r>   -6.7109    1.0000 </r>
       <r>   -6.7109    1.0000 </r>
       <r>   -6.7008    1.0000 </r>
       <r>   -6.7008    1.0000 </r>
       <r>   -1.1263    1.0000 </r>
       <r>   -1.1263    1.0000 </r>
       <r>   -1.0112    1.0000 </r>
       <r>   -1.0112    1.0000 </r>
       <r>   -0.7734    1.0000 </r>
       <r>   -0.6666    1.0000 </r>
       <r>   -0.6666    1.0000 </r>
       <r>   -0.6666    1.0000 </r>
       <r>   -0.6666    1.0000 </r>
       <r>   -0.6173    1.0000 </r>
       <r>   -0.3751    1.0000 </r>
       <r>   -0.3484    1.0000 </r>
       <r>   -0.3484    1.0000 </r>
       <r>   -0.3484    1.0000 </r>
       <r>   -0.3484    1.0000 </r>
       <r>   -0.3195    1.0000 </r>
       <r>   -0.2123    1.0000 </r>
       <r>   -0.1483    1.0000 </r>
       <r>    0.6009    1.0000 </r>
       <r>    0.6009    1.0000 </r>
       <r>    0.6009    1.0000 </r>
       <r>    0.6009    1.0000 </r>
       <r>    0.7453    1.0000 </r>
       <r>    0.7453    1.0000 </r>
       <r>    1.0102    1.0000 </r>
       <r>    1.0102    1.0000 </r>
       <r>    1.2222    1.0000 </r>
       <r>    1.2222    1.0000 </r>
       <r>    1.2222    1.0000 </r>
       <r>    1.2222    1.0000 </r>
       <r>    1.3047    1.0000 </r>
       <r>    1.5028    1.0000 </r>
       <r>    1.7785    1.0000 </r>
       <r>    1.9399    1.0000 </r>
       <r>    2.0378    1.0000 </r>
       <r>    2.0378    1.0000 </r>
       <r>    2.0378    1.0000 </r>
       <r>    2.0378    1.0000 </r>
       <r>    2.4460    1.0000 </r>
       <r>    2.4672    1.0000 </r>
       <r>    2.4672    1.0000 </r>
       <r>    2.6454    1.0000 </r>
       <r>    2.6454    1.0000 </r>
       <r>    2.9281    1.0000 </r>
       <r>    2.9414    1.0000 </r>
       <r>    2.9414    1.0000 </r>
       <r>    2.9414    1.0000 </r>
       <r>    2.9414    1.0000 </r>
       <r>    3.2397    1.0000 </r>
       <r>    3.2397    1.0000 </r>
       <r>    3.2397    1.0000 </r>
       <r>    3.2397    1.0000 </r>
       <r>    3.5114    1.0000 </r>
       <r>    3.5422    1.0000 </r>
       <r>    3.5422    1.0000 </r>
       <r>    3.5422    1.0000 </r>
       <r>    3.5422    1.0000 </r>
       <r>    3.6164    1.0000 </r>
       <r>    3.7293    1.0000 </r>
       <r>    3.7293    1.0000 </r>
       <r>    4.0107    1.0000 </r>
       <r>    4.0107    1.0000 </r>
       <r>    4.0737    1.0000 </r>
       <r>    4.1522    1.0000 </r>
       <r>    4.6905    1.0000 </r>
       <r>    4.6905    1.0000 </r>
       <r>    4.6905    1.0000 </r>
       <r>    4.6905    1.0000 </r>
       <r>    5.2717    1.0000 </r>
       <r>    5.2717    1.0000 </r>
       <r>    5.3902    1.0000 </r>
       <r>    5.3902    1.0000 </r>
       <r>    6.2476    1.0000 </r>
       <r>    6.8115    1.0000 </r>
       <r>    6.8943    1.0000 </r>
       <r>    7.2482    1.0000 </r>
       <r>    7.4072    1.0000 </r>
       <r>    7.4072    1.0000 </r>
       <r>    7.4072    1.0000 </r>
       <r>    7.4072    1.0000 </r>
       <r>    7.5318    1.0000 </r>
       <r>    7.7639    1.0000 </r>
       <r>    7.9059    1.0000 </r>
       <r>    7.9059    1.0000 </r>
       <r>    7.9059    1.0000 </r>
       <r>    7.9059    1.0000 </r>
       <r>    8.1654    1.0000 </r>
       <r>    8.1654    1.0000 </r>
       <r>    8.2373    1.0000 </r>
       <r>    8.2373    1.0000 </r>
       <r>    8.3860    1.0000 </r>
       <r>    8.3860    1.0000 </r>
       <r>    8.3860    1.0000 </r>
       <r>    8.3860    1.0000 </r>
       <r>    8.6850    1.0000 </r>
       <r>    8.6850    1.0000 </r>
       <r>    9.1265    1.0438 </r>
       <r>    9.1265    1.0438 </r>
       <r>    9.4493    0.0048 </r>
       <r>    9.4493    0.0048 </r>
       <r>    9.4493    0.0048 </r>
       <r>    9.4493    0.0048 </r>
       <r>    9.9129    0.0000 </r>
       <r>    9.9563    0.0000 </r>
       <r>    9.9563    0.0000 </r>
       <r>    9.9563    0.0000 </r>
       <r>    9.9563    0.0000 </r>
       <r>   10.4671    0.0000 </r>
       <r>   10.4671    0.0000 </r>
       <r>   10.4769    0.0000 </r>
       <r>   10.5099    0.0000 </r>
       <r>   10.5739    0.0000 </r>
       <r>   10.5916    0.0000 </r>
       <r>   10.6800    0.0000 </r>
       <r>   10.8608    0.0000 </r>
       <r>   10.8608    0.0000 </r>
       <r>   10.8608    0.0000 </r>
       <r>   10.8608    0.0000 </r>
       <r>   11.0363    0.0000 </r>
       <r>   11.0934    0.0000 </r>
       <r>   11.0934    0.0000 </r>
       <r>   11.3828    0.0000 </r>
       <r>   11.3828    0.0000 </r>
       <r>   11.3828    0.0000 </r>
       <r>   11.3828    0.0000 </r>
       <r>   11.4949    0.0000 </r>
       <r>   11.5121    0.0000 </r>
       <r>   11.7105    0.0000 </r>
       <r>   12.3804    0.0000 </r>
       <r>   12.3935    0.0000 </r>
       <r>   12.4874    0.0000 </r>
       <r>   12.4980    0.0000 </r>
      </set>
      <set comment="kpoint 4">
       <r>   -9.4367    1.0000 </r>
       <r>   -8.8713    1.0000 </r>
       <r>   -8.8713    1.0000 </r>
       <r>   -8.6893    1.0000 </r>
       <r>   -8.6469    1.0000 </r>
       <r>   -8.5485    1.0000 </r>
       <r>   -8.5485    1.0000 </r>
       <r>   -8.3767    1.0000 </r>
       <r>   -7.9721    1.0000 </r>
       <r>   -7.9624    1.0000 </r>
       <r>   -7.9624    1.0000 </r>
       <r>   -7.8776    1.0000 </r>
       <r>   -7.7256    1.0000 </r>
       <r>   -7.5814    1.0000 </r>
       <r>   -7.5814    1.0000 </r>
       <r>   -6.8109    1.0000 </r>
       <r>   -6.7593    1.0000 </r>
       <r>   -6.7433    1.0000 </r>
       <r>   -6.7433    1.0000 </r>
       <r>   -6.7381    1.0000 </r>
       <r>   -6.7381    1.0000 </r>
       <r>   -6.7066    1.0000 </r>
       <r>   -6.6775    1.0000 </r>
       <r>   -6.6676    1.0000 </r>
       <r>   -1.2175    1.0000 </r>
       <r>   -1.0793    1.0000 </r>
       <r>   -1.0779    1.0000 </r>
       <r>   -0.8888    1.0000 </r>
       <r>   -0.8888    1.0000 </r>
       <r>   -0.8196    1.0000 </r>
       <r>   -0.8001    1.0000 </r>
       <r>   -0.8001    1.0000 </r>
       <r>   -0.7407    1.0000 </r>
       <r>   -0.6308    1.0000 </r>
       <r>   -0.4459    1.0000 </r>
       <r>   -0.3463    1.0000 </r>
       <r>   -0.3463    1.0000 </r>
       <r>   -0.0607    1.0000 </r>
       <r>   -0.0074    1.0000 </r>
       <r>   -0.0074    1.0000 </r>
       <r>    0.0352    1.0000 </r>
       <r>    0.3429    1.0000 </r>
       <r>    0.3429    1.0000 </r>
       <r>    0.4798    1.0000 </r>
       <r>    0.5866    1.0000 </r>
       <r>    0.5939    1.0000 </r>
       <r>    0.6094    1.0000 </r>
       <r>    0.7012    1.0000 </r>
       <r>    0.7012    1.0000 </r>
       <r>    0.7601    1.0000 </r>
       <r>    1.0885    1.0000 </r>
       <r>    1.0885    1.0000 </r>
       <r>    1.1965    1.0000 </r>
       <r>    1.1965    1.0000 </r>
       <r>    1.5537    1.0000 </r>
       <r>    1.6288    1.0000 </r>
       <r>    1.8875    1.0000 </r>
       <r>    1.9982    1.0000 </r>
       <r>    2.2526    1.0000 </r>
       <r>    2.2860    1.0000 </r>
       <r>    2.2860    1.0000 </r>
       <r>    2.3548    1.0000 </r>
       <r>    2.3548    1.0000 </r>
       <r>    2.4858    1.0000 </r>
       <r>    2.4858    1.0000 </r>
       <r>    2.5640    1.0000 </r>
       <r>    2.5681    1.0000 </r>
       <r>    2.7134    1.0000 </r>
       <r>    2.7829    1.0000 </r>
       <r>    2.8533    1.0000 </r>
       <r>    2.8681    1.0000 </r>
       <r>    2.8681    1.0000 </r>
       <r>    2.9970    1.0000 </r>
       <r>    2.9970    1.0000 </r>
       <r>    3.2411    1.0000 </r>
       <r>    3.2871    1.0000 </r>
       <r>    3.2871    1.0000 </r>
       <r>    3.3428    1.0000 </r>
       <r>    3.3468    1.0000 </r>
       <r>    3.3496    1.0000 </r>
       <r>    3.4284    1.0000 </r>
       <r>    3.4284    1.0000 </r>
       <r>    3.6542    1.0000 </r>
       <r>    3.6542    1.0000 </r>
       <r>    3.9405    1.0000 </r>
       <r>    4.1839    1.0000 </r>
       <r>    4.4715    1.0000 </r>
       <r>    4.4809    1.0000 </r>
       <r>    4.6582    1.0000 </r>
       <r>    5.0157    1.0000 </r>
       <r>    5.0157    1.0000 </r>
       <r>    5.0657    1.0000 </r>
       <r>    5.0657    1.0000 </r>
       <r>    5.1658    1.0000 </r>
       <r>    5.4153    1.0000 </r>
       <r>    5.5431    1.0000 </r>
       <r>    5.9015    1.0000 </r>
       <r>    7.1175    1.0000 </r>
       <r>    7.1175    1.0000 </r>
       <r>    7.2606    1.0000 </r>
       <r>    7.4299    1.0000 </r>
       <r>    7.4389    1.0000 </r>
       <r>    7.4389    1.0000 </r>
       <r>    7.5319    1.0000 </r>
[...]
       <r>   11.2368    0.0000 </r>
       <r>   11.2368    0.0000 </r>
       <r>   11.5059    0.0000 </r>
       <r>   11.5059    0.0000 </r>
       <r>   11.5061    0.0000 </r>
       <r>   11.5518    0.0000 </r>
       <r>   11.5520    0.0000 </r>
       <r>   11.5534    0.0000 </r>
       <r>   11.7458    0.0000 </r>
       <r>   11.7485    0.0000 </r>
       <r>   11.8336    0.0000 </r>
       <r>   11.8677    0.0000 </r>
       <r>   11.8862    0.0000 </r>
       <r>   11.8941    0.0000 </r>
      </set>
     </set>
    </set>
   </array>
  </eigenvalues>
  <separator name="orbital magnetization" >
   <v name="MAGDIPOLOUT">      0.00000000      0.00000000      0.00000000</v>
  </separator>
  <dos>
   <i name="efermi">      9.23951918 </i>
   <total>
    <array>
     <dimension dim="1">gridpoints</dimension>
     <dimension dim="2">spin</dimension>
     <field>energy</field>
     <field>total</field>
     <field>integrated</field>
     <set>
      <set comment="spin 1">
       <r>   -10.6497     0.0000     0.0000 </r>
       <r>   -10.5675     0.0000     0.0000 </r>
       <r>   -10.4852     0.0000     0.0000 </r>
       <r>   -10.4030     0.0000     0.0000 </r>
       <r>   -10.3207     0.0000     0.0000 </r>
       <r>   -10.2385     0.0000     0.0000 </r>
       <r>   -10.1562     0.0000     0.0000 </r>
       <r>   -10.0740     0.0000     0.0000 </r>
       <r>    -9.9917     0.0000     0.0000 </r>
       <r>    -9.9095     0.0000     0.0000 </r>
       <r>    -9.8272     0.0001     0.0000 </r>
       <r>    -9.7450     0.0029     0.0002 </r>
       <r>    -9.6627     0.0066     0.0008 </r>
       <r>    -9.5805    -0.0819    -0.0060 </r>
       <r>    -9.4982     0.5802     0.0418 </r>
       <r>    -9.4160     2.6800     0.2622 </r>
       <r>    -9.3337     3.8418     0.5782 </r>
       <r>    -9.2515     6.4862     1.1117 </r>
       <r>    -9.1692     5.1492     1.5352 </r>
       <r>    -9.0870     9.2778     2.2983 </r>
       <r>    -9.0047     9.8873     3.1115 </r>
       <r>    -8.9225    11.3410     4.0443 </r>
       <r>    -8.8402    17.5851     5.4907 </r>
       <r>    -8.7580    17.4514     6.9261 </r>
       <r>    -8.6757    11.2741     7.8534 </r>
       <r>    -8.5935    28.5495    10.2016 </r>
       <r>    -8.5112    35.7334    13.1407 </r>
       <r>    -8.4290    23.3465    15.0609 </r>
       <r>    -8.3467    10.9744    15.9636 </r>
       <r>    -8.2645     0.7242    16.0231 </r>
       <r>    -8.1822    -1.8758    15.8689 </r>
       <r>    -8.1000    13.6705    16.9933 </r>
       <r>    -8.0177    38.4026    20.1519 </r>
       <r>    -7.9355    29.7611    22.5997 </r>
       <r>    -7.8532    16.4945    23.9564 </r>
       <r>    -7.7710     5.9496    24.4458 </r>
       <r>    -7.6887     2.9461    24.6881 </r>
       <r>    -7.6064     8.8220    25.4137 </r>
       <r>    -7.5242    15.7515    26.7093 </r>
       <r>    -7.4419     6.8928    27.2762 </r>
       <r>    -7.3597     6.0458    27.7735 </r>
       <r>    -7.2774    15.6227    29.0584 </r>
       <r>    -7.1952    11.6031    30.0128 </r>
       <r>    -7.1129     5.8117    30.4908 </r>
       <r>    -7.0307     6.0353    30.9872 </r>
       <r>    -6.9484     6.6121    31.5310 </r>
       <r>    -6.8662    -0.2428    31.5111 </r>
       <r>    -6.7839     3.5773    31.8053 </r>
       <r>    -6.7017   105.0645    40.4469 </r>
       <r>    -6.6194    96.0647    48.3482 </r>
       <r>    -6.5372    -3.2064    48.0845 </r>
       <r>    -6.4549    -1.4817    47.9626 </r>
       <r>    -6.3727     0.4338    47.9983 </r>
       <r>    -6.2904     0.0204    48.0000 </r>
       <r>    -6.2082     0.0002    48.0000 </r>
       <r>    -6.1259     0.0000    48.0000 </r>
       <r>    -6.0437     0.0000    48.0000 </r>
       <r>    -5.9614     0.0000    48.0000 </r>
       <r>    -5.8792     0.0000    48.0000 </r>
       <r>    -5.7969     0.0000    48.0000 </r>
       <r>    -5.7147     0.0000    48.0000 </r>
       <r>    -5.6324     0.0000    48.0000 </r>
       <r>    -5.5502     0.0000    48.0000 </r>
       <r>    -5.4679     0.0000    48.0000 </r>
       <r>    -5.3857     0.0000    48.0000 </r>
       <r>    -5.3034     0.0000    48.0000 </r>
       <r>    -5.2212     0.0000    48.0000 </r>
       <r>    -5.1389     0.0000    48.0000 </r>
       <r>    -5.0567     0.0000    48.0000 </r>
       <r>    -4.9744     0.0000    48.0000 </r>
       <r>    -4.8922     0.0000    48.0000 </r>
       <r>    -4.8099     0.0000    48.0000 </r>
       <r>    -4.7277     0.0000    48.0000 </r>
       <r>    -4.6454     0.0000    48.0000 </r>
       <r>    -4.5632     0.0000    48.0000 </r>
       <r>    -4.4809     0.0000    48.0000 </r>
       <r>    -4.3987     0.0000    48.0000 </r>
       <r>    -4.3164     0.0000    48.0000 </r>
       <r>    -4.2342     0.0000    48.0000 </r>
       <r>    -4.1519     0.0000    48.0000 </r>
       <r>    -4.0697     0.0000    48.0000 </r>
       <r>    -3.9874     0.0000    48.0000 </r>
       <r>    -3.9052     0.0000    48.0000 </r>
       <r>    -3.8229     0.0000    48.0000 </r>
       <r>    -3.7407     0.0000    48.0000 </r>
       <r>    -3.6584     0.0000    48.0000 </r>
       <r>    -3.5762     0.0000    48.0000 </r>
       <r>    -3.4939     0.0000    48.0000 </r>
       <r>    -3.4117     0.0000    48.0000 </r>
       <r>    -3.3294     0.0000    48.0000 </r>
       <r>    -3.2472     0.0000    48.0000 </r>
       <r>    -3.1649     0.0000    48.0000 </r>
       <r>    -3.0827     0.0000    48.0000 </r>
       <r>    -3.0004     0.0000    48.0000 </r>
       <r>    -2.9182     0.0000    48.0000 </r>
       <r>    -2.8359     0.0000    48.0000 </r>
       <r>    -2.7537     0.0000    48.0000 </r>
       <r>    -2.6714     0.0000    48.0000 </r>
       <r>    -2.5892     0.0000    48.0000 </r>
       <r>    -2.5069     0.0000    48.0000 </r>
       <r>    -2.4247     0.0000    48.0000 </r>
       <r>    -2.3424     0.0000    48.0000 </r>
       <r>    -2.2602     0.0000    48.0000 </r>
       <r>    -2.1779     0.0000    48.0000 </r>
       <r>    -2.0957     0.0000    48.0000 </r>
       <r>    -2.0134     0.0000    48.0000 </r>
       <r>    -1.9312     0.0000    48.0000 </r>
       <r>    -1.8489     0.0000    48.0000 </r>
       <r>    -1.7667     0.0000    48.0000 </r>
       <r>    -1.6844     0.0000    48.0000 </r>
       <r>    -1.6022     0.0000    48.0000 </r>
       <r>    -1.5199     0.0014    48.0001 </r>
       <r>    -1.4377     0.0347    48.0030 </r>
       <r>    -1.3554    -0.0486    47.9990 </r>
       <r>    -1.2732    -0.3319    47.9717 </r>
       <r>    -1.1909     6.2350    48.4845 </r>
       <r>    -1.1087    19.3650    50.0773 </r>
       <r>    -1.0264    34.5412    52.9183 </r>
       <r>    -0.9442    29.8297    55.3718 </r>
       <r>    -0.8619    43.1986    58.9249 </r>
       <r>    -0.7797    42.4027    62.4125 </r>
       <r>    -0.6974    32.9080    65.1192 </r>
       <r>    -0.6152    28.7361    67.4828 </r>
       <r>    -0.5329    26.3993    69.6541 </r>
       <r>    -0.4507    17.8328    71.1209 </r>
       <r>    -0.3684    14.7592    72.3348 </r>
       <r>    -0.2862    22.1293    74.1549 </r>
       <r>    -0.2039    19.7647    75.7806 </r>
       <r>    -0.1217    27.9700    78.0811 </r>
       <r>    -0.0394    18.4894    79.6019 </r>
       <r>     0.0428    14.8893    80.8265 </r>
       <r>     0.1251    22.3644    82.6660 </r>
       <r>     0.2073    14.2989    83.8421 </r>
       <r>     0.2896     6.4157    84.3698 </r>
       <r>     0.3718    15.7902    85.6685 </r>
       <r>     0.4541    29.0002    88.0538 </r>
       <r>     0.5363    35.9396    91.0098 </r>
       <r>     0.6186    29.9735    93.4752 </r>
       <r>     0.7008    22.5603    95.3308 </r>
       <r>     0.7831    11.4040    96.2687 </r>
       <r>     0.8653    19.0784    97.8379 </r>
       <r>     0.9476    20.8351    99.5516 </r>
       <r>     1.0298    20.1033   101.2051 </r>
       <r>     1.1121    20.3795   102.8814 </r>
       <r>     1.1943    13.2119   103.9680 </r>
       <r>     1.2766    13.8301   105.1056 </r>
       <r>     1.3588     7.9090   105.7561 </r>
       <r>     1.4411     4.9147   106.1603 </r>
       <r>     1.5233     7.1015   106.7444 </r>
       <r>     1.6056    11.9166   107.7246 </r>
       <r>     1.6878    21.4257   109.4868 </r>
       <r>     1.7701    14.1497   110.6506 </r>
       <r>     1.8523     6.0719   111.1501 </r>
       <r>     1.9346    11.9290   112.1312 </r>
       <r>     2.0168    10.0522   112.9580 </r>
       <r>     2.0991    38.5701   116.1304 </r>
       <r>     2.1813    29.9884   118.5970 </r>
       <r>     2.2636    19.6664   120.2145 </r>
       <r>     2.3458    25.8947   122.3444 </r>
       <r>     2.4281    35.4047   125.2564 </r>
       <r>     2.5103    41.2193   128.6467 </r>
       <r>     2.5926    38.7385   131.8330 </r>
       <r>     2.6748    21.4115   133.5941 </r>
       <r>     2.7571    40.8603   136.9548 </r>
       <r>     2.8393    37.2124   140.0155 </r>
       <r>     2.9216    29.6654   142.4555 </r>
       <r>     3.0038    27.8733   144.7481 </r>
       <r>     3.0861    19.8451   146.3804 </r>
       <r>     3.1683    26.3408   148.5469 </r>
       <r>     3.2506    20.8674   150.2633 </r>
       <r>     3.3328    50.6047   154.4255 </r>
       <r>     3.4151    47.5860   158.3395 </r>
       <r>     3.4973    29.5096   160.7666 </r>
       <r>     3.5796    20.3224   162.4381 </r>
       <r>     3.6618    28.0668   164.7466 </r>
       <r>     3.7441    20.3774   166.4227 </r>
       <r>     3.8263     6.2278   166.9349 </r>
       <r>     3.9086    14.7781   168.1504 </r>
       <r>     3.9908    15.7684   169.4474 </r>
       <r>     4.0731    11.7988   170.4178 </r>
       <r>     4.1553    15.8062   171.7179 </r>
       <r>     4.2376    11.9929   172.7043 </r>
       <r>     4.3198     7.6304   173.3319 </r>
       <r>     4.4021     8.4106   174.0237 </r>
       <r>     4.4843    17.7294   175.4819 </r>
       <r>     4.5666    10.9049   176.3789 </r>
       <r>     4.6488     7.8391   177.0236 </r>
       <r>     4.7311    16.8161   178.4068 </r>
       <r>     4.8133    11.2413   179.3314 </r>
       <r>     4.8956     4.1405   179.6719 </r>
       <r>     4.9778    12.0716   180.6648 </r>
       <r>     5.0601    25.0581   182.7259 </r>
       <r>     5.1423    19.5538   184.3342 </r>
       <r>     5.2246    33.9231   187.1243 </r>
       <r>     5.3068    24.6447   189.1514 </r>
       <r>     5.3891    17.9646   190.6290 </r>
       <r>     5.4713    10.0636   191.4567 </r>
       <r>     5.5536     4.6285   191.8374 </r>
       <r>     5.6358     2.1749   192.0163 </r>
       <r>     5.7181     0.3267   192.0431 </r>
       <r>     5.8003     0.4411   192.0794 </r>
       <r>     5.8826     2.9987   192.3261 </r>
       <r>     5.9648     5.4422   192.7737 </r>
       <r>     6.0471     1.0279   192.8582 </r>
       <r>     6.1293     0.5239   192.9013 </r>
       <r>     6.2116     2.7474   193.1273 </r>
       <r>     6.2938     9.8464   193.9372 </r>
       <r>     6.3761     5.1473   194.3605 </r>
       <r>     6.4583     8.8706   195.0901 </r>
       <r>     6.5406     6.9913   195.6652 </r>
       <r>     6.6228    12.3989   196.6850 </r>
       <r>     6.7051     6.6889   197.2351 </r>
       <r>     6.7873     3.7654   197.5448 </r>
       <r>     6.8696    13.3639   198.6440 </r>
       <r>     6.9518    12.0432   199.6346 </r>
       <r>     7.0341     8.6874   200.3491 </r>
       <r>     7.1163     9.5266   201.1327 </r>
       <r>     7.1986     5.7410   201.6049 </r>
       <r>     7.2808    11.2195   202.5277 </r>
       <r>     7.3631    18.4419   204.0445 </r>
       <r>     7.4453    24.4384   206.0546 </r>
       <r>     7.5276    18.1416   207.5468 </r>
       <r>     7.6098    19.8380   209.1784 </r>
       <r>     7.6921    13.6733   210.3031 </r>
       <r>     7.7743    25.7622   212.4220 </r>
       <r>     7.8566    27.5937   214.6916 </r>
       <r>     7.9388    22.8151   216.5681 </r>
       <r>     8.0211    14.7506   217.7814 </r>
       <r>     8.1033    21.8817   219.5812 </r>
       <r>     8.1856    28.5285   221.9276 </r>
       <r>     8.2678    25.1442   223.9957 </r>
       <r>     8.3501    24.3420   225.9979 </r>
       <r>     8.4323    21.2549   227.7461 </r>
       <r>     8.5146    16.4163   229.0963 </r>
       <r>     8.5968    24.9574   231.1491 </r>
       <r>     8.6791    29.9430   233.6119 </r>
       <r>     8.7613    28.2244   235.9334 </r>
       <r>     8.8436    16.0782   237.2558 </r>
       <r>     8.9258    24.4509   239.2669 </r>
       <r>     9.0081    20.4686   240.9504 </r>
       <r>     9.0903    30.8308   243.4863 </r>
       <r>     9.1726    41.2662   246.8804 </r>
       <r>     9.2548    14.3473   248.0605 </r>
       <r>     9.3371     3.5690   248.3541 </r>
       <r>     9.4193     6.4770   248.8868 </r>
       <r>     9.5016     5.9804   249.3787 </r>
       <r>     9.5838     9.8208   250.1864 </r>
       <r>     9.6661    15.4700   251.4588 </r>
       <r>     9.7483     6.9260   252.0285 </r>
       <r>     9.8306    10.1840   252.8662 </r>
       <r>     9.9128    25.7239   254.9819 </r>
       <r>     9.9951    22.7002   256.8490 </r>
       <r>    10.0773    25.3487   258.9340 </r>
       <r>    10.1596    23.6333   260.8778 </r>
       <r>    10.2418    13.5039   261.9885 </r>
       <r>    10.3241    24.1721   263.9767 </r>
       <r>    10.4063    21.6212   265.7550 </r>
       <r>    10.4886    20.0508   267.4042 </r>
       <r>    10.5708    26.1495   269.5550 </r>
       <r>    10.6531    33.6198   272.3202 </r>
       <r>    10.7353    33.1613   275.0478 </r>
       <r>    10.8176    39.7926   278.3207 </r>
       <r>    10.8998    31.9008   280.9446 </r>
       <r>    10.9821    24.8619   282.9895 </r>
       <r>    11.0643    20.2099   284.6517 </r>
       <r>    11.1466    27.2912   286.8964 </r>
       <r>    11.2288    37.2939   289.9639 </r>
       <r>    11.3111    38.1052   293.0980 </r>
       <r>    11.3933    26.7702   295.2999 </r>
       <r>    11.4756    13.2344   296.3884 </r>
       <r>    11.5578    17.0734   297.7927 </r>
       <r>    11.6401    19.2295   299.3743 </r>
       <r>    11.7223    10.4685   300.2354 </r>
       <r>    11.8046    21.3928   301.9949 </r>
       <r>    11.8868    33.5845   304.7572 </r>
       <r>    11.9691    13.2645   305.8483 </r>
       <r>    12.0513    14.3661   307.0299 </r>
       <r>    12.1336    21.9981   308.8392 </r>
       <r>    12.2158     8.6615   309.5516 </r>
       <r>    12.2981    11.0134   310.4575 </r>
       <r>    12.3803     6.9202   311.0267 </r>
       <r>    12.4626     3.5589   311.3194 </r>
       <r>    12.5448     1.3688   311.4320 </r>
       <r>    12.6271     1.8502   311.5842 </r>
       <r>    12.7093     3.8878   311.9039 </r>
       <r>    12.7916     0.9268   311.9802 </r>
       <r>    12.8738    -0.0792   311.9736 </r>
       <r>    12.9561     0.3025   311.9985 </r>
       <r>    13.0383     0.0263   312.0007 </r>
       <r>    13.1206    -0.0100   311.9999 </r>
       <r>    13.2028     0.0015   312.0000 </r>
       <r>    13.2851     0.0001   312.0000 </r>
       <r>    13.3673     0.0000   312.0000 </r>
       <r>    13.4496     0.0000   312.0000 </r>
       <r>    13.5318     0.0000   312.0000 </r>
       <r>    13.6141     0.0000   312.0000 </r>
       <r>    13.6963     0.0000   312.0000 </r>
       <r>    13.7786     0.0000   312.0000 </r>
       <r>    13.8608     0.0000   312.0000 </r>
       <r>    13.9431     0.0000   312.0000 </r>
       <r>    14.0253     0.0000   312.0000 </r>
      </set>
     </set>
    </array>
   </total>
  </dos>
 </calculation>
 <structure name="finalpos" >
  <crystal>
   <varray name="basis" >
    <v>       8.66474884       0.00000000       0.00000000 </v>
    <v>       0.00000000       8.66474884       0.00000000 </v>
    <v>       0.00000000       0.00000000       8.66474884 </v>
   </varray>
   <i name="volume">    650.53090795 </i>
   <varray name="rec_basis" >
    <v>       0.11541015      -0.00000000       0.00000000 </v>
    <v>      -0.00000000       0.11541015       0.00000000 </v>
    <v>      -0.00000000      -0.00000000       0.11541015 </v>
   </varray>
  </crystal>
  <varray name="positions" >
   <v>       0.87500000       0.87500000       0.12500000 </v>
   <v>       0.37500000       0.12500000       0.37500000 </v>
   <v>       0.62500000       0.87500000       0.37500000 </v>
   <v>       0.12500000       0.12500000       0.12500000 </v>
   <v>       0.25000000       0.75000000       0.25000000 </v>
   <v>      -0.00000000      -0.00000000       0.50000000 </v>
   <v>       0.87500000       0.37500000       0.62500000 </v>
   <v>       0.37500000       0.62500000       0.87500000 </v>
   <v>       0.62500000       0.37500000       0.87500000 </v>
   <v>       0.12500000       0.62500000       0.62500000 </v>
   <v>       0.25000000       0.25000000       0.75000000 </v>
   <v>      -0.00000000       0.50000000      -0.00000000 </v>
   <v>       0.37500000       0.87500000       0.62500000 </v>
   <v>       0.87500000       0.12500000       0.87500000 </v>
   <v>       0.12500000       0.87500000       0.87500000 </v>
   <v>       0.62500000       0.12500000       0.62500000 </v>
   <v>       0.75000000       0.75000000       0.75000000 </v>
   <v>       0.50000000      -0.00000000      -0.00000000 </v>
   <v>       0.37500000       0.37500000       0.12500000 </v>
   <v>       0.87500000       0.62500000       0.37500000 </v>
   <v>       0.12500000       0.37500000       0.37500000 </v>
   <v>       0.62500000       0.62500000       0.12500000 </v>
   <v>       0.75000000       0.25000000       0.25000000 </v>
   <v>       0.50000000       0.50000000       0.50000000 </v>
   <v>       0.37607117       0.37607117       0.37607117 </v>
   <v>       0.87392883       0.12607117       0.12607117 </v>
   <v>       0.62607117       0.12607117       0.37392883 </v>
   <v>       0.12607117       0.87392883       0.12607117 </v>
   <v>       0.12392883       0.12392883       0.37607117 </v>
   <v>       0.12392883       0.37607117       0.12392883 </v>
   <v>       0.37392883       0.87392883       0.37392883 </v>
   <v>       0.37607117       0.12392883       0.12392883 </v>
   <v>       0.37607117       0.87607117       0.87607117 </v>
   <v>       0.87392883       0.62607117       0.62607117 </v>
   <v>       0.62607117       0.62607117       0.87392883 </v>
   <v>       0.12607117       0.37392883       0.62607117 </v>
   <v>       0.12392883       0.62392883       0.87607117 </v>
   <v>       0.12392883       0.87607117       0.62392883 </v>
   <v>       0.37392883       0.37392883       0.87392883 </v>
   <v>       0.37607117       0.62392883       0.62392883 </v>
   <v>       0.87607117       0.37607117       0.87607117 </v>
   <v>       0.37392883       0.12607117       0.62607117 </v>
   <v>       0.12607117       0.12607117       0.87392883 </v>
   <v>       0.62607117       0.87392883       0.62607117 </v>
   <v>       0.62392883       0.12392883       0.87607117 </v>
   <v>       0.62392883       0.37607117       0.62392883 </v>
   <v>       0.87392883       0.87392883       0.87392883 </v>
   <v>       0.87607117       0.12392883       0.62392883 </v>
   <v>       0.87607117       0.87607117       0.37607117 </v>
   <v>       0.37392883       0.62607117       0.12607117 </v>
   <v>       0.12607117       0.62607117       0.37392883 </v>
   <v>       0.62607117       0.37392883       0.12607117 </v>
   <v>       0.62392883       0.62392883       0.37607117 </v>
   <v>       0.62392883       0.87607117       0.12392883 </v>
   <v>       0.87392883       0.37392883       0.37392883 </v>
   <v>       0.87607117       0.62392883       0.12392883 </v>
  </varray>
 </structure>
</modeling>
