unknown system                          
           1
     8.664749    0.000000    0.000000
     0.000000    8.664749    0.000000
     0.000000    0.000000    8.664749
   Si   N 
  24  32
Direct configuration=     1
   0.87500000  0.87500000  0.12500000
   0.37500000  0.12500000  0.37500000
   0.62500000  0.87500000  0.37500000
   0.12500000  0.12500000  0.12500000
   0.25000000  0.75000000  0.25000000
   0.00000000  0.00000000  0.50000000
   0.87500000  0.37500000  0.62500000
   0.37500000  0.62500000  0.87500000
   0.62500000  0.37500000  0.87500000
   0.12500000  0.62500000  0.62500000
   0.25000000  0.25000000  0.75000000
   0.00000000  0.50000000  0.00000000
   0.37500000  0.87500000  0.62500000
   0.87500000  0.12500000  0.87500000
   0.12500000  0.87500000  0.87500000
   0.62500000  0.12500000  0.62500000
   0.75000000  0.75000000  0.75000000
   0.50000000  0.00000000  0.00000000
   0.37500000  0.37500000  0.12500000
   0.87500000  0.62500000  0.37500000
   0.12500000  0.37500000  0.37500000
   0.62500000  0.62500000  0.12500000
   0.75000000  0.25000000  0.25000000
   0.50000000  0.50000000  0.50000000
   0.37630293  0.37630293  0.37630293
   0.87369707  0.12630293  0.12630293
   0.62630293  0.12630293  0.37369707
   0.12630293  0.87369707  0.12630293
   0.12369707  0.12369707  0.37630293
   0.12369707  0.37630293  0.12369707
   0.37369707  0.87369707  0.37369707
   0.37630293  0.12369707  0.12369707
   0.37630293  0.87630293  0.87630293
   0.87369707  0.62630293  0.62630293
   0.62630293  0.62630293  0.87369707
   0.12630293  0.37369707  0.62630293
   0.12369707  0.62369707  0.87630293
   0.12369707  0.87630293  0.62369707
   0.37369707  0.37369707  0.87369707
   0.37630293  0.62369707  0.62369707
   0.87630293  0.37630293  0.87630293
   0.37369707  0.12630293  0.62630293
   0.12630293  0.12630293  0.87369707
   0.62630293  0.87369707  0.62630293
   0.62369707  0.12369707  0.87630293
   0.62369707  0.37630293  0.62369707
   0.87369707  0.87369707  0.87369707
   0.87630293  0.12369707  0.62369707
   0.87630293  0.87630293  0.37630293
   0.37369707  0.62630293  0.12630293
   0.12630293  0.62630293  0.37369707
   0.62630293  0.37369707  0.12630293
   0.62369707  0.62369707  0.37630293
   0.62369707  0.87630293  0.12369707
   0.87369707  0.37369707  0.37369707
   0.87630293  0.62369707  0.12369707
Direct configuration=     2
   0.87500000  0.87500000  0.12500000
   0.37500000  0.12500000  0.37500000
   0.62500000  0.87500000  0.37500000
   0.12500000  0.12500000  0.12500000
   0.25000000  0.75000000  0.25000000
  -0.00000000 -0.00000000  0.50000000
   0.87500000  0.37500000  0.62500000
   0.37500000  0.62500000  0.87500000
   0.62500000  0.37500000  0.87500000
   0.12500000  0.62500000  0.62500000
   0.25000000  0.25000000  0.75000000
  -0.00000000  0.50000000 -0.00000000
   0.37500000  0.87500000  0.62500000
   0.87500000  0.12500000  0.87500000
   0.12500000  0.87500000  0.87500000
   0.62500000  0.12500000  0.62500000
   0.75000000  0.75000000  0.75000000
   0.50000000 -0.00000000 -0.00000000
   0.37500000  0.37500000  0.12500000
   0.87500000  0.62500000  0.37500000
   0.12500000  0.37500000  0.37500000
   0.62500000  0.62500000  0.12500000
   0.75000000  0.25000000  0.25000000
   0.50000000  0.50000000  0.50000000
   0.37594759  0.37594759  0.37594759
   0.87405241  0.12594759  0.12594759
   0.62594759  0.12594759  0.37405241
   0.12594759  0.87405241  0.12594759
   0.12405241  0.12405241  0.37594759
   0.12405241  0.37594759  0.12405241
   0.37405241  0.87405241  0.37405241
   0.37594759  0.12405241  0.12405241
   0.37594759  0.87594759  0.87594759
   0.87405241  0.62594759  0.62594759
   0.62594759  0.62594759  0.87405241
   0.12594759  0.37405241  0.62594759
   0.12405241  0.62405241  0.87594759
   0.12405241  0.87594759  0.62405241
   0.37405241  0.37405241  0.87405241
   0.37594759  0.62405241  0.62405241
   0.87594759  0.37594759  0.87594759
   0.37405241  0.12594759  0.62594759
   0.12594759  0.12594759  0.87405241
   0.62594759  0.87405241  0.62594759
   0.62405241  0.12405241  0.87594759
   0.62405241  0.37594759  0.62405241
   0.87405241  0.87405241  0.87405241
   0.87594759  0.12405241  0.62405241
   0.87594759  0.87594759  0.37594759
   0.37405241  0.62594759  0.12594759
   0.12594759  0.62594759  0.37405241
   0.62594759  0.37405241  0.12594759
   0.62405241  0.62405241  0.37594759
   0.62405241  0.87594759  0.12405241
   0.87405241  0.37405241  0.37405241
   0.87594759  0.62405241  0.12405241
Direct configuration=     3
   0.87500000  0.87500000  0.12500000
   0.37500000  0.12500000  0.37500000
   0.62500000  0.87500000  0.37500000
   0.12500000  0.12500000  0.12500000
   0.25000000  0.75000000  0.25000000
  -0.00000000 -0.00000000  0.50000000
   0.87500000  0.37500000  0.62500000
   0.37500000  0.62500000  0.87500000
   0.62500000  0.37500000  0.87500000
   0.12500000  0.62500000  0.62500000
   0.25000000  0.25000000  0.75000000
  -0.00000000  0.50000000 -0.00000000
   0.37500000  0.87500000  0.62500000
   0.87500000  0.12500000  0.87500000
   0.12500000  0.87500000  0.87500000
   0.62500000  0.12500000  0.62500000
   0.75000000  0.75000000  0.75000000
   0.50000000 -0.00000000 -0.00000000
   0.37500000  0.37500000  0.12500000
   0.87500000  0.62500000  0.37500000
   0.12500000  0.37500000  0.37500000
   0.62500000  0.62500000  0.12500000
   0.75000000  0.25000000  0.25000000
   0.50000000  0.50000000  0.50000000
   0.37607117  0.37607117  0.37607117
   0.87392883  0.12607117  0.12607117
   0.62607117  0.12607117  0.37392883
   0.12607117  0.87392883  0.12607117
   0.12392883  0.12392883  0.37607117
   0.12392883  0.37607117  0.12392883
   0.37392883  0.87392883  0.37392883
   0.37607117  0.12392883  0.12392883
   0.37607117  0.87607117  0.87607117
   0.87392883  0.62607117  0.62607117
   0.62607117  0.62607117  0.87392883
   0.12607117  0.37392883  0.62607117
   0.12392883  0.62392883  0.87607117
   0.12392883  0.87607117  0.62392883
   0.37392883  0.37392883  0.87392883
   0.37607117  0.62392883  0.62392883
   0.87607117  0.37607117  0.87607117
   0.37392883  0.12607117  0.62607117
   0.12607117  0.12607117  0.87392883
   0.62607117  0.87392883  0.62607117
   0.62392883  0.12392883  0.87607117
   0.62392883  0.37607117  0.62392883
   0.87392883  0.87392883  0.87392883
   0.87607117  0.12392883  0.62392883
   0.87607117  0.87607117  0.37607117
   0.37392883  0.62607117  0.12607117
   0.12607117  0.62607117  0.37392883
   0.62607117  0.37392883  0.12607117
   0.62392883  0.62392883  0.37607117
   0.62392883  0.87607117  0.12392883
   0.87392883  0.37392883  0.37392883
   0.87607117  0.62392883  0.12392883
