  28  28   0   0
  0.1162989E+02  0.8372173E-09  0.8372173E-09  0.5364469E-09  0.5000000E-15
  1.000000000000000E-004
  CAR 
 unknown system                          
     15.09939201    -12.02783749  301      8.33531944      1.00000000
    -12.028  0.0000E+00  0.0000E+00
    -11.937  0.0000E+00  0.0000E+00
    -11.847  0.0000E+00  0.0000E+00
    -11.757  0.0000E+00  0.0000E+00
    -11.666  0.7249E-34  0.6554E-35
    -11.576  0.1636E-27  0.1479E-28
    -11.485  0.6848E-22  0.6192E-23
    -11.395  0.5378E-17  0.4863E-18
    -11.304  0.7902E-13  0.7146E-14
    -11.214  0.2143E-09  0.1938E-10
    -11.124  0.1042E-06  0.9446E-08
    -11.033  0.8137E-05  0.7453E-06
    -10.943  0.5043E-04  0.5305E-05
    -10.852 -0.4030E-03 -0.3113E-04
    -10.762  0.3412E-02  0.2774E-03
    -10.671  0.1811E-01  0.1915E-02
    -10.581  0.2935E-01  0.4569E-02
    -10.491  0.4076E-01  0.8255E-02
    -10.400  0.3442E-01  0.1137E-01
    -10.310  0.4768E-01  0.1568E-01
    -10.219  0.4990E-01  0.2019E-01
    -10.129  0.9062E-01  0.2839E-01
    -10.039  0.7964E-01  0.3559E-01
     -9.948  0.7379E-01  0.4226E-01
     -9.858  0.8407E-01  0.4986E-01
     -9.767  0.2997E-01  0.5257E-01
     -9.677  0.4155E-01  0.5633E-01
     -9.586  0.1245E-01  0.5745E-01
     -9.496  0.1869E-01  0.5914E-01
     -9.406  0.7841E-01  0.6623E-01
     -9.315  0.6345E-01  0.7197E-01
     -9.225  0.9314E-02  0.7281E-01
     -9.134  0.4541E-01  0.7692E-01
     -9.044  0.1307E+00  0.8874E-01
     -8.953  0.1060E+00  0.9832E-01
     -8.863  0.5811E-01  0.1036E+00
     -8.773  0.5473E-01  0.1085E+00
     -8.682  0.4206E-01  0.1123E+00
     -8.592  0.3254E-01  0.1153E+00
     -8.501  0.9082E-01  0.1235E+00
     -8.411  0.1189E+00  0.1342E+00
     -8.320  0.1575E+00  0.1485E+00
     -8.230  0.1295E+00  0.1602E+00
     -8.140  0.1329E+00  0.1722E+00
     -8.049  0.1086E+00  0.1820E+00
     -7.959  0.7829E-01  0.1891E+00
     -7.868  0.8077E-01  0.1964E+00
     -7.778  0.1289E+00  0.2081E+00
     -7.687  0.2429E+00  0.2300E+00
     -7.597  0.1118E+00  0.2401E+00
     -7.507 -0.9280E-03  0.2400E+00
     -7.416 -0.8588E-03  0.2400E+00
     -7.326  0.3407E-03  0.2400E+00
     -7.235  0.1024E-04  0.2400E+00
     -7.145  0.4004E-07  0.2400E+00
     -7.055  0.2651E-10  0.2400E+00
     -6.964  0.3214E-14  0.2400E+00
     -6.874  0.0000E+00  0.2400E+00
     -6.783  0.0000E+00  0.2400E+00
     -6.693  0.0000E+00  0.2400E+00
     -6.602  0.0000E+00  0.2400E+00
     -6.512  0.0000E+00  0.2400E+00
     -6.422  0.0000E+00  0.2400E+00
     -6.331  0.0000E+00  0.2400E+00
     -6.241  0.0000E+00  0.2400E+00
     -6.150  0.0000E+00  0.2400E+00
     -6.060  0.0000E+00  0.2400E+00
     -5.969  0.0000E+00  0.2400E+00
     -5.879  0.0000E+00  0.2400E+00
     -5.789  0.0000E+00  0.2400E+00
     -5.698  0.0000E+00  0.2400E+00
     -5.608  0.0000E+00  0.2400E+00
     -5.517  0.0000E+00  0.2400E+00
     -5.427  0.0000E+00  0.2400E+00
     -5.336  0.0000E+00  0.2400E+00
     -5.246  0.0000E+00  0.2400E+00
     -5.156  0.0000E+00  0.2400E+00
     -5.065  0.0000E+00  0.2400E+00
     -4.975  0.0000E+00  0.2400E+00
     -4.884  0.0000E+00  0.2400E+00
     -4.794  0.0000E+00  0.2400E+00
     -4.703  0.0000E+00  0.2400E+00
     -4.613  0.0000E+00  0.2400E+00
     -4.523  0.3204E-33  0.2400E+00
     -4.432  0.5972E-27  0.2400E+00
     -4.342  0.2070E-21  0.2400E+00
     -4.251  0.1319E-16  0.2400E+00
     -4.161  0.1500E-12  0.2400E+00
     -4.071  0.2940E-09  0.2400E+00
     -3.980  0.9229E-07  0.2400E+00
     -3.890  0.3947E-05  0.2400E+00
     -3.799  0.9223E-05  0.2400E+00
     -3.709 -0.8067E-04  0.2400E+00
     -3.618  0.1186E-02  0.2401E+00
     -3.528  0.8112E-02  0.2408E+00
     -3.438  0.7397E-02  0.2415E+00
     -3.347  0.1277E-01  0.2427E+00
     -3.257  0.2057E-01  0.2445E+00
     -3.166  0.7691E-02  0.2452E+00
     -3.076  0.2771E-01  0.2477E+00
     -2.985  0.3118E-01  0.2505E+00
     -2.895  0.1093E-01  0.2515E+00
     -2.805  0.3533E-01  0.2547E+00
     -2.714  0.1445E-01  0.2560E+00
     -2.624  0.2861E-01  0.2586E+00
     -2.533  0.6654E-01  0.2646E+00
     -2.443  0.5572E-01  0.2697E+00
     -2.352  0.7032E-01  0.2760E+00
     -2.262  0.1068E+00  0.2857E+00
     -2.172  0.7856E-01  0.2928E+00
     -2.081  0.5958E-01  0.2982E+00
     -1.991  0.6236E-01  0.3038E+00
     -1.900  0.5915E-01  0.3092E+00
     -1.810  0.4992E-01  0.3137E+00
     -1.719  0.6047E-01  0.3192E+00
     -1.629  0.1042E+00  0.3286E+00
     -1.539  0.1080E+00  0.3383E+00
     -1.448  0.1173E+00  0.3490E+00
     -1.358  0.9832E-01  0.3578E+00
     -1.267  0.1150E+00  0.3682E+00
     -1.177  0.1051E+00  0.3778E+00
     -1.087  0.8788E-01  0.3857E+00
     -0.996  0.1252E+00  0.3970E+00
     -0.906  0.6497E-01  0.4029E+00
     -0.815  0.4347E-01  0.4068E+00
     -0.725  0.2222E-01  0.4088E+00
     -0.634  0.9749E-02  0.4097E+00
     -0.544  0.4277E-01  0.4136E+00
     -0.454  0.3000E-01  0.4163E+00
     -0.363  0.3553E-01  0.4195E+00
     -0.273  0.8139E-01  0.4269E+00
     -0.182  0.1081E+00  0.4366E+00
     -0.092  0.1044E+00  0.4461E+00
     -0.001  0.9150E-01  0.4544E+00
      0.089  0.6803E-01  0.4605E+00
      0.179  0.7509E-01  0.4673E+00
      0.270  0.1025E+00  0.4766E+00
      0.360  0.7311E-01  0.4832E+00
      0.451  0.8410E-01  0.4908E+00
      0.541  0.5139E-01  0.4954E+00
      0.632  0.6732E-01  0.5015E+00
      0.722  0.7881E-01  0.5086E+00
      0.812  0.9965E-01  0.5177E+00
      0.903  0.1317E+00  0.5296E+00
      0.993  0.9567E-01  0.5382E+00
      1.084  0.1206E+00  0.5491E+00
      1.174  0.1149E+00  0.5595E+00
      1.265  0.1192E+00  0.5703E+00
      1.355  0.1154E+00  0.5807E+00
      1.445  0.6340E-01  0.5865E+00
      1.536  0.1198E+00  0.5973E+00
      1.626  0.1472E+00  0.6106E+00
      1.717  0.1054E+00  0.6201E+00
      1.807  0.8921E-01  0.6282E+00
      1.897  0.1257E+00  0.6396E+00
      1.988  0.1132E+00  0.6498E+00
      2.078  0.9113E-01  0.6580E+00
      2.169  0.1209E+00  0.6690E+00
      2.259  0.1449E+00  0.6821E+00
      2.350  0.1510E+00  0.6957E+00
      2.440  0.1065E+00  0.7054E+00
      2.530  0.8702E-01  0.7132E+00
      2.621  0.1181E+00  0.7239E+00
      2.711  0.1309E+00  0.7357E+00
      2.802  0.1538E+00  0.7497E+00
      2.892  0.9192E-01  0.7580E+00
      2.983  0.9873E-01  0.7669E+00
      3.073  0.1217E+00  0.7779E+00
      3.163  0.1031E+00  0.7872E+00
      3.254  0.1239E+00  0.7984E+00
      3.344  0.1442E+00  0.8115E+00
      3.435  0.1375E+00  0.8239E+00
      3.525  0.1096E+00  0.8338E+00
      3.616  0.1023E+00  0.8431E+00
      3.706  0.9869E-01  0.8520E+00
      3.796  0.1197E+00  0.8628E+00
      3.887  0.7764E-01  0.8698E+00
      3.977  0.9761E-01  0.8787E+00
      4.068  0.1038E+00  0.8880E+00
      4.158  0.1335E+00  0.9001E+00
      4.249  0.1346E+00  0.9123E+00
      4.339  0.7118E-01  0.9187E+00
      4.429  0.7516E-01  0.9255E+00
      4.520  0.1131E+00  0.9357E+00
      4.610  0.1357E+00  0.9480E+00
      4.701  0.1200E+00  0.9589E+00
      4.791  0.1223E+00  0.9699E+00
      4.881  0.1124E+00  0.9801E+00
      4.972  0.7366E-01  0.9867E+00
      5.062  0.9639E-01  0.9955E+00
      5.153  0.1248E+00  0.1007E+01
      5.243  0.1858E+00  0.1024E+01
      5.334  0.1453E+00  0.1037E+01
      5.424  0.6418E-01  0.1042E+01
      5.514  0.8409E-01  0.1050E+01
      5.605  0.6569E-01  0.1056E+01
      5.695  0.5739E-01  0.1061E+01
      5.786  0.8012E-01  0.1068E+01
      5.876  0.1455E+00  0.1082E+01
      5.967  0.1264E+00  0.1093E+01
      6.057  0.1493E+00  0.1107E+01
      6.147  0.1647E+00  0.1121E+01
      6.238  0.9520E-01  0.1130E+01
      6.328  0.4704E-01  0.1134E+01
      6.419  0.3797E-01  0.1138E+01
      6.509  0.5170E-01  0.1142E+01
      6.600  0.7768E-01  0.1149E+01
      6.690  0.8158E-01  0.1157E+01
      6.780  0.1052E+00  0.1166E+01
      6.871  0.1147E+00  0.1177E+01
      6.961  0.1130E+00  0.1187E+01
      7.052  0.5979E-01  0.1192E+01
      7.142  0.4924E-01  0.1197E+01
      7.232  0.2781E-01  0.1199E+01
      7.323  0.8616E-01  0.1207E+01
      7.413  0.8267E-01  0.1215E+01
      7.504  0.3379E-01  0.1218E+01
      7.594 -0.1180E-02  0.1217E+01
      7.685 -0.6748E-04  0.1217E+01
      7.775 -0.3845E-04  0.1217E+01
      7.865  0.1278E-02  0.1218E+01
      7.956  0.7525E-02  0.1218E+01
      8.046  0.1788E-01  0.1220E+01
      8.137  0.3513E-01  0.1223E+01
      8.227  0.4789E-01  0.1227E+01
      8.318  0.1051E+00  0.1237E+01
      8.408  0.1700E+00  0.1252E+01
      8.498  0.7778E-01  0.1259E+01
      8.589  0.3095E-01  0.1262E+01
      8.679  0.4695E-02  0.1263E+01
      8.770 -0.4601E-03  0.1262E+01
      8.860  0.8053E-04  0.1262E+01
      8.951  0.1292E-04  0.1262E+01
      9.041  0.2040E-06  0.1262E+01
      9.131  0.5419E-09  0.1262E+01
      9.222  0.3227E-12  0.1263E+01
      9.312  0.3249E-09  0.1263E+01
      9.403  0.2699E-06  0.1263E+01
      9.493  0.3219E-04  0.1263E+01
      9.584  0.2015E-03  0.1263E+01
      9.674 -0.2724E-02  0.1262E+01
      9.764  0.2124E-01  0.1264E+01
      9.855  0.3755E-01  0.1268E+01
      9.945 -0.7741E-03  0.1268E+01
     10.036  0.4085E-03  0.1268E+01
     10.126  0.3112E-02  0.1268E+01
     10.216  0.9609E-02  0.1269E+01
     10.307  0.1418E-01  0.1270E+01
     10.397  0.1443E-01  0.1271E+01
     10.488  0.2166E-01  0.1273E+01
     10.578  0.4195E-01  0.1277E+01
     10.669  0.8509E-01  0.1285E+01
     10.759  0.1077E+00  0.1294E+01
     10.849  0.1448E+00  0.1308E+01
     10.940  0.1470E+00  0.1321E+01
     11.030  0.8240E-01  0.1328E+01
     11.121  0.8167E-01  0.1336E+01
     11.211  0.1130E+00  0.1346E+01
     11.302  0.6293E-01  0.1352E+01
     11.392  0.4414E-01  0.1356E+01
     11.482  0.4293E-01  0.1359E+01
     11.573  0.4048E-01  0.1363E+01
     11.663  0.6292E-01  0.1369E+01
     11.754  0.4989E-01  0.1373E+01
     11.844  0.8136E-01  0.1381E+01
     11.935  0.1275E+00  0.1392E+01
     12.025  0.7874E-01  0.1399E+01
     12.115  0.8384E-01  0.1407E+01
     12.206  0.1059E+00  0.1417E+01
     12.296  0.1093E+00  0.1426E+01
     12.387  0.9981E-01  0.1435E+01
     12.477  0.7852E-01  0.1443E+01
     12.568  0.7796E-01  0.1450E+01
     12.658  0.1027E+00  0.1459E+01
     12.748  0.1279E+00  0.1470E+01
     12.839  0.1119E+00  0.1481E+01
     12.929  0.1080E+00  0.1490E+01
     13.020  0.1444E+00  0.1503E+01
     13.110  0.1472E+00  0.1517E+01
     13.200  0.1650E+00  0.1532E+01
     13.291  0.1961E+00  0.1549E+01
     13.381  0.1721E+00  0.1565E+01
     13.472  0.1689E+00  0.1580E+01
     13.562  0.1331E+00  0.1592E+01
     13.653  0.6616E-01  0.1598E+01
     13.743  0.1769E-01  0.1600E+01
     13.833  0.8692E-03  0.1600E+01
     13.924  0.1273E-02  0.1600E+01
     14.014  0.8659E-04  0.1600E+01
     14.105 -0.1802E-04  0.1600E+01
     14.195  0.4378E-05  0.1600E+01
     14.286  0.1074E-06  0.1600E+01
     14.376  0.2997E-09  0.1600E+01
     14.466  0.1303E-12  0.1600E+01
     14.557  0.9720E-17  0.1600E+01
     14.647  0.0000E+00  0.1600E+01
     14.738  0.0000E+00  0.1600E+01
     14.828  0.0000E+00  0.1600E+01
     14.919  0.0000E+00  0.1600E+01
     15.009  0.0000E+00  0.1600E+01
     15.099  0.0000E+00  0.1600E+01
