   28   28  100    1
  0.1162989E+02  0.8372172E-09  0.8372172E-09  0.5364469E-09  0.5000000E-15
  1.000000000000000E-004
  CAR 
 unknown system                          
    124     44     80
 
  0.3742002E-15  0.3742002E-15  0.3742002E-15  0.3472222E-02
    1      -10.794782   1.000000
    2      -10.064683   1.000000
    3      -10.064683   1.000000
    4       -9.141484   1.000000
    5       -9.141484   1.000000
    6       -8.443961   1.000000
    7       -7.971069   1.000000
    8       -7.971069   1.000000
    9       -7.968135   1.000000
   10       -7.907394   1.000000
   11       -7.823303   1.000000
   12       -7.823303   1.000000
   13       -3.660029   1.000000
   14       -2.616949   1.000000
   15       -2.616949   1.000000
   16       -2.386807   1.000000
   17       -1.483128   1.000000
   18       -1.311389   1.000000
   19       -1.311389   1.000000
   20       -0.800550   1.000000
   21       -0.403035   1.000000
   22       -0.403035   1.000000
   23       -0.152372   1.000000
   24        0.330959   1.000000
   25        0.330959   1.000000
   26        0.580329   1.000000
   27        0.679849   1.000000
   28        1.271574   1.000000
   29        1.311086   1.000000
   30        1.311086   1.000000
   31        1.532335   1.000000
   32        2.096852   1.000000
   33        2.096852   1.000000
   34        2.279524   1.000000
   35        2.481671   1.000000
   36        2.481671   1.000000
   37        2.776881   1.000000
   38        2.779712   1.000000
   39        2.779712   1.000000
   40        3.230623   1.000000
   41        3.230623   1.000000
   42        3.918320   1.000000
   43        3.918320   1.000000
   44        4.005684   1.000000
   45        4.069654   1.000000
   46        4.069654   1.000000
   47        4.593075   1.000000
   48        4.632927   1.000000
   49        4.992553   1.000000
   50        5.144598   1.000000
   51        5.144598   1.000000
   52        5.412077   1.000000
   53        5.596140   1.000000
   54        5.713513   1.000000
   55        5.713513   1.000000
   56        6.121867   1.000000
   57        6.121867   1.000000
   58        6.871415   1.000000
   59        6.871415   1.000000
   60        7.432564   1.000000
   61        7.432564   1.000000
   62        7.839177   1.000000
   63        8.633769   0.000320
   64       10.017676   0.000000
   65       10.017676   0.000000
   66       10.907425   0.000000
   67       10.907425   0.000000
   68       11.427351   0.000000
   69       11.427351   0.000000
   70       11.732379   0.000000
   71       12.057954   0.000000
   72       12.283728   0.000000
   73       12.693865   0.000000
   74       12.693865   0.000000
   75       12.813824   0.000000
   76       13.244995   0.000000
   77       13.244995   0.000000
   78       13.265025   0.000000
   79       13.626470   0.000000
   80       13.626496   0.000000
 
  0.1666667E+00  0.1264723E-14  0.3742002E-15  0.2083333E-01
    1      -10.760592   1.000000
    2      -10.134173   1.000000
    3      -10.090772   1.000000
    4       -9.107702   1.000000
    5       -9.066894   1.000000
    6       -8.409458   1.000000
    7       -8.113636   1.000000
    8       -7.990468   1.000000
    9       -7.952417   1.000000
   10       -7.898649   1.000000
   11       -7.823482   1.000000
   12       -7.781433   1.000000
   13       -3.570396   1.000000
   14       -2.627549   1.000000
   15       -2.532170   1.000000
   16       -2.324616   1.000000
   17       -1.569142   1.000000
   18       -1.393494   1.000000
   19       -1.316722   1.000000
   20       -1.031080   1.000000
   21       -0.633074   1.000000
   22       -0.321410   1.000000
   23       -0.179001   1.000000
   24        0.228164   1.000000
   25        0.461574   1.000000
   26        0.731595   1.000000
   27        0.861540   1.000000
   28        1.230564   1.000000
   29        1.242306   1.000000
   30        1.327483   1.000000
   31        1.628516   1.000000
   32        2.026191   1.000000
   33        2.162104   1.000000
   34        2.273687   1.000000
   35        2.465044   1.000000
   36        2.521148   1.000000
   37        2.769771   1.000000
   38        2.782261   1.000000
   39        2.984300   1.000000
   40        3.263155   1.000000
   41        3.282927   1.000000
   42        3.801886   1.000000
   43        3.859999   1.000000
   44        3.967434   1.000000
   45        4.107354   1.000000
   46        4.154963   1.000000
   47        4.555671   1.000000
   48        4.593637   1.000000
   49        4.683572   1.000000
   50        5.183624   1.000000
   51        5.326703   1.000000
   52        5.440685   1.000000
   53        5.579470   1.000000
   54        5.736129   1.000000
   55        5.846979   1.000000
   56        6.061207   1.000000
   57        6.127737   1.000000
   58        6.743654   1.000000
   59        6.803388   1.000000
   60        7.313935   1.000000
   61        7.411720   1.000000
   62        7.892894   1.000000
   63        8.557207   0.004091
   64       10.140363   0.000000
   65       10.208167   0.000000
   66       10.842926   0.000000
   67       10.872661   0.000000
   68       11.372185   0.000000
   69       11.546219   0.000000
   70       11.881535   0.000000
   71       12.102089   0.000000
   72       12.321898   0.000000
   73       12.511224   0.000000
   74       12.663449   0.000000
   75       12.923040   0.000000
   76       13.071355   0.000000
   77       13.317031   0.000000
   78       13.359627   0.000000
   79       13.574805   0.000000
   80       13.635917   0.000000
 
  0.3333333E+00  0.3922542E-15  0.3742002E-15  0.2083333E-01
    1      -10.664320   1.000000
    2      -10.292808   1.000000
    3      -10.135818   1.000000
    4       -9.055749   1.000000
    5       -8.871509   1.000000
    6       -8.347183   1.000000
    7       -8.314774   1.000000
    8       -8.055844   1.000000
    9       -7.960315   1.000000
   10       -7.881799   1.000000
   11       -7.823051   1.000000
   12       -7.753557   1.000000
   13       -3.318305   1.000000
   14       -2.660223   1.000000
   15       -2.352257   1.000000
   16       -2.227467   1.000000
   17       -1.823807   1.000000
   18       -1.494504   1.000000
   19       -1.382199   1.000000
   20       -1.258211   1.000000
   21       -0.997094   1.000000
   22       -0.244999   1.000000
   23       -0.186345   1.000000
   24       -0.001397   1.000000
   25        0.593344   1.000000
   26        0.947571   1.000000
   27        1.070314   1.000000
   28        1.105956   1.000000
   29        1.365513   1.000000
   30        1.484570   1.000000
   31        1.859826   1.000000
   32        1.911611   1.000000
   33        2.143815   1.000000
   34        2.211165   1.000000
   35        2.399227   1.000000
   36        2.596252   1.000000
   37        2.786971   1.000000
   38        2.824566   1.000000
   39        3.211145   1.000000
   40        3.281224   1.000000
   41        3.371836   1.000000
   42        3.688298   1.000000
   43        3.769034   1.000000
   44        3.977604   1.000000
   45        4.097921   1.000000
   46        4.311822   1.000000
   47        4.475229   1.000000
   48        4.635871   1.000000
   49        4.696499   1.000000
   50        5.120971   1.000000
   51        5.248635   1.000000
   52        5.460376   1.000000
   53        5.483964   1.000000
   54        5.753656   1.000000
   55        5.907220   1.000000
   56        6.019364   1.000000
   57        6.154797   1.000000
   58        6.541978   1.000000
   59        6.701376   1.000000
   60        7.092725   1.000000
   61        7.445952   1.000000
   62        8.019533   0.999861
   63        8.404731  -0.019375
   64       10.383823   0.000000
   65       10.618611   0.000000
   66       10.712645   0.000000
   67       10.856825   0.000000
   68       11.323420   0.000000
   69       11.732960   0.000000
   70       11.994184   0.000000
   71       12.042569   0.000000
   72       12.229234   0.000000
   73       12.574674   0.000000
   74       12.844992   0.000000
   75       12.971232   0.000000
   76       13.127933   0.000000
   77       13.154964   0.000000
   78       13.311798   0.000000
   79       13.428202   0.000000
   80       13.484240   0.000000
 
  0.5000000E+00  0.3246974E-15  0.3742002E-15  0.1041667E-01
    1      -10.565953   1.000000
    2      -10.419404   1.000000
    3      -10.155801   1.000000
    4       -9.035526   1.000000
    5       -8.616033   1.000000
    6       -8.612863   1.000000
    7       -8.223568   1.000000
    8       -8.132427   1.000000
    9       -7.963671   1.000000
   10       -7.873207   1.000000
   11       -7.822399   1.000000
   12       -7.750340   1.000000
   13       -3.073404   1.000000
   14       -2.763065   1.000000
   15       -2.362730   1.000000
   16       -2.175747   1.000000
   17       -1.713978   1.000000
   18       -1.701793   1.000000
   19       -1.467351   1.000000
   20       -1.270630   1.000000
   21       -1.177435   1.000000
   22       -0.283943   1.000000
   23       -0.123083   1.000000
   24       -0.109359   1.000000
   25        0.665132   1.000000
   26        0.949465   1.000000
   27        0.991690   1.000000
   28        1.275105   1.000000
   29        1.536446   1.000000
   30        1.544809   1.000000
   31        1.775153   1.000000
   32        1.998831   1.000000
   33        2.142173   1.000000
   34        2.223909   1.000000
   35        2.351566   1.000000
   36        2.660520   1.000000
   37        2.664070   1.000000
   38        2.834562   1.000000
   39        3.152104   1.000000
   40        3.351225   1.000000
   41        3.471187   1.000000
   42        3.696416   1.000000
   43        3.763559   1.000000
   44        3.868095   1.000000
   45        4.112939   1.000000
   46        4.458818   1.000000
   47        4.481229   1.000000
   48        4.767615   1.000000
   49        4.850469   1.000000
   50        5.057913   1.000000
   51        5.066195   1.000000
   52        5.400361   1.000000
   53        5.474243   1.000000
   54        5.691881   1.000000
   55        5.799582   1.000000
   56        6.058412   1.000000
   57        6.076876   1.000000
   58        6.434187   1.000000
   59        6.850224   1.000000
   60        6.921085   1.000000
   61        7.489162   1.000000
   62        8.120869   0.995444
   63        8.297031   0.862316
   64       10.555878   0.000000
   65       10.609767   0.000000
   66       10.772899   0.000000
   67       11.029377   0.000000
   68       11.170792   0.000000
   69       11.868573   0.000000
   70       11.902308   0.000000
   71       11.993039   0.000000
   72       12.287913   0.000000
   73       12.614985   0.000000
   74       12.825892   0.000000
   75       12.996226   0.000000
   76       13.055318   0.000000
   77       13.173700   0.000000
   78       13.253840   0.000000
   79       13.336648   0.000000
   80       13.443606   0.000000
 
  0.1666667E+00  0.1666667E+00  0.3742002E-15  0.2083333E-01
    1      -10.694863   1.000000
    2      -10.234689   1.000000
    3      -10.140473   1.000000
    4       -9.029661   1.000000
    5       -8.968237   1.000000
    6       -8.343236   1.000000
    7       -8.282874   1.000000
    8       -8.016164   1.000000
    9       -7.971628   1.000000
   10       -7.886070   1.000000
   11       -7.821582   1.000000
   12       -7.760114   1.000000
   13       -3.397043   1.000000
   14       -2.619327   1.000000
   15       -2.426666   1.000000
   16       -2.248421   1.000000
   17       -1.696834   1.000000
   18       -1.587199   1.000000
   19       -1.312883   1.000000
   20       -1.235020   1.000000
   21       -0.842518   1.000000
   22       -0.309610   1.000000
   23       -0.206464   1.000000
   24        0.099081   1.000000
   25        0.517927   1.000000
   26        0.958132   1.000000
   27        1.016991   1.000000
   28        1.152418   1.000000
   29        1.289476   1.000000
   30        1.441037   1.000000
   31        1.801253   1.000000
   32        1.952579   1.000000
   33        2.144381   1.000000
   34        2.325953   1.000000
   35        2.331937   1.000000
   36        2.569005   1.000000
   37        2.797556   1.000000
   38        2.822218   1.000000
   39        3.155614   1.000000
   40        3.278143   1.000000
   41        3.312602   1.000000
   42        3.734806   1.000000
   43        3.775099   1.000000
   44        3.988978   1.000000
   45        4.138188   1.000000
   46        4.218896   1.000000
   47        4.497472   1.000000
   48        4.621981   1.000000
   49        4.656589   1.000000
   50        5.234630   1.000000
   51        5.246372   1.000000
   52        5.458900   1.000000
   53        5.515011   1.000000
   54        5.747848   1.000000
   55        5.919946   1.000000
   56        5.984520   1.000000
   57        6.167938   1.000000
   58        6.519565   1.000000
   59        6.758356   1.000000
   60        7.182609   1.000000
   61        7.415628   1.000000
   62        7.981960   0.999983
   63        8.446839  -0.044947
   64       10.336943   0.000000
   65       10.488150   0.000000
   66       10.742343   0.000000
   67       10.819685   0.000000
   68       11.487958   0.000000
   69       11.527466   0.000000
   70       12.041279   0.000000
   71       12.077554   0.000000
   72       12.297410   0.000000
   73       12.630862   0.000000
   74       12.678252   0.000000
   75       12.923497   0.000000
   76       13.106501   0.000000
   77       13.201721   0.000000
   78       13.264508   0.000000
   79       13.473518   0.000000
   80       13.525499   0.000000
 
  0.3333333E+00  0.1666667E+00  0.3742002E-15  0.4166667E-01
    1      -10.580431   1.000000
    2      -10.379258   1.000000
    3      -10.188668   1.000000
    4       -8.964387   1.000000
    5       -8.777149   1.000000
    6       -8.525085   1.000000
    7       -8.236043   1.000000
    8       -8.080680   1.000000
    9       -7.989405   1.000000
   10       -7.873575   1.000000
   11       -7.814908   1.000000
   12       -7.761083   1.000000
   13       -3.102028   1.000000
   14       -2.645494   1.000000
   15       -2.402570   1.000000
   16       -2.264887   1.000000
   17       -1.779694   1.000000
   18       -1.649636   1.000000
   19       -1.416479   1.000000
   20       -1.291194   1.000000
   21       -1.116275   1.000000
   22       -0.277820   1.000000
   23       -0.199152   1.000000
   24       -0.087056   1.000000
   25        0.593286   1.000000
   26        0.988896   1.000000
   27        1.044403   1.000000
   28        1.255644   1.000000
   29        1.520567   1.000000
   30        1.593067   1.000000
   31        1.852748   1.000000
   32        1.992248   1.000000
   33        2.091062   1.000000
   34        2.254413   1.000000
   35        2.353260   1.000000
   36        2.553820   1.000000
   37        2.715291   1.000000
   38        2.904177   1.000000
   39        3.159119   1.000000
   40        3.224363   1.000000
   41        3.386522   1.000000
   42        3.637044   1.000000
   43        3.690285   1.000000
   44        4.027738   1.000000
   45        4.178296   1.000000
   46        4.444732   1.000000
   47        4.576714   1.000000
   48        4.737615   1.000000
   49        4.789483   1.000000
   50        5.099592   1.000000
   51        5.224815   1.000000
   52        5.404460   1.000000
   53        5.472946   1.000000
   54        5.710619   1.000000
   55        5.841184   1.000000
   56        5.888616   1.000000
   57        6.033479   1.000000
   58        6.255065   1.000000
   59        6.916001   1.000000
   60        7.082916   1.000000
   61        7.446940   1.000000
   62        8.107804   0.996315
   63        8.310488   0.750490
   64       10.544214   0.000000
   65       10.600807   0.000000
   66       10.755170   0.000000
   67       10.935748   0.000000
   68       11.320961   0.000000
   69       11.660303   0.000000
   70       12.005679   0.000000
   71       12.192952   0.000000
   72       12.248203   0.000000
   73       12.622224   0.000000
   74       12.740584   0.000000
   75       12.986736   0.000000
   76       13.088738   0.000000
   77       13.204739   0.000000
   78       13.274736   0.000000
   79       13.373789   0.000000
   80       13.404755   0.000000
 
  0.3333333E+00  0.3333333E+00  0.3742002E-15  0.6944444E-02
    1      -10.471964   1.000000
    2      -10.471964   1.000000
    3      -10.234977   1.000000
    4       -8.811692   1.000000
    5       -8.726024   1.000000
    6       -8.726024   1.000000
    7       -8.177960   1.000000
    8       -8.054356   1.000000
    9       -8.054356   1.000000
   10       -7.870187   1.000000
   11       -7.789401   1.000000
   12       -7.789401   1.000000
   13       -2.914593   1.000000
   14       -2.507023   1.000000
   15       -2.507023   1.000000
   16       -2.502268   1.000000
   17       -1.690221   1.000000
   18       -1.690221   1.000000
   19       -1.317533   1.000000
   20       -1.317533   1.000000
   21       -1.288818   1.000000
   22       -0.217166   1.000000
   23       -0.217166   1.000000
   24       -0.208189   1.000000
   25        0.567718   1.000000
   26        1.035291   1.000000
   27        1.035291   1.000000
   28        1.325629   1.000000
   29        1.666752   1.000000
   30        1.666752   1.000000
   31        1.932046   1.000000
   32        1.932046   1.000000
   33        1.965500   1.000000
   34        2.429552   1.000000
   35        2.442283   1.000000
   36        2.442283   1.000000
   37        2.535755   1.000000
   38        3.056389   1.000000
   39        3.056389   1.000000
   40        3.112045   1.000000
   41        3.487084   1.000000
   42        3.487084   1.000000
   43        3.578122   1.000000
   44        4.178812   1.000000
   45        4.178812   1.000000
   46        4.596608   1.000000
   47        4.647485   1.000000
   48        4.823928   1.000000
   49        4.823928   1.000000
   50        5.128357   1.000000
   51        5.329678   1.000000
   52        5.329678   1.000000
   53        5.620791   1.000000
   54        5.620792   1.000000
   55        5.703966   1.000000
   56        5.835630   1.000000
   57        5.835630   1.000000
   58        6.002843   1.000000
   59        7.113642   1.000000
   60        7.113642   1.000000
   61        7.401862   1.000000
   62        8.208763   1.031558
   63        8.208763   1.031558
   64       10.584987   0.000000
   65       10.584987   0.000000
   66       10.881043   0.000000
   67       10.881043   0.000000
   68       11.331002   0.000000
   69       11.780627   0.000000
   70       11.780627   0.000000
   71       12.230648   0.000000
   72       12.403426   0.000000
   73       12.665855   0.000000
   74       12.665855   0.000000
   75       12.943579   0.000000
   76       13.053884   0.000000
   77       13.289647   0.000000
   78       13.289647   0.000000
   79       13.420503   0.000000
   80       13.420503   0.000000
 
  0.3742002E-15  0.3742002E-15  0.1250000E+00  0.6944444E-02
    1      -10.741040   1.000000
    2      -10.015376   1.000000
    3      -10.015376   1.000000
    4       -9.117707   1.000000
    5       -9.117707   1.000000
    6       -8.679816   1.000000
    7       -8.083684   1.000000
    8       -8.083684   1.000000
    9       -7.942681   1.000000
   10       -7.862842   1.000000
   11       -7.862842   1.000000
   12       -7.776897   1.000000
   13       -3.601212   1.000000
   14       -2.451975   1.000000
   15       -2.451975   1.000000
   16       -2.389423   1.000000
   17       -1.462822   1.000000
   18       -1.255399   1.000000
   19       -1.255399   1.000000
   20       -0.883868   1.000000
   21       -0.369348   1.000000
   22       -0.369348   1.000000
   23       -0.072234   1.000000
   24        0.305968   1.000000
   25        0.305968   1.000000
   26        0.343054   1.000000
   27        0.686473   1.000000
   28        1.323366   1.000000
   29        1.323366   1.000000
   30        1.525691   1.000000
   31        1.621489   1.000000
   32        2.064208   1.000000
   33        2.064208   1.000000
   34        2.246834   1.000000
   35        2.453785   1.000000
   36        2.453785   1.000000
   37        2.716227   1.000000
   38        2.716227   1.000000
   39        2.828571   1.000000
   40        3.142860   1.000000
   41        3.142860   1.000000
   42        3.910643   1.000000
   43        3.910643   1.000000
   44        3.935461   1.000000
   45        4.069157   1.000000
   46        4.069157   1.000000
   47        4.507058   1.000000
   48        4.510947   1.000000
   49        5.029174   1.000000
   50        5.029174   1.000000
   51        5.062463   1.000000
   52        5.251225   1.000000
   53        5.693755   1.000000
   54        5.693755   1.000000
   55        5.773857   1.000000
   56        6.202653   1.000000
   57        6.202653   1.000000
   58        6.880189   1.000000
   59        6.880189   1.000000
   60        7.388497   1.000000
   61        7.388497   1.000000
   62        7.937490   0.999999
   63        8.528468   0.004659
   64       10.143512   0.000000
   65       10.143512   0.000000
   66       10.958205   0.000000
   67       10.958205   0.000000
   68       11.591678   0.000000
   69       11.591678   0.000000
   70       11.675602   0.000000
   71       12.100453   0.000000
   72       12.522874   0.000000
   73       12.550225   0.000000
   74       12.550226   0.000000
   75       12.925553   0.000000
   76       13.157542   0.000000
   77       13.195510   0.000000
   78       13.195510   0.000000
   79       13.490614   0.000000
   80       13.490623   0.000000
 
  0.1666667E+00  0.1264723E-14  0.1250000E+00  0.4166667E-01
    1      -10.707118   1.000000
    2      -10.085063   1.000000
    3      -10.040945   1.000000
    4       -9.085884   1.000000
    5       -9.045368   1.000000
    6       -8.641246   1.000000
    7       -8.151002   1.000000
    8       -8.109717   1.000000
    9       -8.032296   1.000000
   10       -7.868242   1.000000
   11       -7.782394   1.000000
   12       -7.761496   1.000000
   13       -3.509360   1.000000
   14       -2.486667   1.000000
   15       -2.375016   1.000000
   16       -2.307024   1.000000
   17       -1.536681   1.000000
   18       -1.363644   1.000000
   19       -1.265123   1.000000
   20       -1.042709   1.000000
   21       -0.599019   1.000000
   22       -0.319207   1.000000
   23       -0.070827   1.000000
   24        0.233552   1.000000
   25        0.332743   1.000000
   26        0.566391   1.000000
   27        0.827255   1.000000
   28        1.222623   1.000000
   29        1.268032   1.000000
   30        1.609876   1.000000
   31        1.649148   1.000000
   32        1.940742   1.000000
   33        2.131711   1.000000
   34        2.225982   1.000000
   35        2.429618   1.000000
   36        2.546293   1.000000
   37        2.697469   1.000000
   38        2.754019   1.000000
   39        2.982115   1.000000
   40        3.180413   1.000000
   41        3.241457   1.000000
   42        3.755530   1.000000
   43        3.875076   1.000000
   44        3.982545   1.000000
   45        4.061133   1.000000
   46        4.210544   1.000000
   47        4.404716   1.000000
   48        4.535245   1.000000
   49        4.863567   1.000000
   50        5.063223   1.000000
   51        5.221070   1.000000
   52        5.262847   1.000000
   53        5.634474   1.000000
   54        5.739286   1.000000
   55        5.860006   1.000000
   56        6.094058   1.000000
   57        6.193533   1.000000
   58        6.770319   1.000000
   59        6.801974   1.000000
   60        7.267733   1.000000
   61        7.374753   1.000000
   62        7.989233   0.999974
   63        8.488733  -0.008555
   64       10.248002   0.000000
   65       10.313610   0.000000
   66       10.913658   0.000000
   67       10.950226   0.000000
   68       11.461503   0.000000
   69       11.642994   0.000000
   70       11.799014   0.000000
   71       12.136812   0.000000
   72       12.444189   0.000000
   73       12.494562   0.000000
   74       12.725200   0.000000
   75       12.789054   0.000000
   76       12.959964   0.000000
   77       13.288665   0.000000
   78       13.326290   0.000000
   79       13.449503   0.000000
   80       13.670540   0.000000
 
  0.3333333E+00  0.3922542E-15  0.1250000E+00  0.4166667E-01
    1      -10.611903   1.000000
    2      -10.243092   1.000000
    3      -10.085500   1.000000
    4       -9.041636   1.000000
    5       -8.857013   1.000000
    6       -8.530901   1.000000
    7       -8.353870   1.000000
    8       -8.218067   1.000000
    9       -8.058489   1.000000
   10       -7.871627   1.000000
   11       -7.735228   1.000000
   12       -7.726049   1.000000
   13       -3.254375   1.000000
   14       -2.536327   1.000000
   15       -2.221911   1.000000
   16       -2.189433   1.000000
   17       -1.786618   1.000000
   18       -1.492662   1.000000
   19       -1.334919   1.000000
   20       -1.227558   1.000000
   21       -0.940036   1.000000
   22       -0.205701   1.000000
   23       -0.058230   1.000000
   24        0.069731   1.000000
   25        0.409115   1.000000
   26        0.837292   1.000000
   27        0.952628   1.000000
   28        1.041177   1.000000
   29        1.295084   1.000000
   30        1.594576   1.000000
   31        1.864154   1.000000
   32        1.902191   1.000000
   33        2.115793   1.000000
   34        2.210292   1.000000
   35        2.369617   1.000000
   36        2.605307   1.000000
   37        2.744437   1.000000
   38        2.819663   1.000000
   39        3.102217   1.000000
   40        3.304387   1.000000
   41        3.399663   1.000000
   42        3.675027   1.000000
   43        3.761541   1.000000
   44        3.984290   1.000000
   45        4.116473   1.000000
   46        4.323998   1.000000
   47        4.480849   1.000000
   48        4.628627   1.000000
   49        4.806481   1.000000
   50        5.126879   1.000000
   51        5.188770   1.000000
   52        5.306468   1.000000
   53        5.456014   1.000000
   54        5.618440   1.000000
   55        5.953146   1.000000
   56        6.023203   1.000000
   57        6.182221   1.000000
   58        6.568579   1.000000
   59        6.644941   1.000000
   60        7.032261   1.000000
   61        7.401421   1.000000
   62        8.108459   0.996266
   63        8.396958   0.006171
   64       10.466276   0.000000
   65       10.651210   0.000000
   66       10.792757   0.000000
   67       10.941626   0.000000
   68       11.392040   0.000000
   69       11.721329   0.000000
   70       11.922342   0.000000
   71       12.071444   0.000000
   72       12.214236   0.000000
   73       12.570188   0.000000
   74       12.769845   0.000000
   75       12.955451   0.000000
   76       13.044079   0.000000
   77       13.155992   0.000000
   78       13.240758   0.000000
   79       13.410988   0.000000
   80       13.539707   0.000000
 
  0.5000000E+00  0.3246974E-15  0.1250000E+00  0.2083333E-01
    1      -10.514759   1.000000
    2      -10.368412   1.000000
    3      -10.105237   1.000000
    4       -9.026301   1.000000
    5       -8.633173   1.000000
    6       -8.584919   1.000000
    7       -8.412042   1.000000
    8       -8.331364   1.000000
    9       -8.063311   1.000000
   10       -7.872353   1.000000
   11       -7.720090   1.000000
   12       -7.713170   1.000000
   13       -3.012604   1.000000
   14       -2.652031   1.000000
   15       -2.266531   1.000000
   16       -2.108238   1.000000
   17       -1.675647   1.000000
   18       -1.654755   1.000000
   19       -1.487371   1.000000
   20       -1.188087   1.000000
   21       -1.132303   1.000000
   22       -0.166196   1.000000
   23       -0.031742   1.000000
   24       -0.031491   1.000000
   25        0.535661   1.000000
   26        0.806832   1.000000
   27        0.915212   1.000000
   28        1.121784   1.000000
   29        1.300683   1.000000
   30        1.518646   1.000000
   31        1.874170   1.000000
   32        1.991248   1.000000
   33        2.205321   1.000000
   34        2.271281   1.000000
   35        2.312280   1.000000
   36        2.634311   1.000000
   37        2.738071   1.000000
   38        2.772096   1.000000
   39        3.062220   1.000000
   40        3.380406   1.000000
   41        3.530786   1.000000
   42        3.627098   1.000000
   43        3.786111   1.000000
   44        3.885772   1.000000
   45        4.162406   1.000000
   46        4.431574   1.000000
   47        4.550875   1.000000
   48        4.798077   1.000000
   49        4.809516   1.000000
   50        5.090245   1.000000
   51        5.248948   1.000000
   52        5.297390   1.000000
   53        5.384753   1.000000
   54        5.395007   1.000000
   55        5.835350   1.000000
   56        6.078370   1.000000
   57        6.106702   1.000000
   58        6.499220   1.000000
   59        6.693876   1.000000
   60        6.866522   1.000000
   61        7.432484   1.000000
   62        8.198983   1.022270
   63        8.323824   0.620365
   64       10.627635   0.000000
   65       10.675625   0.000000
   66       10.857313   0.000000
   67       10.896730   0.000000
   68       11.396710   0.000000
   69       11.755655   0.000000
   70       11.898546   0.000000
   71       12.006389   0.000000
   72       12.253958   0.000000
   73       12.519887   0.000000
   74       12.852132   0.000000
   75       12.878117   0.000000
   76       13.130408   0.000000
   77       13.144739   0.000000
   78       13.289104   0.000000
   79       13.299244   0.000000
   80       13.441363   0.000000
 
  0.1666667E+00  0.1666667E+00  0.1250000E+00  0.2083333E-01