 running on   16 total cores
 distrk:  each k-point on   16 cores,    1 groups
 distr:  one band on    4 cores,    4 groups
 using from now: INCAR     
 vasp.5.4.4.18Apr17-6-g9f103f2a35 (build Nov 01 2019 12:17:22) complex          
  
 POSCAR found type information on POSCAR  Si N 
 POSCAR found :  2 types and      28 ions
 WARNING: type information on POSCAR and POTCAR are incompatible
 POTCAR overwrites the type information in POSCAR
 typ   1 type information:  Si N 
 WARNING: type information on POSCAR and POTCAR are incompatible
 POTCAR overwrites the type information in POSCAR
 typ   2 type information:  N  Si
 LDA part: xc-table for Pade appr. of Perdew
 generate k-points for:    6    6    8
 POSCAR, INCAR and KPOINTS ok, starting setup
 FFT: planning ...
 WAVECAR not read
 entering main loop
       N       E                     dE             d eps       ncg     rms          rms(c)
DAV:   1     0.479540407593E+03    0.47954E+03   -0.50396E+04  7040   0.113E+03
DAV:   2    -0.176636040557E+03   -0.65618E+03   -0.62909E+03  8760   0.248E+02
DAV:   3    -0.225456478075E+03   -0.48820E+02   -0.48405E+02  8432   0.727E+01
DAV:   4    -0.226492761783E+03   -0.10363E+01   -0.10313E+01  8712   0.111E+01
DAV:   5    -0.226516362037E+03   -0.23600E-01   -0.23571E-01  8568   0.158E+00    0.388E+01
RMM:   6    -0.200761520051E+03    0.25755E+02   -0.10988E+02  7051   0.272E+01    0.177E+01
RMM:   7    -0.200106297237E+03    0.65522E+00   -0.53570E+00  7128   0.562E+00    0.946E+00
RMM:   8    -0.199908500029E+03    0.19780E+00   -0.10744E+00  7040   0.262E+00    0.167E+00
RMM:   9    -0.199887916837E+03    0.20583E-01   -0.80022E-02  7057   0.731E-01    0.714E-01
RMM:  10    -0.199881825129E+03    0.60917E-02   -0.90193E-02  7040   0.718E-01    0.476E-01
RMM:  11    -0.199879999483E+03    0.18256E-02   -0.87416E-03  7040   0.235E-01    0.176E-01
RMM:  12    -0.199879907638E+03    0.91845E-04   -0.34307E-03  7040   0.153E-01    0.924E-02
RMM:  13    -0.199879765006E+03    0.14263E-03   -0.32887E-04  4996   0.513E-02    0.270E-02
RMM:  14    -0.199879750952E+03    0.14053E-04   -0.62545E-05  4260   0.229E-02
   1 F= -.19987975E+03 E0= -.19987780E+03  d E =-.199880E+03
 curvature:   0.00 expect dE= 0.000E+00 dE for cont linesearch  0.000E+00
 trial: gam= 0.00000 g(F)=  0.127E+00 g(S)=  0.000E+00 ort = 0.000E+00 (trialstep = 0.100E+01)
 search vector abs. value=  0.127E+00
 bond charge predicted
       N       E                     dE             d eps       ncg     rms          rms(c)
DAV:   1    -0.199944491686E+03   -0.64727E-01   -0.82089E+00  7760   0.110E+01    0.834E-01
RMM:   2    -0.199955791759E+03   -0.11300E-01   -0.17125E-01  7040   0.135E+00    0.490E-01
RMM:   3    -0.199951357648E+03    0.44341E-02   -0.94196E-03  7084   0.267E-01    0.393E-01
RMM:   4    -0.199949786291E+03    0.15714E-02   -0.32316E-03  7040   0.158E-01    0.230E-01
RMM:   5    -0.199949520374E+03    0.26592E-03   -0.13661E-03  6955   0.978E-02    0.731E-02
RMM:   6    -0.199949533977E+03   -0.13603E-04   -0.86347E-05  4294   0.277E-02
   2 F= -.19994953E+03 E0= -.19994781E+03  d E =-.697830E-01
 trial-energy change:   -0.069783  1 .order   -0.069953   -0.126515   -0.013391
 step:   1.1184(harm=  1.1184)  dis= 0.03193  next Energy=  -199.950496 (dE=-0.707E-01)
 bond charge predicted
       N       E                     dE             d eps       ncg     rms          rms(c)
DAV:   1    -0.199950262177E+03   -0.74180E-03   -0.11607E-01  8368   0.131E+00    0.998E-02
RMM:   2    -0.199950445826E+03   -0.18365E-03   -0.24974E-03  7040   0.162E-01    0.608E-02
RMM:   3    -0.199950364145E+03    0.81682E-04   -0.11918E-04  4127   0.322E-02
   3 F= -.19995036E+03 E0= -.19994871E+03  d E =-.706132E-01
 curvature:  -0.56 expect dE=-0.422E-01 dE for cont linesearch -0.582E-05
 trial: gam= 0.58750 g(F)=  0.755E-01 g(S)=  0.000E+00 ort = 0.115E-02 (trialstep = 0.102E+01)
 search vector abs. value=  0.120E+00
 bond charge predicted
       N       E                     dE             d eps       ncg     rms          rms(c)
DAV:   1    -0.199985210990E+03   -0.34765E-01   -0.76263E+00  7088   0.105E+01    0.704E-01
RMM:   2    -0.199998527803E+03   -0.13317E-01   -0.17420E-01  7040   0.136E+00    0.432E-01
RMM:   3    -0.199996132100E+03    0.23957E-02   -0.75141E-03  7191   0.245E-01    0.331E-01
RMM:   4    -0.199994745947E+03    0.13862E-02   -0.26276E-03  7040   0.138E-01    0.198E-01
RMM:   5    -0.199994371537E+03    0.37441E-03   -0.17134E-03  6983   0.109E-01    0.520E-02
RMM:   6    -0.199994362710E+03    0.88272E-05   -0.74654E-05  4241   0.247E-02
   4 F= -.19999436E+03 E0= -.19999259E+03  d E =-.439986E-01
 trial-energy change:   -0.043999  1 .order   -0.044397   -0.077951   -0.010842
 step:   1.1891(harm=  1.1891)  dis= 0.04685  next Energy=  -199.995637 (dE=-0.453E-01)
 bond charge predicted
       N       E                     dE             d eps       ncg     rms          rms(c)
DAV:   1    -0.199995020672E+03   -0.64914E-03   -0.20044E-01  7744   0.170E+00    0.113E-01
RMM:   2    -0.199995378225E+03   -0.35755E-03   -0.45085E-03  7040   0.219E-01    0.678E-02
RMM:   3    -0.199995313112E+03    0.65112E-04   -0.16551E-04  4433   0.395E-02
   5 F= -.19999531E+03 E0= -.19999351E+03  d E =-.449490E-01
 curvature:  -0.94 expect dE=-0.398E-01 dE for cont linesearch -0.745E-05
 trial: gam= 0.54133 g(F)=  0.423E-01 g(S)=  0.000E+00 ort = 0.977E-03 (trialstep = 0.106E+01)
 search vector abs. value=  0.787E-01
 bond charge predicted
       N       E                     dE             d eps       ncg     rms          rms(c)
DAV:   1    -0.200006496697E+03   -0.11118E-01   -0.62325E+00  7040   0.952E+00    0.729E-01
RMM:   2    -0.200015524498E+03   -0.90278E-02   -0.13808E-01  7040   0.122E+00    0.365E-01
RMM:   3    -0.200013047625E+03    0.24769E-02   -0.69634E-03  7170   0.221E-01    0.255E-01
RMM:   4    -0.200011823790E+03    0.12238E-02   -0.18076E-03  6994   0.118E-01    0.135E-01
RMM:   5    -0.200011596188E+03    0.22760E-03   -0.11369E-03  6929   0.915E-02    0.342E-02
RMM:   6    -0.200011593462E+03    0.27268E-05   -0.35051E-05  4192   0.180E-02
   6 F= -.20001159E+03 E0= -.20000953E+03  d E =-.162803E-01
 trial-energy change:   -0.016280  1 .order   -0.016277   -0.045247    0.012694
 step:   0.8252(harm=  0.8252)  dis= 0.02299  next Energy=  -200.012980 (dE=-0.177E-01)
 bond charge predicted
       N       E                     dE             d eps       ncg     rms          rms(c)
DAV:   1    -0.200012744636E+03   -0.11484E-02   -0.29873E-01  7200   0.209E+00    0.162E-01
RMM:   2    -0.200013291555E+03   -0.54692E-03   -0.66438E-03  7040   0.265E-01    0.943E-02
RMM:   3    -0.200013024011E+03    0.26754E-03   -0.37690E-04  5114   0.506E-02    0.538E-02
RMM:   4    -0.200012970335E+03    0.53675E-04   -0.93030E-05  3881   0.303E-02
   7 F= -.20001297E+03 E0= -.20001096E+03  d E =-.176572E-01
 curvature:  -0.76 expect dE=-0.135E-01 dE for cont linesearch -0.106E-05
 trial: gam= 0.42580 g(F)=  0.178E-01 g(S)=  0.000E+00 ort =-0.332E-03 (trialstep = 0.101E+01)
 search vector abs. value=  0.318E-01
 bond charge predicted
       N       E                     dE             d eps       ncg     rms          rms(c)
DAV:   1    -0.200019752656E+03   -0.67286E-02   -0.12048E+00  7072   0.426E+00    0.389E-01
RMM:   2    -0.200021789353E+03   -0.20367E-02   -0.29459E-02  7040   0.587E-01    0.211E-01
RMM:   3    -0.200021132238E+03    0.65712E-03   -0.16926E-03  7043   0.109E-01    0.146E-01
RMM:   4    -0.200020957672E+03    0.17457E-03   -0.49397E-04  6123   0.624E-02    0.824E-02
RMM:   5    -0.200020939302E+03    0.18370E-04   -0.12288E-04  4252   0.360E-02
   8 F= -.20002094E+03 E0= -.20001887E+03  d E =-.796897E-02
 trial-energy change:   -0.007969  1 .order   -0.008107   -0.017847    0.001633
 step:   0.9257(harm=  0.9257)  dis= 0.00861  next Energy=  -200.021146 (dE=-0.818E-02)
 bond charge predicted
       N       E                     dE             d eps       ncg     rms          rms(c)
DAV:   1    -0.200021022033E+03   -0.64361E-04   -0.86576E-03  7824   0.361E-01    0.322E-02
RMM:   2    -0.200021032584E+03   -0.10551E-04   -0.19461E-04  4214   0.497E-02
   9 F= -.20002103E+03 E0= -.20001896E+03  d E =-.806225E-02
 curvature:  -0.83 expect dE=-0.540E-02 dE for cont linesearch -0.951E-07
 trial: gam= 0.36670 g(F)=  0.648E-02 g(S)=  0.000E+00 ort =-0.603E-04 (trialstep = 0.994E+00)
 search vector abs. value=  0.107E-01
 bond charge predicted
       N       E                     dE             d eps       ncg     rms          rms(c)
DAV:   1    -0.200022456377E+03   -0.14343E-02   -0.10991E+00  7056   0.412E+00    0.326E-01
RMM:   2    -0.200023843874E+03   -0.13875E-02   -0.21530E-02  7040   0.477E-01    0.125E-01
RMM:   3    -0.200023571700E+03    0.27217E-03   -0.11395E-03  7050   0.949E-02    0.834E-02
RMM:   4    -0.200023421647E+03    0.15005E-03   -0.25269E-04  4374   0.445E-02    0.477E-02
RMM:   5    -0.200023393997E+03    0.27650E-04   -0.15968E-04  4171   0.376E-02
  10 F= -.20002339E+03 E0= -.20002135E+03  d E =-.236141E-02
 trial-energy change:   -0.002361  1 .order   -0.002499   -0.006419    0.001420
 step:   0.8135(harm=  0.8135)  dis= 0.00397  next Energy=  -200.023661 (dE=-0.263E-02)
 bond charge predicted
       N       E                     dE             d eps       ncg     rms          rms(c)
DAV:   1    -0.200023529808E+03   -0.10816E-03   -0.36355E-02  7584   0.749E-01    0.583E-02
RMM:   2    -0.200023569275E+03   -0.39467E-04   -0.68766E-04  5859   0.867E-02
  11 F= -.20002357E+03 E0= -.20002152E+03  d E =-.253669E-02
 curvature:  -0.67 expect dE=-0.138E-02 dE for cont linesearch -0.153E-05
 trial: gam= 0.33404 g(F)=  0.205E-02 g(S)=  0.000E+00 ort =-0.156E-03 (trialstep = 0.958E+00)
 search vector abs. value=  0.314E-02
 bond charge predicted
       N       E                     dE             d eps       ncg     rms          rms(c)
DAV:   1    -0.200024448604E+03   -0.91880E-03   -0.18887E-01  7072   0.169E+00    0.987E-02
RMM:   2    -0.200024722517E+03   -0.27391E-03   -0.35256E-03  7040   0.197E-01    0.585E-02
RMM:   3    -0.200024682348E+03    0.40169E-04   -0.13871E-04  4359   0.386E-02
  12 F= -.20002468E+03 E0= -.20002262E+03  d E =-.111307E-02
 trial-energy change:   -0.001113  1 .order   -0.001164   -0.001911   -0.000418
 step:   1.2254(harm=  1.2254)  dis= 0.00323  next Energy=  -200.024792 (dE=-0.122E-02)
 bond charge predicted
       N       E                     dE             d eps       ncg     rms          rms(c)
DAV:   1    -0.200024699198E+03    0.23319E-04   -0.14180E-02  7936   0.462E-01    0.379E-02
RMM:   2    -0.200024709619E+03   -0.10420E-04   -0.22576E-04  4474   0.521E-02
  13 F= -.20002471E+03 E0= -.20002264E+03  d E =-.114034E-02
 curvature:  -0.96 expect dE=-0.167E-02 dE for cont linesearch -0.182E-05
 trial: gam= 0.83455 g(F)=  0.173E-02 g(S)=  0.000E+00 ort =-0.769E-04 (trialstep = 0.838E+00)
 search vector abs. value=  0.379E-02
 bond charge predicted
       N       E                     dE             d eps       ncg     rms          rms(c)
DAV:   1    -0.200025392848E+03   -0.69365E-03   -0.24530E-01  7072   0.191E+00    0.102E-01
RMM:   2    -0.200025663017E+03   -0.27017E-03   -0.40063E-03  7040   0.201E-01    0.561E-02
RMM:   3    -0.200025612027E+03    0.50990E-04   -0.18644E-04  4604   0.412E-02
  14 F= -.20002561E+03 E0= -.20002355E+03  d E =-.902408E-03
 trial-energy change:   -0.000902  1 .order   -0.000926   -0.001395   -0.000456
 step:   1.2457(harm=  1.2457)  dis= 0.00497  next Energy=  -200.025746 (dE=-0.104E-02)
 bond charge predicted
       N       E                     dE             d eps       ncg     rms          rms(c)
DAV:   1    -0.200025618233E+03    0.44784E-04   -0.56119E-02  7768   0.913E-01    0.507E-02
RMM:   2    -0.200025659885E+03   -0.41652E-04   -0.83683E-04  6098   0.925E-02
  15 F= -.20002566E+03 E0= -.20002360E+03  d E =-.950266E-03
 curvature:  -1.42 expect dE=-0.922E-03 dE for cont linesearch -0.156E-04
 trial: gam= 0.42223 g(F)=  0.651E-03 g(S)=  0.000E+00 ort =-0.204E-03 (trialstep = 0.920E+00)
 search vector abs. value=  0.115E-02
 reached required accuracy - stopping structural energy minimisation
