 vasp.5.4.4.18Apr17-6-g9f103f2a35 (build Nov 01 2019 12:17:22) complex          
  
 executed on             LinuxIFC date 2023.05.19  18:21:55
 running on   16 total cores
 distrk:  each k-point on   16 cores,    1 groups
 distr:  one band on NCORES_PER_BAND=   4 cores,    4 groups


--------------------------------------------------------------------------------------------------------


 INCAR:
 POTCAR:    PAW_PBE N 08Apr2002                   
 POTCAR:    PAW_PBE Si 05Jan2001                  
 POTCAR:    PAW_PBE N 08Apr2002                   
   VRHFIN =N: s2p3                                                              
   LEXCH  = PE                                                                  
   EATOM  =   264.5486 eV,   19.4438 Ry                                         
                                                                                
   TITEL  = PAW_PBE N 08Apr2002                                                 
   LULTRA =        F    use ultrasoft PP ?                                      
   IUNSCR =        1    unscreen: 0-lin 1-nonlin 2-no                           
   RPACOR =    1.200    partial core radius                                     
   POMASS =   14.001; ZVAL   =    5.000    mass and valenz                      
   RCORE  =    1.500    outmost cutoff radius                                   
   RWIGS  =    1.400; RWIGS  =    0.741    wigner-seitz radius (au A)           
   ENMAX  =  400.000; ENMIN  =  300.000 eV                                      
   ICORE  =        2    local potential                                         
   LCOR   =        T    correct aug charges                                     
   LPAW   =        T    paw PP                                                  
   EAUG   =  627.112                                                            
   DEXC   =    0.000                                                            
   RMAX   =    1.529    core radius for proj-oper                               
   RAUG   =    1.300    factor for augmentation sphere                          
   RDEP   =    1.514    radius for radial grids                                 
   RDEPT  =    1.338    core radius for aug-charge                              
                                                                                
   Atomic configuration                                                         
    4 entries                                                                   
     n  l   j            E        occ.                                          
     1  0  0.50      -384.7179   2.0000                                         
     2  0  0.50       -18.5828   2.0000                                         
     2  1  0.50        -7.0898   3.0000                                         
     3  2  1.50        -6.8029   0.0000                                         
   Description                                                                  
     l       E           TYP  RCUT    TYP  RCUT                                 
     0    -18.5828119     23  1.200                                             
     0    -13.5018863     23  1.200                                             
     1     -7.0897853     23  1.500                                             
     1      9.5240782     23  1.500                                             
     2     -6.8029130      7  1.500                                             
  local pseudopotential read in
  partial core-charges read in
  partial kinetic energy density read in
  atomic valenz-charges read in
  non local Contribution for L=           0  read in
    real space projection operators read in
  non local Contribution for L=           0  read in
    real space projection operators read in
  non local Contribution for L=           1  read in
    real space projection operators read in
  non local Contribution for L=           1  read in
    real space projection operators read in
    PAW grid and wavefunctions read in
 
   number of l-projection  operators is LMAX  =           4
   number of lm-projection operators is LMMAX =           8
 
 POTCAR:    PAW_PBE Si 05Jan2001                  
   VRHFIN =Si: s2p2                                                             
   LEXCH  = PE                                                                  
   EATOM  =   103.0669 eV,    7.5752 Ry                                         
                                                                                
   TITEL  = PAW_PBE Si 05Jan2001                                                
   LULTRA =        F    use ultrasoft PP ?                                      
   IUNSCR =        1    unscreen: 0-lin 1-nonlin 2-no                           
   RPACOR =    1.500    partial core radius                                     
   POMASS =   28.085; ZVAL   =    4.000    mass and valenz                      
   RCORE  =    1.900    outmost cutoff radius                                   
   RWIGS  =    2.480; RWIGS  =    1.312    wigner-seitz radius (au A)           
   ENMAX  =  245.345; ENMIN  =  184.009 eV                                      
   ICORE  =        2    local potential                                         
   LCOR   =        T    correct aug charges                                     
   LPAW   =        T    paw PP                                                  
   EAUG   =  322.069                                                            
   DEXC   =    0.000                                                            
   RMAX   =    1.950    core radius for proj-oper                               
   RAUG   =    1.300    factor for augmentation sphere                          
   RDEP   =    1.993    radius for radial grids                                 
   RDEPT  =    1.837    core radius for aug-charge                              
                                                                                
   Atomic configuration                                                         
    6 entries                                                                   
     n  l   j            E        occ.                                          
     1  0  0.50     -1785.8828   2.0000                                         
     2  0  0.50      -139.4969   2.0000                                         
     2  1  1.50       -95.5546   6.0000                                         
     3  0  0.50       -10.8127   2.0000                                         
     3  1  0.50        -4.0811   2.0000                                         
     3  2  1.50        -4.0817   0.0000                                         
   Description                                                                  
     l       E           TYP  RCUT    TYP  RCUT                                 
     0    -10.8127223     23  1.900                                             
     0     -7.6451159     23  1.900                                             
     1     -4.0811372     23  1.900                                             
     1      2.4879257     23  1.900                                             
     2     -4.0817478      7  1.900                                             
  local pseudopotential read in
  partial core-charges read in
  partial kinetic energy density read in
  atomic valenz-charges read in
  non local Contribution for L=           0  read in
    real space projection operators read in
  non local Contribution for L=           0  read in
    real space projection operators read in
  non local Contribution for L=           1  read in
    real space projection operators read in
  non local Contribution for L=           1  read in
    real space projection operators read in
    PAW grid and wavefunctions read in
 
   number of l-projection  operators is LMAX  =           4
   number of lm-projection operators is LMMAX =           8
 
 Optimization of the real space projectors (new method)

 maximal supplied QI-value         = 25.13
 optimisation between [QCUT,QGAM] = [ 10.05, 20.36] = [ 28.30,116.06] Ry 
 Optimized for a Real-space Cutoff    1.70 Angstroem

   l    n(q)    QCUT    max X(q) W(low)/X(q) W(high)/X(q)  e(spline) 
   0     10    10.053    79.467    0.61E-04    0.98E-04    0.61E-06
   0     10    10.053    66.151    0.60E-04    0.98E-04    0.61E-06
   1     10    10.053     8.350    0.17E-03    0.71E-03    0.45E-05
   1     10    10.053     5.531    0.18E-03    0.77E-03    0.49E-05
 Optimization of the real space projectors (new method)

 maximal supplied QI-value         = 19.84
 optimisation between [QCUT,QGAM] = [ 10.12, 20.44] = [ 28.68,116.96] Ry 
 Optimized for a Real-space Cutoff    1.38 Angstroem

   l    n(q)    QCUT    max X(q) W(low)/X(q) W(high)/X(q)  e(spline) 
   0      8    10.119   159.560    0.58E-04    0.11E-03    0.54E-07
   0      8    10.119   115.863    0.56E-04    0.11E-03    0.54E-07
   1      8    10.119    88.339    0.22E-03    0.17E-03    0.19E-06
   1      8    10.119    48.592    0.22E-03    0.17E-03    0.18E-06
  PAW_PBE N 08Apr2002                   :
 energy of atom  1       EATOM= -264.5486
 kinetic energy error for atom=    0.0736 (will be added to EATOM!!)
  PAW_PBE Si 05Jan2001                  :
 energy of atom  2       EATOM= -103.0669
 kinetic energy error for atom=    0.0012 (will be added to EATOM!!)
 
 
 POSCAR: Si12 N16                                
  positions in direct lattice
  No initial velocities read in
 exchange correlation table for  LEXCH =        8
   RHO(1)=    0.500       N(1)  =     2000
   RHO(2)=  100.500       N(2)  =     4000
 


--------------------------------------------------------------------------------------------------------


 ion  position               nearest neighbor table
   1  0.008  0.647  0.213-  14 1.70  23 1.71  25 1.74
   2  0.639  0.992  0.213-  16 1.70  22 1.71  28 1.74
   3  0.914  0.322  0.992-  22 1.71  25 1.73  18 1.74
   4  0.647  0.008  0.713-  22 1.70  16 1.71  26 1.74
   5  0.086  0.407  0.492-  13 1.71  18 1.73  25 1.74
   6  0.322  0.914  0.492-  14 1.71  26 1.73  28 1.74
   7  0.353  0.361  0.213-  13 1.70  15 1.71  21 1.74
   8  0.593  0.678  0.492-  16 1.71  27 1.73  21 1.74
   9  0.992  0.639  0.713-  23 1.70  14 1.71  18 1.74
  10  0.361  0.353  0.713-  15 1.70  13 1.71  27 1.74
  11  0.678  0.593  0.992-  23 1.71  21 1.73  27 1.74
  12  0.407  0.086  0.992-  15 1.71  28 1.73  26 1.74
  13  0.213  0.300  0.467-   7 1.70   5 1.71  10 1.71  19 2.24  21 2.87  18 2.94  15 2.97  15 2.97
                            27 2.98  25 3.12
  14  0.087  0.787  0.467-   1 1.70   6 1.71   9 1.71  19 2.24  25 2.87  26 2.94  23 2.97  23 2.97
                            18 2.98  28 3.12
  15  0.300  0.213  0.967-  10 1.70  12 1.71   7 1.71  17 2.24  27 2.87  28 2.94  13 2.97  13 2.97
                            21 2.98  26 3.12
  16  0.700  0.913  0.467-   2 1.70   8 1.71   4 1.71  19 2.24  28 2.87  27 2.94  22 2.97  22 2.97
                            26 2.98  21 3.12
  17  0.000  0.000  0.957-  22 2.24  23 2.24  15 2.24  19 2.68  19 2.68
  18  0.067  0.484  0.783-   5 1.73   3 1.74   9 1.74  24 2.23  25 2.85  25 2.85  23 2.87  13 2.94
                            14 2.98  22 3.12
  19  0.000  0.000  0.457-  14 2.24  13 2.24  16 2.24  17 2.68  17 2.68
  20  0.667  0.333  0.476-  21 2.23  28 2.23  25 2.23
  21  0.582  0.516  0.283-  11 1.73   8 1.74   7 1.74  20 2.23  27 2.85  27 2.85  13 2.87  23 2.94
                            15 2.98  16 3.12
  22  0.787  0.087  0.967-   4 1.70   3 1.71   2 1.71  17 2.24  26 2.87  25 2.94  16 2.97  16 2.97
                            28 2.98  18 3.12
  23  0.913  0.700  0.967-   9 1.70  11 1.71   1 1.71  17 2.24  18 2.87  21 2.94  14 2.97  14 2.97
                            25 2.98  27 3.12
  24  0.333  0.667  0.976-  27 2.23  18 2.23  26 2.23
  25  0.933  0.418  0.283-   3 1.73   5 1.74   1 1.74  20 2.23  18 2.85  18 2.85  14 2.87  22 2.94
                            23 2.98  13 3.12
  26  0.418  0.933  0.783-   6 1.73  12 1.74   4 1.74  24 2.23  28 2.85  28 2.85  22 2.87  14 2.94
                            16 2.98  15 3.12
  27  0.516  0.582  0.783-   8 1.73  11 1.74  10 1.74  24 2.23  21 2.85  21 2.85  15 2.87  16 2.94
                            13 2.98  23 3.12
  28  0.484  0.067  0.283-  12 1.73   6 1.74   2 1.74  20 2.23  26 2.85  26 2.85  16 2.87  15 2.94
                            22 2.98  14 3.12
 
  LATTYP: Found a hexagonal cell.
 ALAT       =     8.3721724522
 C/A-ratio  =     0.6407499831
  
  Lattice vectors:
  
 A1 = (   4.1860862261,  -7.2505140285,   0.0000000000)
 A2 = (   4.1860862261,   7.2505140285,   0.0000000000)
 A3 = (   0.0000000000,   0.0000000000,   5.3644693575)


Analysis of symmetry for initial positions (statically):
=====================================================================
 Subroutine PRICEL returns:
 Original cell was already a primitive cell.
 

 Routine SETGRP: Setting up the symmetry group for a 
 hexagonal supercell.


 Subroutine GETGRP returns: Found  6 space group operations
 (whereof  3 operations were pure point group operations)
 out of a pool of 24 trial point group operations.


The static configuration has the point symmetry C_3 .
 The point group associated with its full space group is C_3v.


Analysis of symmetry for dynamics (positions and initial velocities):
=====================================================================
 Subroutine PRICEL returns:
 Original cell was already a primitive cell.
 

 Routine SETGRP: Setting up the symmetry group for a 
 hexagonal supercell.


 Subroutine GETGRP returns: Found  6 space group operations
 (whereof  3 operations were pure point group operations)
 out of a pool of 24 trial point group operations.


The dynamic configuration has the point symmetry C_3 .
 The point group associated with its full space group is C_3v.


 Subroutine INISYM returns: Found  6 space group operations
 (whereof  3 operations are pure point group operations),
 and found     1 'primitive' translations

 
 
 KPOINTS: Automatic mesh                          

Automatic generation of k-mesh.
 generate k-points for:    6    6    8
Space group operators:
 irot       det(A)        alpha          n_x          n_y          n_z        tau_x        tau_y        tau_z
    1     1.000000     0.000000     1.000000     0.000000     0.000000     0.000000     0.000000     0.000000
    2     1.000000   120.000000     0.000000     0.000000    -1.000000     0.000000     0.000000     0.000000
    3     1.000000   120.000000     0.000000     0.000000     1.000000     0.000000     0.000000     0.000000
    4    -1.000000   180.000000     0.000000     1.000000     0.000000     0.000000     0.000000     0.500000
    5    -1.000000   180.000000     0.866025     0.500000     0.000000     0.000000     0.000000     0.500000
    6    -1.000000   180.000000     0.866025    -0.500000     0.000000     0.000000     0.000000     0.500000
 
 Subroutine IBZKPT returns following result:
 ===========================================
 
 Found     44 irreducible k-points:
 
 Following reciprocal coordinates:
            Coordinates               Weight
  0.000000  0.000000  0.000000      1.000000
  0.166667  0.000000  0.000000      6.000000
  0.333333  0.000000  0.000000      6.000000
  0.500000  0.000000  0.000000      3.000000
  0.166667  0.166667  0.000000      6.000000
  0.333333  0.166667  0.000000     12.000000
  0.333333  0.333333  0.000000      2.000000
  0.000000  0.000000  0.125000      2.000000
  0.166667  0.000000  0.125000     12.000000
  0.333333  0.000000  0.125000     12.000000
  0.500000  0.000000  0.125000      6.000000
  0.166667  0.166667  0.125000      6.000000
  0.333333  0.166667  0.125000     12.000000
  0.333333  0.333333  0.125000      2.000000
 -0.166667  0.333333  0.125000      6.000000
 -0.333333  0.500000  0.125000     12.000000
 -0.333333 -0.333333  0.125000      2.000000
  0.000000  0.000000  0.250000      2.000000
  0.166667  0.000000  0.250000     12.000000
  0.333333  0.000000  0.250000     12.000000
  0.500000  0.000000  0.250000      6.000000
  0.166667  0.166667  0.250000      6.000000
  0.333333  0.166667  0.250000     12.000000
  0.333333  0.333333  0.250000      2.000000
 -0.166667  0.333333  0.250000      6.000000
 -0.333333  0.500000  0.250000     12.000000
 -0.333333 -0.333333  0.250000      2.000000
  0.000000  0.000000  0.375000      2.000000
  0.166667  0.000000  0.375000     12.000000
  0.333333  0.000000  0.375000     12.000000
  0.500000  0.000000  0.375000      6.000000
  0.166667  0.166667  0.375000      6.000000
  0.333333  0.166667  0.375000     12.000000
  0.333333  0.333333  0.375000      2.000000
 -0.166667  0.333333  0.375000      6.000000
 -0.333333  0.500000  0.375000     12.000000
 -0.333333 -0.333333  0.375000      2.000000
  0.000000  0.000000  0.500000      1.000000
  0.166667  0.000000  0.500000      6.000000
  0.333333  0.000000  0.500000      6.000000
  0.500000  0.000000  0.500000      3.000000
  0.166667  0.166667  0.500000      6.000000
  0.333333  0.166667  0.500000     12.000000
  0.333333  0.333333  0.500000      2.000000
 
 Following cartesian coordinates:
            Coordinates               Weight
  0.000000  0.000000  0.000000      1.000000
  0.019907 -0.011493  0.000000      6.000000
  0.039814 -0.022987  0.000000      6.000000
  0.059722 -0.034480  0.000000      3.000000
  0.039814  0.000000  0.000000      6.000000
  0.059722 -0.011493  0.000000     12.000000
  0.079629  0.000000  0.000000      2.000000
  0.000000  0.000000  0.023301      2.000000
  0.019907 -0.011493  0.023301     12.000000
  0.039814 -0.022987  0.023301     12.000000
  0.059722 -0.034480  0.023301      6.000000
  0.039814  0.000000  0.023301      6.000000
  0.059722 -0.011493  0.023301     12.000000
  0.079629  0.000000  0.023301      2.000000
  0.019907  0.034480  0.023301      6.000000
  0.019907  0.057467  0.023301     12.000000
 -0.079629  0.000000  0.023301      2.000000
  0.000000  0.000000  0.046603      2.000000
  0.019907 -0.011493  0.046603     12.000000
  0.039814 -0.022987  0.046603     12.000000
  0.059722 -0.034480  0.046603      6.000000
  0.039814  0.000000  0.046603      6.000000
  0.059722 -0.011493  0.046603     12.000000
  0.079629  0.000000  0.046603      2.000000
  0.019907  0.034480  0.046603      6.000000
  0.019907  0.057467  0.046603     12.000000
 -0.079629  0.000000  0.046603      2.000000
  0.000000  0.000000  0.069904      2.000000
  0.019907 -0.011493  0.069904     12.000000
  0.039814 -0.022987  0.069904     12.000000
  0.059722 -0.034480  0.069904      6.000000
  0.039814  0.000000  0.069904      6.000000
  0.059722 -0.011493  0.069904     12.000000
  0.079629  0.000000  0.069904      2.000000
  0.019907  0.034480  0.069904      6.000000
  0.019907  0.057467  0.069904     12.000000
 -0.079629  0.000000  0.069904      2.000000
  0.000000  0.000000  0.093206      1.000000
  0.019907 -0.011493  0.093206      6.000000
  0.039814 -0.022987  0.093206      6.000000
  0.059722 -0.034480  0.093206      3.000000
  0.039814  0.000000  0.093206      6.000000
  0.059722 -0.011493  0.093206     12.000000
  0.079629  0.000000  0.093206      2.000000
 


--------------------------------------------------------------------------------------------------------




 Dimension of arrays:
   k-points           NKPTS =     44   k-points in BZ     NKDIM =     44   number of bands    NBANDS=     80
   number of dos      NEDOS =    301   number of ions     NIONS =     28
   non local maximal  LDIM  =      4   non local SUM 2l+1 LMDIM =      8
   total plane-waves  NPLWV = 112896
   max r-space proj   IRMAX =   7158   max aug-charges    IRDMAX=  11790
   dimension x,y,z NGX =    56 NGY =   56 NGZ =   36
   dimension x,y,z NGXF=   112 NGYF=  112 NGZF=   72
   support grid    NGXF=   112 NGYF=  112 NGZF=   72
   ions per type =              12  16
   NGX,Y,Z   is equivalent  to a cutoff of  11.12, 11.12, 11.16 a.u.
   NGXF,Y,Z  is equivalent  to a cutoff of  22.24, 22.24, 22.31 a.u.

 SYSTEM =  unknown system                          
 POSCAR =  Si12 N16                                

 Startparameter for this run:
   NWRITE =      2    write-flag & timer
   PREC   = accura    normal or accurate (medium, high low for compatibility)
   ISTART =      0    job   : 0-new  1-cont  2-samecut
   ICHARG =      2    charge: 1-file 2-atom 10-const
   ISPIN  =      1    spin polarized calculation?
   LNONCOLLINEAR =      F non collinear calculations
   LSORBIT =      F    spin-orbit coupling
   INIWAV =      1    electr: 0-lowe 1-rand  2-diag
   LASPH  =      F    aspherical Exc in radial PAW
   METAGGA=      F    non-selfconsistent MetaGGA calc.

 Electronic Relaxation 1
   ENCUT  =  400.0 eV  29.40 Ry    5.42 a.u.  13.65 13.65  8.75*2*pi/ulx,y,z
   ENINI  =  400.0     initial cutoff
   ENAUG  =  627.1 eV  augmentation charge cutoff
   NELM   =     60;   NELMIN=  2; NELMDL= -5     # of ELM steps 
   EDIFF  = 0.1E-03   stopping-criterion for ELM
   LREAL  =      T    real-space projection
   NLSPLINE    = F    spline interpolate recip. space projectors
   LCOMPAT=      F    compatible to vasp.4.4
   GGA_COMPAT  = T    GGA compatible to vasp.4.4-vasp.4.6
   LMAXPAW     = -100 max onsite density
   LMAXMIX     =    2 max onsite mixed and CHGCAR
   VOSKOWN=      0    Vosko Wilk Nusair interpolation
   ROPT   =   -0.00025  -0.00025
 Ionic relaxation
   EDIFFG = 0.1E-02   stopping-criterion for IOM
   NSW    =    100    number of steps for IOM
   NBLOCK =      1;   KBLOCK =    100    inner block; outer block 
   IBRION =      2    ionic relax: 0-MD 1-quasi-New 2-CG
   NFREE  =      1    steps in history (QN), initial steepest desc. (CG)
   ISIF   =      2    stress and relaxation
   IWAVPR =     11    prediction:  0-non 1-charg 2-wave 3-comb
   ISYM   =      2    0-nonsym 1-usesym 2-fastsym
   LCORR  =      T    Harris-Foulkes like correction to forces

   POTIM  = 0.5000    time-step for ionic-motion
   TEIN   =    0.0    initial temperature
   TEBEG  =    0.0;   TEEND  =   0.0 temperature during run
   SMASS  =  -3.00    Nose mass-parameter (am)
   estimated Nose-frequenzy (Omega)   =  0.10E-29 period in steps =****** mass=  -0.160E-26a.u.
   SCALEE = 1.0000    scale energy and forces
   NPACO  =    256;   APACO  = 16.0  distance and # of slots for P.C.
   PSTRESS=    0.0 pullay stress

  Mass of Ions in am
   POMASS =  14.00 28.09
  Ionic Valenz
   ZVAL   =   5.00  4.00
  Atomic Wigner-Seitz radii
   RWIGS  =  -1.00 -1.00
  virtual crystal weights 
   VCA    =   1.00  1.00
   NELECT =     124.0000    total number of electrons
   NUPDOWN=      -1.0000    fix difference up-down

 DOS related values:
   EMIN   =  10.00;   EMAX   =-10.00  energy-range for DOS
   EFERMI =   0.00
   ISMEAR =     2;   SIGMA  =   0.10  broadening in eV -4-tet -1-fermi 0-gaus

 Electronic relaxation 2 (details)
   IALGO  =     68    algorithm
   LDIAG  =      T    sub-space diagonalisation (order eigenvalues)
   LSUBROT=      F    optimize rotation matrix (better conditioning)
   TURBO    =      0    0=normal 1=particle mesh
   IRESTART =      0    0=no restart 2=restart with 2 vectors
   NREBOOT  =      0    no. of reboots
   NMIN     =      0    reboot dimension
   EREF     =   0.00    reference energy to select bands
   IMIX   =      4    mixing-type and parameters
     AMIX     =   0.40;   BMIX     =  1.00
     AMIX_MAG =   1.60;   BMIX_MAG =  1.00
     AMIN     =   0.10
     WC   =   100.;   INIMIX=   1;  MIXPRE=   1;  MAXMIX= -45

 Intra band minimization:
   WEIMIN = 0.0010     energy-eigenvalue tresh-hold
   EBREAK =  0.31E-06  absolut break condition
   DEPER  =   0.30     relativ break condition  

   TIME   =   0.40     timestep for ELM

  volume/ion in A,a.u.               =      11.63        78.48
  Fermi-wavevector in a.u.,A,eV,Ry     =   1.186599  2.242348 19.157252  1.408018
  Thomas-Fermi vector in A             =   2.322769
 
 Write flags
   LWAVE        =      F    write WAVECAR
   LDOWNSAMPLE  =      F    k-point downsampling of WAVECAR
   LCHARG       =      F    write CHGCAR
   LVTOT        =      F    write LOCPOT, total local potential
   LVHAR        =      F    write LOCPOT, Hartree potential only
   LELF         =      F    write electronic localiz. function (ELF)
   LORBIT       =      0    0 simple, 1 ext, 2 COOP (PROOUT), +10 PAW based schemes


 Dipole corrections
   LMONO  =      F    monopole corrections only (constant potential shift)
   LDIPOL =      F    correct potential (dipole corrections)
   IDIPOL =      0    1-x, 2-y, 3-z, 4-all directions 
   EPSILON=  1.0000000 bulk dielectric constant

 Exchange correlation treatment:
   GGA     =    --    GGA type
   LEXCH   =     8    internal setting for exchange type
   VOSKOWN=      0    Vosko Wilk Nusair interpolation
   LHFCALC =     F    Hartree Fock is set to
   LHFONE  =     F    Hartree Fock one center treatment
   AEXX    =    0.0000 exact exchange contribution

 Linear response parameters
   LEPSILON=     F    determine dielectric tensor
   LRPA    =     F    only Hartree local field effects (RPA)
   LNABLA  =     F    use nabla operator in PAW spheres
   LVEL    =     F    velocity operator in full k-point grid
   LINTERFAST=   F  fast interpolation
   KINTER  =     0    interpolate to denser k-point grid
   CSHIFT  =0.1000    complex shift for real part using Kramers Kronig
   OMEGAMAX=  -1.0    maximum frequency
   DEG_THRESHOLD= 0.2000000E-02 threshold for treating states as degnerate
   RTIME   =   -0.100 relaxation time in fs
  (WPLASMAI=    0.000 imaginary part of plasma frequency in eV, 0.658/RTIME)
   DFIELD  = 0.0000000 0.0000000 0.0000000 field for delta impulse in time
 
 Orbital magnetization related:
   ORBITALMAG=     F  switch on orbital magnetization
   LCHIMAG   =     F  perturbation theory with respect to B field
   DQ        =  0.001000  dq finite difference perturbation B field
   LLRAUG    =     F  two centre corrections for induced B field



--------------------------------------------------------------------------------------------------------


 conjugate gradient relaxation of ions
 charge density and potential will be updated during run
 non-spin polarized calculation
 RMM-DIIS sequential band-by-band and
  variant of blocked Davidson during initial phase
 perform sub-space diagonalisation
    before iterative eigenvector-optimisation
 modified Broyden-mixing scheme, WC =      100.0
 initial mixing is a Kerker type mixing with AMIX =  0.4000 and BMIX =      1.0000
 Hartree-type preconditioning will be used
 using additional bands           18
 real space projection scheme for non local part
 use partial core corrections
 calculate Harris-corrections to forces 
   (improved forces if not selfconsistent)
 use gradient corrections 
 use of overlap-Matrix (Vanderbilt PP)
 Methfessel and Paxton  Order N= 2 SIGMA  =   0.10


--------------------------------------------------------------------------------------------------------


  energy-cutoff  :      400.00
  volume of cell :      325.64
      direct lattice vectors                 reciprocal lattice vectors
     4.186086226 -7.250514029  0.000000000     0.119443311 -0.068960628  0.000000000
     4.186086226  7.250514029  0.000000000     0.119443311  0.068960628  0.000000000
     0.000000000  0.000000000  5.364469358     0.000000000  0.000000000  0.186411727

  length of vectors
     8.372172452  8.372172452  5.364469358     0.137921256  0.137921256  0.186411727


 
 k-points in units of 2pi/SCALE and weight: Automatic mesh                          
   0.00000000 -0.00000000  0.00000000       0.003
   0.01990722 -0.01149344  0.00000000       0.021
   0.03981444 -0.02298688  0.00000000       0.021
   0.05972166 -0.03448031  0.00000000       0.010
   0.03981444 -0.00000000  0.00000000       0.021
   0.05972166 -0.01149344  0.00000000       0.042
   0.07962887 -0.00000000  0.00000000       0.007
   0.00000000 -0.00000000  0.02330147       0.007
   0.01990722 -0.01149344  0.02330147       0.042
   0.03981444 -0.02298688  0.02330147       0.042
   0.05972166 -0.03448031  0.02330147       0.021
   0.03981444 -0.00000000  0.02330147       0.021
   0.05972166 -0.01149344  0.02330147       0.042
   0.07962887 -0.00000000  0.02330147       0.007
   0.01990722  0.03448031  0.02330147       0.021
   0.01990722  0.05746719  0.02330147       0.042
  -0.07962887  0.00000000  0.02330147       0.007
   0.00000000 -0.00000000  0.04660293       0.007
   0.01990722 -0.01149344  0.04660293       0.042
   0.03981444 -0.02298688  0.04660293       0.042
   0.05972166 -0.03448031  0.04660293       0.021
   0.03981444 -0.00000000  0.04660293       0.021
   0.05972166 -0.01149344  0.04660293       0.042
   0.07962887 -0.00000000  0.04660293       0.007
   0.01990722  0.03448031  0.04660293       0.021
   0.01990722  0.05746719  0.04660293       0.042
  -0.07962887  0.00000000  0.04660293       0.007
   0.00000000 -0.00000000  0.06990440       0.007
   0.01990722 -0.01149344  0.06990440       0.042
   0.03981444 -0.02298688  0.06990440       0.042
   0.05972166 -0.03448031  0.06990440       0.021
   0.03981444 -0.00000000  0.06990440       0.021
   0.05972166 -0.01149344  0.06990440       0.042
   0.07962887 -0.00000000  0.06990440       0.007
   0.01990722  0.03448031  0.06990440       0.021
   0.01990722  0.05746719  0.06990440       0.042
  -0.07962887  0.00000000  0.06990440       0.007
   0.00000000 -0.00000000  0.09320586       0.003
   0.01990722 -0.01149344  0.09320586       0.021
   0.03981444 -0.02298688  0.09320586       0.021
   0.05972166 -0.03448031  0.09320586       0.010
   0.03981444 -0.00000000  0.09320586       0.021
   0.05972166 -0.01149344  0.09320586       0.042
   0.07962887 -0.00000000  0.09320586       0.007
 
 k-points in reciprocal lattice and weights: Automatic mesh                          
   0.00000000  0.00000000  0.00000000       0.003
   0.16666667  0.00000000  0.00000000       0.021
   0.33333333  0.00000000  0.00000000       0.021
   0.50000000  0.00000000  0.00000000       0.010
   0.16666667  0.16666667  0.00000000       0.021
   0.33333333  0.16666667  0.00000000       0.042
   0.33333333  0.33333333  0.00000000       0.007
   0.00000000  0.00000000  0.12500000       0.007
   0.16666667  0.00000000  0.12500000       0.042
   0.33333333  0.00000000  0.12500000       0.042
   0.50000000  0.00000000  0.12500000       0.021
   0.16666667  0.16666667  0.12500000       0.021
   0.33333333  0.16666667  0.12500000       0.042
   0.33333333  0.33333333  0.12500000       0.007
  -0.16666667  0.33333333  0.12500000       0.021
  -0.33333333  0.50000000  0.12500000       0.042
  -0.33333333 -0.33333333  0.12500000       0.007
   0.00000000  0.00000000  0.25000000       0.007
   0.16666667  0.00000000  0.25000000       0.042
   0.33333333  0.00000000  0.25000000       0.042
   0.50000000  0.00000000  0.25000000       0.021
   0.16666667  0.16666667  0.25000000       0.021
   0.33333333  0.16666667  0.25000000       0.042
   0.33333333  0.33333333  0.25000000       0.007
  -0.16666667  0.33333333  0.25000000       0.021
  -0.33333333  0.50000000  0.25000000       0.042
  -0.33333333 -0.33333333  0.25000000       0.007
   0.00000000  0.00000000  0.37500000       0.007
   0.16666667  0.00000000  0.37500000       0.042
   0.33333333  0.00000000  0.37500000       0.042
   0.50000000  0.00000000  0.37500000       0.021
   0.16666667  0.16666667  0.37500000       0.021
   0.33333333  0.16666667  0.37500000       0.042
   0.33333333  0.33333333  0.37500000       0.007
  -0.16666667  0.33333333  0.37500000       0.021
  -0.33333333  0.50000000  0.37500000       0.042
  -0.33333333 -0.33333333  0.37500000       0.007
   0.00000000  0.00000000  0.50000000       0.003
   0.16666667  0.00000000  0.50000000       0.021
   0.33333333  0.00000000  0.50000000       0.021
   0.50000000  0.00000000  0.50000000       0.010
   0.16666667  0.16666667  0.50000000       0.021
   0.33333333  0.16666667  0.50000000       0.042
   0.33333333  0.33333333  0.50000000       0.007
 
 position of ions in fractional coordinates (direct lattice) 
   0.00847736  0.64712623  0.21326215
   0.63864887  0.99152264  0.21326215
   0.91417805  0.32157747  0.99187268
   0.64712623  0.00847736  0.71326215
   0.08582195  0.40739942  0.49187268
   0.32157747  0.91417805  0.49187268
   0.35287377  0.36135113  0.21326215
   0.59260058  0.67842253  0.49187268
   0.99152264  0.63864887  0.71326215
   0.36135113  0.35287377  0.71326215
   0.67842253  0.59260058  0.99187268
   0.40739942  0.08582195  0.99187268
   0.21311138  0.30040483  0.46674092
   0.08729345  0.78688862  0.46674092
   0.30040483  0.21311138  0.96674092
   0.69959517  0.91270655  0.46674092
   0.00000000  0.00000000  0.95692726
   0.06686359  0.48449764  0.78259872
   0.00000000  0.00000000  0.45692726
   0.66666667  0.33333333  0.47577702
   0.58236595  0.51550236  0.28259872
   0.78688862  0.08729345  0.96674092
   0.91270655  0.69959517  0.96674092
   0.33333333  0.66666667  0.97577702
   0.93313641  0.41763405  0.28259872
   0.41763405  0.93313641  0.78259872
   0.51550236  0.58236595  0.78259872
   0.48449764  0.06686359  0.28259872
 
 position of ions in cartesian coordinates  (Angst):
   2.74441317  4.63053261  1.14403827
   6.82403851  2.55851621  1.14403827
   5.17297918 -4.29665885  5.32087059
   2.74441317 -4.63053261  3.82627295
   2.06466715  2.33160196  2.63863591
   5.17297918  4.29665885  2.63863591
   2.98980700  0.06146522  1.14403827
   5.32061235  0.62225322  2.63863591
   6.82403851 -2.55851621  3.82627295
   2.98980700 -0.06146522  3.82627295
   5.32061235 -0.62225322  5.32087059
   2.06466715 -2.33160196  5.32087059
   2.14962313  0.63292236  2.50381734
   3.65940151  5.07242461  2.50381734
   2.14962313 -0.63292236  5.18605202
   6.74923405  1.54516705  2.50381734
   0.00000000  0.00000000  5.13340697
   2.30804563  3.02806150  4.19822688
   0.00000000  0.00000000  2.45117229
   4.18608623 -2.41683801  2.55229122
   4.59577145 -0.48479540  1.51599220
   3.65940151 -5.07242461  5.18605202
   6.74923405 -1.54516705  5.18605202
   4.18608623  2.41683801  5.23452590
   5.65444160 -3.73765713  1.51599220
   5.65444160  3.73765713  4.19822688
   4.59577145  0.48479540  4.19822688
   2.30804563 -3.02806150  1.51599220
 


--------------------------------------------------------------------------------------------------------


 k-point  1 :   0.0000 0.0000 0.0000  plane waves:    5903
 k-point  2 :   0.1667 0.0000 0.0000  plane waves:    5933
 k-point  3 :   0.3333 0.0000 0.0000  plane waves:    5914
 k-point  4 :   0.5000 0.0000 0.0000  plane waves:    5942
 k-point  5 :   0.1667 0.1667 0.0000  plane waves:    5901
 k-point  6 :   0.3333 0.1667 0.0000  plane waves:    5907
 k-point  7 :   0.3333 0.3333 0.0000  plane waves:    5922
 k-point  8 :   0.0000 0.0000 0.1250  plane waves:    5927
 k-point  9 :   0.1667 0.0000 0.1250  plane waves:    5918
 k-point 10 :   0.3333 0.0000 0.1250  plane waves:    5911
 k-point 11 :   0.5000 0.0000 0.1250  plane waves:    5926
 k-point 12 :   0.1667 0.1667 0.1250  plane waves:    5917
 k-point 13 :   0.3333 0.1667 0.1250  plane waves:    5918
 k-point 14 :   0.3333 0.3333 0.1250  plane waves:    5931
 k-point 15 :  -0.1667 0.3333 0.1250  plane waves:    5917
 k-point 16 :  -0.3333 0.5000 0.1250  plane waves:    5918
 k-point 17 :  -0.3333-0.3333 0.1250  plane waves:    5931
 k-point 18 :   0.0000 0.0000 0.2500  plane waves:    5915
 k-point 19 :   0.1667 0.0000 0.2500  plane waves:    5923
 k-point 20 :   0.3333 0.0000 0.2500  plane waves:    5907
 k-point 21 :   0.5000 0.0000 0.2500  plane waves:    5906
 k-point 22 :   0.1667 0.1667 0.2500  plane waves:    5918
 k-point 23 :   0.3333 0.1667 0.2500  plane waves:    5911
 k-point 24 :   0.3333 0.3333 0.2500  plane waves:    5877
 k-point 25 :  -0.1667 0.3333 0.2500  plane waves:    5918
 k-point 26 :  -0.3333 0.5000 0.2500  plane waves:    5911
 k-point 27 :  -0.3333-0.3333 0.2500  plane waves:    5877
 k-point 28 :   0.0000 0.0000 0.3750  plane waves:    5946
 k-point 29 :   0.1667 0.0000 0.3750  plane waves:    5917
 k-point 30 :   0.3333 0.0000 0.3750  plane waves:    5908
 k-point 31 :   0.5000 0.0000 0.3750  plane waves:    5904
 k-point 32 :   0.1667 0.1667 0.3750  plane waves:    5919
 k-point 33 :   0.3333 0.1667 0.3750  plane waves:    5909
 k-point 34 :   0.3333 0.3333 0.3750  plane waves:    5925
 k-point 35 :  -0.1667 0.3333 0.3750  plane waves:    5919
 k-point 36 :  -0.3333 0.5000 0.3750  plane waves:    5909
 k-point 37 :  -0.3333-0.3333 0.3750  plane waves:    5925
 k-point 38 :   0.0000 0.0000 0.5000  plane waves:    5958
 k-point 39 :   0.1667 0.0000 0.5000  plane waves:    5918
 k-point 40 :   0.3333 0.0000 0.5000  plane waves:    5906
 k-point 41 :   0.5000 0.0000 0.5000  plane waves:    5940
 k-point 42 :   0.1667 0.1667 0.5000  plane waves:    5920
 k-point 43 :   0.3333 0.1667 0.5000  plane waves:    5912
 k-point 44 :   0.3333 0.3333 0.5000  plane waves:    5916

 maximum and minimum number of plane-waves per node :      1515     1444

 maximum number of plane-waves:      5958
 maximum index in each direction: 
   IXMAX=   13   IYMAX=   13   IZMAX=    8
   IXMIN=  -14   IYMIN=  -14   IZMIN=   -9


 real space projection operators:
  total allocation   :       8880.75 KBytes
  max/ min on nodes  :       2223.50       2216.00


 parallel 3D FFT for wavefunctions:
    minimum data exchange during FFTs selected (reduces bandwidth)
 parallel 3D FFT for charge:
    minimum data exchange during FFTs selected (reduces bandwidth)


 total amount of memory used by VASP MPI-rank0    65160. kBytes
=======================================================================

   base      :      30000. kBytes
   nonlr-proj:       6135. kBytes
   fftplans  :       2787. kBytes
   grid      :       4365. kBytes
   one-center:         21. kBytes
   wavefun   :      21852. kBytes
 
     INWAV:  cpu time    0.0000: real time    0.0000
 Broyden mixing: mesh for mixing (old mesh)
   NGX = 27   NGY = 27   NGZ = 17
  (NGX  =112   NGY  =112   NGZ  = 72)
  gives a total of  12393 points

 initial charge density was supplied:
 charge density of overlapping atoms calculated
 number of electron     124.0000000 magnetization 
 keeping initial charge density in first step


--------------------------------------------------------------------------------------------------------


 Maximum index for non-local projection operator         1735
 Maximum index for augmentation-charges          800 (set IRDMAX)


--------------------------------------------------------------------------------------------------------


 First call to EWALD:  gamma=   0.258
 Maximum number of real-space cells 3x 3x 3
 Maximum number of reciprocal cells 3x 3x 2

    FEWALD:  cpu time    0.0022: real time    0.0022


--------------------------------------- Iteration      1(   1)  ---------------------------------------


    POTLOK:  cpu time    0.0481: real time    0.0512
    SETDIJ:  cpu time    0.0042: real time    0.0042
     EDDAV:  cpu time    8.2760: real time    8.2769
       DOS:  cpu time    0.0033: real time    0.0032
    --------------------------------------------
      LOOP:  cpu time    8.3316: real time    8.3356

 eigenvalue-minimisations  :  7040
 total energy-change (2. order) : 0.4795404E+03  (-0.5039584E+04)
 number of electron     124.0000000 magnetization 
 augmentation part      124.0000000 magnetization 

 Free energy of the ion-electron system (eV)
  ---------------------------------------------------
  alpha Z        PSCENC =       149.74378846
  Ewald energy   TEWEN  =     -4327.58211608
  -Hartree energ DENC   =     -1043.41646813
  -exchange      EXHF   =         0.00000000
  -V(xc)+E(xc)   XCENC  =       103.25334394
  PAW double counting   =      3869.17357318    -3601.97287308
  entropy T*S    EENTRO =        -0.00199054
  eigenvalues    EBANDS =       507.59118121
  atomic energy  EATOM  =      4822.75196862
  Solvation  Ediel_sol  =         0.00000000
  ---------------------------------------------------
  free energy    TOTEN  =       479.54040759 eV

  energy without entropy =      479.54239813  energy(sigma->0) =      479.54090523


--------------------------------------------------------------------------------------------------------




--------------------------------------- Iteration      1(   2)  ---------------------------------------


     EDDAV:  cpu time    9.7633: real time    9.7710
       DOS:  cpu time    0.0032: real time    0.0032
    --------------------------------------------
      LOOP:  cpu time    9.7665: real time    9.7742

 eigenvalue-minimisations  :  8760
 total energy-change (2. order) :-0.6561764E+03  (-0.6290857E+03)
 number of electron     124.0000000 magnetization 
 augmentation part      124.0000000 magnetization 

 Free energy of the ion-electron system (eV)
  ---------------------------------------------------
  alpha Z        PSCENC =       149.74378846
  Ewald energy   TEWEN  =     -4327.58211608
  -Hartree energ DENC   =     -1043.41646813
  -exchange      EXHF   =         0.00000000
  -V(xc)+E(xc)   XCENC  =       103.25334394
  PAW double counting   =      3869.17357318    -3601.97287308
  entropy T*S    EENTRO =        -0.00267632
  eigenvalues    EBANDS =      -148.58458115
  atomic energy  EATOM  =      4822.75196862
  Solvation  Ediel_sol  =         0.00000000
  ---------------------------------------------------
  free energy    TOTEN  =      -176.63604056 eV

  energy without entropy =     -176.63336423  energy(sigma->0) =     -176.63537148


--------------------------------------------------------------------------------------------------------




--------------------------------------- Iteration      1(   3)  ---------------------------------------


     EDDAV:  cpu time    9.5035: real time    9.5041
       DOS:  cpu time    0.0037: real time    0.0037
    --------------------------------------------
      LOOP:  cpu time    9.5072: real time    9.5077

 eigenvalue-minimisations  :  8432
 total energy-change (2. order) :-0.4882044E+02  (-0.4840498E+02)
 number of electron     124.0000000 magnetization 
 augmentation part      124.0000000 magnetization 

 Free energy of the ion-electron system (eV)
  ---------------------------------------------------
  alpha Z        PSCENC =       149.74378846
  Ewald energy   TEWEN  =     -4327.58211608
  -Hartree energ DENC   =     -1043.41646813
  -exchange      EXHF   =         0.00000000
  -V(xc)+E(xc)   XCENC  =       103.25334394
  PAW double counting   =      3869.17357318    -3601.97287308
  entropy T*S    EENTRO =        -0.02192135
  eigenvalues    EBANDS =      -197.38577364
  atomic energy  EATOM  =      4822.75196862
  Solvation  Ediel_sol  =         0.00000000
  ---------------------------------------------------
  free energy    TOTEN  =      -225.45647807 eV

  energy without entropy =     -225.43455672  energy(sigma->0) =     -225.45099774


--------------------------------------------------------------------------------------------------------




--------------------------------------- Iteration      1(   4)  ---------------------------------------


     EDDAV:  cpu time    9.7215: real time    9.7220
       DOS:  cpu time    0.0037: real time    0.0037
    --------------------------------------------
      LOOP:  cpu time    9.7252: real time    9.7257

 eigenvalue-minimisations  :  8712
 total energy-change (2. order) :-0.1036284E+01  (-0.1031328E+01)
 number of electron     124.0000000 magnetization 
 augmentation part      124.0000000 magnetization 

 Free energy of the ion-electron system (eV)
  ---------------------------------------------------
  alpha Z        PSCENC =       149.74378846
  Ewald energy   TEWEN  =     -4327.58211608
  -Hartree energ DENC   =     -1043.41646813
  -exchange      EXHF   =         0.00000000
  -V(xc)+E(xc)   XCENC  =       103.25334394
  PAW double counting   =      3869.17357318    -3601.97287308
  entropy T*S    EENTRO =        -0.02515723
  eigenvalues    EBANDS =      -198.41882147
  atomic energy  EATOM  =      4822.75196862
  Solvation  Ediel_sol  =         0.00000000
  ---------------------------------------------------
  free energy    TOTEN  =      -226.49276178 eV

  energy without entropy =     -226.46760455  energy(sigma->0) =     -226.48647248


--------------------------------------------------------------------------------------------------------




--------------------------------------- Iteration      1(   5)  ---------------------------------------


     EDDAV:  cpu time    9.6072: real time    9.6072
       DOS:  cpu time    0.0036: real time    0.0036
    CHARGE:  cpu time    0.3298: real time    0.3298
    MIXING:  cpu time    0.0012: real time    0.0012
    --------------------------------------------
      LOOP:  cpu time    9.9418: real time    9.9417

 eigenvalue-minimisations  :  8568
 total energy-change (2. order) :-0.2360025E-01  (-0.2357052E-01)
 number of electron     124.0000011 magnetization 
 augmentation part        0.9791424 magnetization 

 Broyden mixing:
  rms(total) = 0.38839E+01    rms(broyden)= 0.38828E+01
  rms(prec ) = 0.54087E+01
  weight for this iteration     100.00

 Free energy of the ion-electron system (eV)
  ---------------------------------------------------
  alpha Z        PSCENC =       149.74378846
  Ewald energy   TEWEN  =     -4327.58211608
  -Hartree energ DENC   =     -1043.41646813
  -exchange      EXHF   =         0.00000000
  -V(xc)+E(xc)   XCENC  =       103.25334394
  PAW double counting   =      3869.17357318    -3601.97287308
  entropy T*S    EENTRO =        -0.02520054
  eigenvalues    EBANDS =      -198.44237842
  atomic energy  EATOM  =      4822.75196862
  Solvation  Ediel_sol  =         0.00000000
  ---------------------------------------------------
  free energy    TOTEN  =      -226.51636204 eV

  energy without entropy =     -226.49116150  energy(sigma->0) =     -226.51006190


--------------------------------------------------------------------------------------------------------




--------------------------------------- Iteration      1(   6)  ---------------------------------------


    POTLOK:  cpu time    0.0397: real time    0.0398
    SETDIJ:  cpu time    0.0042: real time    0.0042
    EDDIAG:  cpu time    0.9447: real time    0.9450
  RMM-DIIS:  cpu time    5.1939: real time    5.1956
    ORTHCH:  cpu time    0.0868: real time    0.0869
       DOS:  cpu time    0.0040: real time    0.0041
    CHARGE:  cpu time    0.3249: real time    0.3250
    MIXING:  cpu time    0.0011: real time    0.0011
    --------------------------------------------
      LOOP:  cpu time    6.5995: real time    6.6016

 eigenvalue-minimisations  :  7051
 total energy-change (2. order) : 0.2575484E+02  (-0.1098763E+02)
 number of electron     124.0000009 magnetization 
 augmentation part       -0.4351532 magnetization 

 Broyden mixing:
  rms(total) = 0.17674E+01    rms(broyden)= 0.17668E+01
  rms(prec ) = 0.19865E+01
  weight for this iteration     100.00

 eigenvalues of (default mixing * dielectric matrix)
  average eigenvalue GAMMA=   1.1915
  1.1915

 Free energy of the ion-electron system (eV)
  ---------------------------------------------------
  alpha Z        PSCENC =       149.74378846
  Ewald energy   TEWEN  =     -4327.58211608
  -Hartree energ DENC   =     -1235.72252191
  -exchange      EXHF   =         0.00000000
  -V(xc)+E(xc)   XCENC  =       116.96541925
  PAW double counting   =      8931.70789078    -8667.49523661
  entropy T*S    EENTRO =        -0.00330911
  eigenvalues    EBANDS =         8.87259654
  atomic energy  EATOM  =      4822.75196862
  Solvation  Ediel_sol  =         0.00000000
  ---------------------------------------------------
  free energy    TOTEN  =      -200.76152005 eV

  energy without entropy =     -200.75821094  energy(sigma->0) =     -200.76069277


--------------------------------------------------------------------------------------------------------




--------------------------------------- Iteration      1(   7)  ---------------------------------------


    POTLOK:  cpu time    0.0379: real time    0.0396
    SETDIJ:  cpu time    0.0043: real time    0.0043
    EDDIAG:  cpu time    0.9429: real time    0.9428
  RMM-DIIS:  cpu time    5.2878: real time    5.2956
    ORTHCH:  cpu time    0.0868: real time    0.0868
       DOS:  cpu time    0.0040: real time    0.0040
    CHARGE:  cpu time    0.3340: real time    0.3342
    MIXING:  cpu time    0.0011: real time    0.0011
    --------------------------------------------
      LOOP:  cpu time    6.6988: real time    6.7084

 eigenvalue-minimisations  :  7128
 total energy-change (2. order) : 0.6552228E+00  (-0.5356954E+00)
 number of electron     124.0000009 magnetization 
 augmentation part       -0.5999513 magnetization 

 Broyden mixing:
  rms(total) = 0.94639E+00    rms(broyden)= 0.94627E+00
  rms(prec ) = 0.10643E+01
  weight for this iteration     100.00

 eigenvalues of (default mixing * dielectric matrix)
  average eigenvalue GAMMA=   1.6582
  1.1555  2.1609

 Free energy of the ion-electron system (eV)
  ---------------------------------------------------
  alpha Z        PSCENC =       149.74378846
  Ewald energy   TEWEN  =     -4327.58211608
  -Hartree energ DENC   =     -1261.88724173
  -exchange      EXHF   =         0.00000000
  -V(xc)+E(xc)   XCENC  =       119.73112241
  PAW double counting   =     13979.12626403   -13716.28318418
  entropy T*S    EENTRO =        -0.00752310
  eigenvalues    EBANDS =        34.30062433
  atomic energy  EATOM  =      4822.75196862
  Solvation  Ediel_sol  =         0.00000000
  ---------------------------------------------------
  free energy    TOTEN  =      -200.10629724 eV

  energy without entropy =     -200.09877414  energy(sigma->0) =     -200.10441646


--------------------------------------------------------------------------------------------------------




--------------------------------------- Iteration      1(   8)  ---------------------------------------


    POTLOK:  cpu time    0.0375: real time    0.0401
    SETDIJ:  cpu time    0.0043: real time    0.0043
    EDDIAG:  cpu time    0.9491: real time    0.9503
  RMM-DIIS:  cpu time    5.2676: real time    5.2713
    ORTHCH:  cpu time    0.0896: real time    0.0896
       DOS:  cpu time    0.0039: real time    0.0040
    CHARGE:  cpu time    0.3229: real time    0.3229
    MIXING:  cpu time    0.0012: real time    0.0012
    --------------------------------------------
      LOOP:  cpu time    6.6760: real time    6.6837

 eigenvalue-minimisations  :  7040
 total energy-change (2. order) : 0.1977972E+00  (-0.1074440E+00)
 number of electron     124.0000009 magnetization 
 augmentation part       -0.5263645 magnetization 

 Broyden mixing:
  rms(total) = 0.16720E+00    rms(broyden)= 0.16719E+00
  rms(prec ) = 0.27683E+00
  weight for this iteration     100.00

 eigenvalues of (default mixing * dielectric matrix)
  average eigenvalue GAMMA=   1.4327
  2.3240  1.0665  0.9077

 Free energy of the ion-electron system (eV)
  ---------------------------------------------------
  alpha Z        PSCENC =       149.74378846
  Ewald energy   TEWEN  =     -4327.58211608
  -Hartree energ DENC   =     -1263.07516326
  -exchange      EXHF   =         0.00000000
  -V(xc)+E(xc)   XCENC  =       120.89822463
  PAW double counting   =     19480.75776455   -19219.02296296
  entropy T*S    EENTRO =        -0.00265508
  eigenvalues    EBANDS =        35.62265109
  atomic energy  EATOM  =      4822.75196862
  Solvation  Ediel_sol  =         0.00000000
  ---------------------------------------------------
  free energy    TOTEN  =      -199.90850003 eV

  energy without entropy =     -199.90584495  energy(sigma->0) =     -199.90783626


--------------------------------------------------------------------------------------------------------




--------------------------------------- Iteration      1(   9)  ---------------------------------------


    POTLOK:  cpu time    0.0383: real time    0.0401
    SETDIJ:  cpu time    0.0042: real time    0.0042
    EDDIAG:  cpu time    0.9464: real time    0.9463
  RMM-DIIS:  cpu time    5.2326: real time    5.2315
    ORTHCH:  cpu time    0.0875: real time    0.0875
       DOS:  cpu time    0.0039: real time    0.0039
    CHARGE:  cpu time    0.3283: real time    0.3283
    MIXING:  cpu time    0.0012: real time    0.0012
    --------------------------------------------
      LOOP:  cpu time    6.6425: real time    6.6430

 eigenvalue-minimisations  :  7057
 total energy-change (2. order) : 0.2058319E-01  (-0.8002161E-02)
 number of electron     124.0000009 magnetization 
 augmentation part       -0.5225220 magnetization 

 Broyden mixing:
  rms(total) = 0.71384E-01    rms(broyden)= 0.71375E-01
  rms(prec ) = 0.12826E+00
  weight for this iteration     100.00

 eigenvalues of (default mixing * dielectric matrix)
  average eigenvalue GAMMA=   1.3539
  2.3769  1.1960  1.1960  0.6466

 Free energy of the ion-electron system (eV)
  ---------------------------------------------------
  alpha Z        PSCENC =       149.74378846
  Ewald energy   TEWEN  =     -4327.58211608
  -Hartree energ DENC   =     -1267.66418980
  -exchange      EXHF   =         0.00000000
  -V(xc)+E(xc)   XCENC  =       121.40530815
  PAW double counting   =     20489.06924982   -20227.52159852
  entropy T*S    EENTRO =        -0.00815389
  eigenvalues    EBANDS =        39.91782640
  atomic energy  EATOM  =      4822.75196862
  Solvation  Ediel_sol  =         0.00000000
  ---------------------------------------------------
  free energy    TOTEN  =      -199.88791684 eV

  energy without entropy =     -199.87976295  energy(sigma->0) =     -199.88587836


--------------------------------------------------------------------------------------------------------




--------------------------------------- Iteration      1(  10)  ---------------------------------------


    POTLOK:  cpu time    0.0395: real time    0.0396
    SETDIJ:  cpu time    0.0042: real time    0.0042
    EDDIAG:  cpu time    0.9443: real time    0.9443
  RMM-DIIS:  cpu time    5.1892: real time    5.1897
    ORTHCH:  cpu time    0.0874: real time    0.0874
       DOS:  cpu time    0.0040: real time    0.0040
    CHARGE:  cpu time    0.3281: real time    0.3281
    MIXING:  cpu time    0.0012: real time    0.0012
    --------------------------------------------
      LOOP:  cpu time    6.5980: real time    6.5986

 eigenvalue-minimisations  :  7040
 total energy-change (2. order) : 0.6091708E-02  (-0.9019279E-02)
 number of electron     124.0000009 magnetization 
 augmentation part       -0.5639040 magnetization 

 Broyden mixing:
  rms(total) = 0.47635E-01    rms(broyden)= 0.47603E-01
  rms(prec ) = 0.78708E-01
  weight for this iteration     100.00

 eigenvalues of (default mixing * dielectric matrix)
  average eigenvalue GAMMA=   1.4456
  2.2831  2.2831  1.0522  1.0522  0.5576

 Free energy of the ion-electron system (eV)
  ---------------------------------------------------
  alpha Z        PSCENC =       149.74378846
  Ewald energy   TEWEN  =     -4327.58211608
  -Hartree energ DENC   =     -1273.22132948
  -exchange      EXHF   =         0.00000000
  -V(xc)+E(xc)   XCENC  =       121.76738982
  PAW double counting   =     20617.21178197   -20355.68471334
  entropy T*S    EENTRO =        -0.00669228
  eigenvalues    EBANDS =        45.13809717
  atomic energy  EATOM  =      4822.75196862
  Solvation  Ediel_sol  =         0.00000000
  ---------------------------------------------------
  free energy    TOTEN  =      -199.88182513 eV

  energy without entropy =     -199.87513285  energy(sigma->0) =     -199.88015206


--------------------------------------------------------------------------------------------------------




--------------------------------------- Iteration      1(  11)  ---------------------------------------


    POTLOK:  cpu time    0.0376: real time    0.0395
    SETDIJ:  cpu time    0.0042: real time    0.0042
    EDDIAG:  cpu time    0.9447: real time    0.9450
  RMM-DIIS:  cpu time    5.2157: real time    5.2189
    ORTHCH:  cpu time    0.0874: real time    0.0875
       DOS:  cpu time    0.0040: real time    0.0040
    CHARGE:  cpu time    0.3328: real time    0.3329
    MIXING:  cpu time    0.0013: real time    0.0013
    --------------------------------------------
      LOOP:  cpu time    6.6278: real time    6.6333

 eigenvalue-minimisations  :  7040
 total energy-change (2. order) : 0.1825645E-02  (-0.8741579E-03)
 number of electron     124.0000009 magnetization 
 augmentation part       -0.5572162 magnetization 

 Broyden mixing:
  rms(total) = 0.17646E-01    rms(broyden)= 0.17645E-01
  rms(prec ) = 0.30275E-01
  weight for this iteration     100.00

 eigenvalues of (default mixing * dielectric matrix)
  average eigenvalue GAMMA=   1.4667
  2.3598  2.3598  1.3097  1.1158  1.1158  0.5389

 Free energy of the ion-electron system (eV)
  ---------------------------------------------------
  alpha Z        PSCENC =       149.74378846
  Ewald energy   TEWEN  =     -4327.58211608
  -Hartree energ DENC   =     -1271.91378270
  -exchange      EXHF   =         0.00000000
  -V(xc)+E(xc)   XCENC  =       121.68450486
  PAW double counting   =     20484.00337032   -20222.43410245
  entropy T*S    EENTRO =        -0.00789253
  eigenvalues    EBANDS =        43.87426201
  atomic energy  EATOM  =      4822.75196862
  Solvation  Ediel_sol  =         0.00000000
  ---------------------------------------------------
  free energy    TOTEN  =      -199.87999948 eV

  energy without entropy =     -199.87210696  energy(sigma->0) =     -199.87802635


--------------------------------------------------------------------------------------------------------




--------------------------------------- Iteration      1(  12)  ---------------------------------------


    POTLOK:  cpu time    0.0376: real time    0.0395
    SETDIJ:  cpu time    0.0042: real time    0.0042
    EDDIAG:  cpu time    0.9457: real time    0.9455
  RMM-DIIS:  cpu time    5.2519: real time    5.2511
    ORTHCH:  cpu time    0.0879: real time    0.0879
       DOS:  cpu time    0.0040: real time    0.0040
    CHARGE:  cpu time    0.3299: real time    0.3299
    MIXING:  cpu time    0.0013: real time    0.0013
    --------------------------------------------
      LOOP:  cpu time    6.6626: real time    6.6635

 eigenvalue-minimisations  :  7040
 total energy-change (2. order) : 0.9184496E-04  (-0.3430715E-03)
 number of electron     124.0000009 magnetization 
 augmentation part       -0.5520725 magnetization 

 Broyden mixing:
  rms(total) = 0.92375E-02    rms(broyden)= 0.92348E-02
  rms(prec ) = 0.21286E-01
  weight for this iteration     100.00

 eigenvalues of (default mixing * dielectric matrix)
  average eigenvalue GAMMA=   1.5142
  2.6064  2.5190  1.9379  1.0435  1.0435  0.9227  0.5264

 Free energy of the ion-electron system (eV)
  ---------------------------------------------------
  alpha Z        PSCENC =       149.74378846
  Ewald energy   TEWEN  =     -4327.58211608
  -Hartree energ DENC   =     -1271.35931825
  -exchange      EXHF   =         0.00000000
  -V(xc)+E(xc)   XCENC  =       121.66356054
  PAW double counting   =     20475.81638414   -20214.24900441
  entropy T*S    EENTRO =        -0.00754240
  eigenvalues    EBANDS =        43.34237174
  atomic energy  EATOM  =      4822.75196862
  Solvation  Ediel_sol  =         0.00000000
  ---------------------------------------------------
  free energy    TOTEN  =      -199.87990764 eV

  energy without entropy =     -199.87236523  energy(sigma->0) =     -199.87802204


--------------------------------------------------------------------------------------------------------




--------------------------------------- Iteration      1(  13)  ---------------------------------------


    POTLOK:  cpu time    0.0376: real time    0.0396
    SETDIJ:  cpu time    0.0045: real time    0.0045
    EDDIAG:  cpu time    0.9457: real time    0.9456
  RMM-DIIS:  cpu time    3.8848: real time    3.8843
    ORTHCH:  cpu time    0.0873: real time    0.0873
       DOS:  cpu time    0.0041: real time    0.0041
    CHARGE:  cpu time    0.3306: real time    0.3306
    MIXING:  cpu time    0.0013: real time    0.0013
    --------------------------------------------
      LOOP:  cpu time    5.2960: real time    5.2973

 eigenvalue-minimisations  :  4996
 total energy-change (2. order) : 0.1426329E-03  (-0.3288659E-04)
 number of electron     124.0000009 magnetization 
 augmentation part       -0.5513423 magnetization 

 Broyden mixing:
  rms(total) = 0.27012E-02    rms(broyden)= 0.26987E-02
  rms(prec ) = 0.40513E-02
  weight for this iteration     100.00

 eigenvalues of (default mixing * dielectric matrix)
  average eigenvalue GAMMA=   1.4790
  2.6926  2.4643  1.8401  1.2167  1.0868  1.0868  0.9187  0.5263

 Free energy of the ion-electron system (eV)
  ---------------------------------------------------
  alpha Z        PSCENC =       149.74378846
  Ewald energy   TEWEN  =     -4327.58211608
  -Hartree energ DENC   =     -1271.53854937
  -exchange      EXHF   =         0.00000000
  -V(xc)+E(xc)   XCENC  =       121.68293546
  PAW double counting   =     20440.00536510   -20178.43706631
  entropy T*S    EENTRO =        -0.00780760
  eigenvalues    EBANDS =        43.50171671
  atomic energy  EATOM  =      4822.75196862
  Solvation  Ediel_sol  =         0.00000000
  ---------------------------------------------------
  free energy    TOTEN  =      -199.87976501 eV

  energy without entropy =     -199.87195741  energy(sigma->0) =     -199.87781311


--------------------------------------------------------------------------------------------------------




--------------------------------------- Iteration      1(  14)  ---------------------------------------


    POTLOK:  cpu time    0.0378: real time    0.0395
    SETDIJ:  cpu time    0.0042: real time    0.0042
    EDDIAG:  cpu time    0.9422: real time    0.9420
  RMM-DIIS:  cpu time    3.3519: real time    3.3522
    ORTHCH:  cpu time    0.0866: real time    0.0866
       DOS:  cpu time    0.0039: real time    0.0039
    --------------------------------------------
      LOOP:  cpu time    4.4265: real time    4.4284

 eigenvalue-minimisations  :  4260
 total energy-change (2. order) : 0.1405336E-04  (-0.6254509E-05)
 number of electron     124.0000009 magnetization 
 augmentation part       -0.5513423 magnetization 

 Free energy of the ion-electron system (eV)
  ---------------------------------------------------
  alpha Z        PSCENC =       149.74378846
  Ewald energy   TEWEN  =     -4327.58211608
  -Hartree energ DENC   =     -1271.68693321
  -exchange      EXHF   =         0.00000000
  -V(xc)+E(xc)   XCENC  =       121.69199100
  PAW double counting   =     20441.40237654   -20179.83444322
  entropy T*S    EENTRO =        -0.00778792
  eigenvalues    EBANDS =        43.64140485
  atomic energy  EATOM  =      4822.75196862
  Solvation  Ediel_sol  =         0.00000000
  ---------------------------------------------------
  free energy    TOTEN  =      -199.87975095 eV

  energy without entropy =     -199.87196303  energy(sigma->0) =     -199.87780397


--------------------------------------------------------------------------------------------------------




 average (electrostatic) potential at core
  the test charge radii are     0.7089  0.9892
  (the norm of the test charge is              1.0000)
       1 -60.7393       2 -60.7393       3 -60.7614       4 -60.7393       5 -60.7614
       6 -60.7614       7 -60.7393       8 -60.7614       9 -60.7393      10 -60.7393
      11 -60.7614      12 -60.7614      13 -81.6842      14 -81.6842      15 -81.6842
      16 -81.6842      17 -80.5610      18 -81.5561      19 -80.5610      20 -79.9291
      21 -81.5561      22 -81.6842      23 -81.6842      24 -79.9291      25 -81.5561
      26 -81.5561      27 -81.5561      28 -81.5561
 
 
 
 E-fermi :   8.3783     XC(G=0): -10.7884     alpha+bet :-14.9865


 k-point     1 :       0.0000    0.0000    0.0000
  band No.  band energies     occupation 
      1     -10.8917      2.00000
      2     -10.1610      2.00000
      3     -10.1610      2.00000
      4      -9.2764      2.00000
      5      -9.2764      2.00000
      6      -8.5473      2.00000
      7      -8.1086      2.00000
      8      -8.0768      2.00000
      9      -8.0768      2.00000
     10      -8.0297      2.00000
     11      -7.9545      2.00000
     12      -7.9545      2.00000
     13      -3.6901      2.00000
     14      -2.7096      2.00000
     15      -2.7096      2.00000
     16      -2.3834      2.00000
     17      -1.5944      2.00000
     18      -1.4305      2.00000
     19      -1.4305      2.00000
     20      -0.7937      2.00000
     21      -0.5041      2.00000
     22      -0.5041      2.00000
     23      -0.2437      2.00000
     24       0.2150      2.00000
     25       0.2150      2.00000
     26       0.5290      2.00000
     27       0.5603      2.00000
     28       1.1522      2.00000
     29       1.2502      2.00000
     30       1.2502      2.00000
     31       1.6185      2.00000
     32       2.0513      2.00000
     33       2.0513      2.00000
     34       2.2506      2.00000
     35       2.3237      2.00000
     36       2.3237      2.00000
     37       2.6819      2.00000
     38       2.7174      2.00000
     39       2.7174      2.00000
     40       3.1014      2.00000
     41       3.1014      2.00000
     42       3.8433      2.00000
     43       3.8433      2.00000
     44       3.8697      2.00000
     45       3.9503      2.00000
     46       3.9503      2.00000
     47       4.5219      2.00000
     48       4.6577      2.00000
     49       4.9586      2.00000
     50       5.0891      2.00000
     51       5.0891      2.00000
     52       5.3738      2.00000
     53       5.5311      2.00000
     54       5.7363      2.00000
     55       5.7363      2.00000
     56       6.1410      2.00000
     57       6.1410      2.00000
     58       6.8285      2.00000
     59       6.8285      2.00000
     60       7.3700      2.00000
     61       7.3700      2.00000
     62       7.9566      2.00000
     63       8.6522      0.00182
     64      10.0660      0.00000
     65      10.0660      0.00000
     66      10.9886      0.00000
     67      10.9886      0.00000
     68      11.4710      0.00000
     69      11.4711      0.00000
     70      11.8183      0.00000
     71      12.1569      0.00000
     72      12.3996      0.00000
     73      12.6017      0.00000
     74      12.6027      0.00000
     75      12.8957      0.00000
     76      13.3240      0.00000
     77      13.3303      0.00000
     78      13.4064      0.00000
     79      13.6428      0.00000
     80      13.6513      0.00000

 k-point     2 :       0.1667    0.0000    0.0000
  band No.  band energies     occupation 
      1     -10.8577      2.00000
      2     -10.2316      2.00000
      3     -10.1879      2.00000
      4      -9.2417      2.00000
      5      -9.2004      2.00000
      6      -8.5137      2.00000
      7      -8.2482      2.00000
      8      -8.0978      2.00000
      9      -8.0579      2.00000
     10      -8.0192      2.00000
     11      -7.9544      2.00000
     12      -7.9181      2.00000
     13      -3.6009      2.00000
     14      -2.7169      2.00000
     15      -2.6226      2.00000
     16      -2.3252      2.00000
     17      -1.6860      2.00000
     18      -1.4939      2.00000
     19      -1.4322      2.00000
     20      -1.0883      2.00000
     21      -0.7395      2.00000
     22      -0.3940      2.00000
     23      -0.2591      2.00000
     24       0.1521      2.00000
     25       0.3662      2.00000
     26       0.6651      2.00000
     27       0.7525      2.00000
     28       1.1758      2.00000
     29       1.1947      2.00000
     30       1.2135      2.00000
     31       1.6408      2.00000
     32       1.9641      2.00000
     33       2.0997      2.00000
     34       2.1925      2.00000
     35       2.3444      2.00000
     36       2.3800      2.00000
     37       2.6938      2.00000
     38       2.7085      2.00000
     39       2.9092      2.00000
     40       3.1317      2.00000
     41       3.1563      2.00000
     42       3.7133      2.00000
     43       3.7834      2.00000
     44       3.8619      2.00000
     45       4.0042      2.00000
     46       4.0654      2.00000
     47       4.5157      2.00000
     48       4.5386      2.00000
     49       4.6763      2.00000
     50       5.1350      2.00000
     51       5.2653      2.00000
     52       5.3905      2.00000
     53       5.5247      2.00000
     54       5.7692      2.00000
     55       5.8754      2.00000
     56       6.0622      2.00000
     57       6.1376      2.00000
     58       6.7174      2.00000
     59       6.7659      2.00000
     60       7.2584      2.00000
     61       7.3556      2.00000
     62       7.9968      1.99999
     63       8.5767      0.00978
     64      10.1925      0.00000
     65      10.2588      0.00000
     66      10.9189      0.00000
     67      10.9522      0.00000
     68      11.4505      0.00000
     69      11.6018      0.00000
     70      11.9569      0.00000
     71      12.0831      0.00000
     72      12.4139      0.00000
     73      12.4923      0.00000
     74      12.7019      0.00000
     75      12.9505      0.00000
     76      13.0965      0.00000
     77      13.3800      0.00000
     78      13.4432      0.00000
     79      13.6575      0.00000
     80      13.7528      0.00000

 k-point     3 :       0.3333    0.0000    0.0000
  band No.  band energies     occupation 
      1     -10.7619      2.00000
      2     -10.3914      2.00000
      3     -10.2339      2.00000
      4      -9.1878      2.00000
      5      -9.0038      2.00000
      6      -8.4811      2.00000
      7      -8.4218      2.00000
      8      -8.1625      2.00000
      9      -8.0637      2.00000
     10      -8.0001      2.00000
     11      -7.9542      2.00000
     12      -7.8919      2.00000
     13      -3.3478      2.00000
     14      -2.7440      2.00000
     15      -2.4310      2.00000
     16      -2.2404      2.00000
     17      -1.9265      2.00000
     18      -1.5957      2.00000
     19      -1.4841      2.00000
     20      -1.3757      2.00000
     21      -1.0992      2.00000
     22      -0.3111      2.00000
     23      -0.2518      2.00000
     24      -0.0403      2.00000
     25       0.5220      2.00000
     26       0.8707      2.00000
     27       0.9961      2.00000
     28       1.0625      2.00000
     29       1.3054      2.00000
     30       1.3712      2.00000
     31       1.7818      2.00000
     32       1.8459      2.00000
     33       2.0480      2.00000
     34       2.1162      2.00000
     35       2.2671      2.00000
     36       2.4715      2.00000
     37       2.6935      2.00000
     38       2.7263      2.00000
     39       3.1038      2.00000
     40       3.1907      2.00000
     41       3.2725      2.00000
     42       3.6071      2.00000
     43       3.6810      2.00000
     44       3.8972      2.00000
     45       4.0301      2.00000
     46       4.2709      2.00000
     47       4.4219      2.00000
     48       4.5627      2.00000
     49       4.6520      2.00000
     50       5.0769      2.00000
     51       5.2232      2.00000
     52       5.4273      2.00000
     53       5.4461      2.00000
     54       5.7050      2.00000
     55       5.9278      2.00000
     56       6.0238      2.00000
     57       6.1781      2.00000
     58       6.5146      2.00000
     59       6.6953      2.00000
     60       7.0540      2.00000
     61       7.4018      2.00000
     62       8.0954      1.99874
     63       8.4292      0.11337
     64      10.4432      0.00000
     65      10.6956      0.00000
     66      10.7826      0.00000
     67      10.9255      0.00000
     68      11.4081      0.00000
     69      11.8023      0.00000
     70      11.9748      0.00000
     71      12.1100      0.00000
     72      12.2224      0.00000
     73      12.6223      0.00000
     74      12.8793      0.00000
     75      12.9591      0.00000
     76      13.1492      0.00000
     77      13.1999      0.00000
     78      13.2849      0.00000
     79      13.4044      0.00000
     80      13.7354      0.00000

 k-point     4 :       0.5000    0.0000    0.0000
  band No.  band energies     occupation 
      1     -10.6638      2.00000
      2     -10.5183      2.00000
      3     -10.2543      2.00000
      4      -9.1667      2.00000
      5      -8.7512      2.00000
      6      -8.7430      2.00000
      7      -8.3359      2.00000
      8      -8.2347      2.00000
      9      -8.0668      2.00000
     10      -7.9899      2.00000
     11      -7.9544      2.00000
     12      -7.8891      2.00000
     13      -3.0901      2.00000
     14      -2.8451      2.00000
     15      -2.4449      2.00000
     16      -2.1943      2.00000
     17      -1.8338      2.00000
     18      -1.7892      2.00000
     19      -1.5843      2.00000
     20      -1.3944      2.00000
     21      -1.2643      2.00000
     22      -0.3423      2.00000
     23      -0.1823      2.00000
     24      -0.1472      2.00000
     25       0.6143      2.00000
     26       0.8427      2.00000
     27       0.9582      2.00000
     28       1.2330      2.00000
     29       1.4315      2.00000
     30       1.4800      2.00000
     31       1.6745      2.00000
     32       1.9016      2.00000
     33       2.0387      2.00000
     34       2.1252      2.00000
     35       2.2223      2.00000
     36       2.5209      2.00000
     37       2.5444      2.00000
     38       2.7479      2.00000
     39       3.0640      2.00000
     40       3.2490      2.00000
     41       3.4009      2.00000
     42       3.5954      2.00000
     43       3.6757      2.00000
     44       3.7992      2.00000
     45       4.0599      2.00000
     46       4.4203      2.00000
     47       4.4330      2.00000
     48       4.6801      2.00000
     49       4.7885      2.00000
     50       5.0076      2.00000
     51       5.0543      2.00000
     52       5.3639      2.00000
     53       5.4720      2.00000
     54       5.5957      2.00000
     55       5.8772      2.00000
     56       6.0472      2.00000
     57       6.0748      2.00000
     58       6.4204      2.00000
     59       6.8608      2.00000
     60       6.8836      2.00000
     61       7.4483      2.00000
     62       8.1809      1.99027
     63       8.3268      1.89485
     64      10.6056      0.00000
     65      10.6894      0.00000
     66      10.8923      0.00000
     67      11.0749      0.00000
     68      11.2382      0.00000
     69      11.9267      0.00000
     70      11.9710      0.00000
     71      11.9922      0.00000
     72      12.2820      0.00000
     73      12.6434      0.00000
     74      12.8806      0.00000
     75      12.9356      0.00000
     76      13.1122      0.00000
     77      13.1352      0.00000
     78      13.2316      0.00000
     79      13.4371      0.00000
     80      13.5350      0.00000

 k-point     5 :       0.1667    0.1667    0.0000
  band No.  band energies     occupation 
      1     -10.7923      2.00000
      2     -10.3329      2.00000
      3     -10.2387      2.00000
      4      -9.1627      2.00000
      5      -9.1000      2.00000
      6      -8.4494      2.00000
      7      -8.4166      2.00000
      8      -8.1246      2.00000
      9      -8.0746      2.00000
     10      -8.0050      2.00000
     11      -7.9528      2.00000
     12      -7.8979      2.00000
     13      -3.4273      2.00000
     14      -2.7071      2.00000
     15      -2.5076      2.00000
     16      -2.2557      2.00000
     17      -1.8216      2.00000
     18      -1.6554      2.00000
     19      -1.4270      2.00000
     20      -1.3447      2.00000
     21      -0.9523      2.00000
     22      -0.3703      2.00000
     23      -0.2726      2.00000
     24       0.0506      2.00000
     25       0.4469      2.00000
     26       0.8918      2.00000
     27       0.9281      2.00000
     28       1.1007      2.00000
     29       1.2286      2.00000
     30       1.3235      2.00000
     31       1.7564      2.00000
     32       1.8736      2.00000
     33       2.0486      2.00000
     34       2.2200      2.00000
     35       2.2432      2.00000
     36       2.4311      2.00000
     37       2.7104      2.00000
     38       2.7371      2.00000
     39       3.0693      2.00000
     40       3.1643      2.00000
     41       3.1874      2.00000
     42       3.6478      2.00000
     43       3.7031      2.00000
     44       3.9031      2.00000
     45       4.0952      2.00000
     46       4.1337      2.00000
     47       4.4296      2.00000
     48       4.5429      2.00000
     49       4.6506      2.00000
     50       5.1794      2.00000
     51       5.2138      2.00000
     52       5.4088      2.00000
     53       5.4759      2.00000
     54       5.7781      2.00000
     55       5.9041      2.00000
     56       5.9651      2.00000
     57       6.2000      2.00000
     58       6.5145      2.00000
     59       6.7278      2.00000
     60       7.1377      2.00000
     61       7.3699      2.00000
     62       8.0646      1.99969
     63       8.4693     -0.10151
     64      10.3978      0.00000
     65      10.5512      0.00000
     66      10.8183      0.00000
     67      10.8943      0.00000
     68      11.5772      0.00000
     69      11.5986      0.00000
     70      12.0016      0.00000
     71      12.1132      0.00000
     72      12.3321      0.00000
     73      12.6857      0.00000
     74      12.7487      0.00000
     75      12.9112      0.00000
     76      13.1081      0.00000
     77      13.2038      0.00000
     78      13.3056      0.00000
     79      13.5057      0.00000
     80      13.5526      0.00000

 k-point     6 :       0.3333    0.1667    0.0000
  band No.  band energies     occupation 
      1     -10.6783      2.00000
      2     -10.4779      2.00000
      3     -10.2877      2.00000
      4      -9.0959      2.00000
      5      -8.9085      2.00000
      6      -8.6571      2.00000
      7      -8.3468      2.00000
      8      -8.1860      2.00000
      9      -8.0924      2.00000
     10      -7.9903      2.00000
     11      -7.9477      2.00000
     12      -7.8988      2.00000
     13      -3.1253      2.00000
     14      -2.7259      2.00000
     15      -2.4757      2.00000
     16      -2.3040      2.00000
     17      -1.8757      2.00000
     18      -1.7316      2.00000
     19      -1.5390      2.00000
     20      -1.4085      2.00000
     21      -1.2245      2.00000
     22      -0.3336      2.00000
     23      -0.2508      2.00000
     24      -0.1268      2.00000
     25       0.5530      2.00000
     26       0.9006      2.00000
     27       0.9769      2.00000
     28       1.2165      2.00000
     29       1.4410      2.00000
     30       1.4846      2.00000
     31       1.7553      2.00000
     32       1.9010      2.00000
     33       1.9723      2.00000
     34       2.1667      2.00000
     35       2.2451      2.00000
     36       2.4202      2.00000
     37       2.5858      2.00000
     38       2.8302      2.00000
     39       3.0698      2.00000
     40       3.1341      2.00000
     41       3.3019      2.00000
     42       3.5596      2.00000
     43       3.5872      2.00000
     44       3.9585      2.00000
     45       4.1082      2.00000
     46       4.3833      2.00000
     47       4.5302      2.00000
     48       4.6734      2.00000
[...]
     33       1.9683      2.00000
     34       1.9979      2.00000
     35       2.2104      2.00000
     36       2.3730      2.00000
     37       2.4005      2.00000
     38       2.7645      2.00000
     39       2.8157      2.00000
     40       3.0249      2.00000
     41       3.3247      2.00000
     42       3.3511      2.00000
     43       3.4507      2.00000
     44       3.5067      2.00000
     45       3.8989      2.00000
     46       4.1671      2.00000
     47       4.2368      2.00000
     48       4.5439      2.00000
     49       4.6261      2.00000
     50       4.7565      2.00000
     51       5.2333      2.00000
     52       5.2370      2.00000
     53       5.8474      2.00000
     54       5.8803      2.00000
     55       6.0497      2.00000
     56       6.1432      2.00000
     57       6.7756      2.00000
     58       6.7962      2.00000
     59       6.9226      2.00000
     60       6.9598      2.00000
     61       8.2107      2.06680
     62       8.2357      2.10235
     63       8.5207      0.00770
     64       8.5246      0.00865
     65      10.8846      0.00000
     66      10.9729      0.00000
     67      11.1587      0.00000
     68      11.2129      0.00000
     69      11.9766      0.00000
     70      12.0833      0.00000
     71      12.2261      0.00000
     72      12.4426      0.00000
     73      12.6809      0.00000
     74      12.8417      0.00000
     75      12.8994      0.00000
     76      13.0050      0.00000
     77      13.2172      0.00000
     78      13.2573      0.00000
     79      13.2906      0.00000
     80      13.3873      0.00000

 k-point    43 :       0.3333    0.1667    0.5000
  band No.  band energies     occupation 
      1      -9.8767      2.00000
      2      -9.8760      2.00000
      3      -9.4984      2.00000
      4      -9.4894      2.00000
      5      -9.4307      2.00000
      6      -9.4132      2.00000
      7      -8.3556      2.00000
      8      -8.3282      2.00000
      9      -8.2752      2.00000
     10      -8.2562      2.00000
     11      -7.7518      2.00000
     12      -7.7506      2.00000
     13      -2.3562      2.00000
     14      -2.3029      2.00000
     15      -1.9066      2.00000
     16      -1.8510      2.00000
     17      -1.5496      2.00000
     18      -1.4719      2.00000
     19      -0.9270      2.00000
     20      -0.8960      2.00000
     21      -0.3679      2.00000
     22      -0.3515      2.00000
     23       0.2285      2.00000
     24       0.4905      2.00000
     25       0.5458      2.00000
     26       0.7400      2.00000
     27       0.8376      2.00000
     28       0.8541      2.00000
     29       1.1144      2.00000
     30       1.2489      2.00000
     31       1.6093      2.00000
     32       1.6557      2.00000
     33       1.7980      2.00000
     34       1.9070      2.00000
     35       2.1095      2.00000
     36       2.1254      2.00000
     37       2.3651      2.00000
     38       2.8209      2.00000
     39       3.0223      2.00000
     40       3.2241      2.00000
     41       3.3912      2.00000
     42       3.4461      2.00000
     43       3.4823      2.00000
     44       3.5990      2.00000
     45       3.9940      2.00000
     46       4.2502      2.00000
     47       4.5323      2.00000
     48       4.7328      2.00000
     49       4.9256      2.00000
     50       5.0073      2.00000
     51       5.1907      2.00000
     52       5.2636      2.00000
     53       5.5621      2.00000
     54       5.6399      2.00000
     55       6.0221      2.00000
     56       6.0758      2.00000
     57       6.5194      2.00000
     58       6.5375      2.00000
     59       6.8297      2.00000
     60       6.8639      2.00000
     61       8.3272      1.17092
     62       8.3419      0.86225
     63       8.4643     -0.05839
     64       8.4789     -0.03189
     65      10.7803      0.00000
     66      10.8499      0.00000
     67      11.1527      0.00000
     68      11.2171      0.00000
     69      11.6589      0.00000
     70      11.9008      0.00000
     71      12.2426      0.00000
     72      12.3765      0.00000
     73      12.7007      0.00000
     74      12.9197      0.00000
     75      12.9844      0.00000
     76      13.1009      0.00000
     77      13.1525      0.00000
     78      13.2825      0.00000
     79      13.4358      0.00000
     80      13.4980      0.00000

 k-point    44 :       0.3333    0.3333    0.5000
  band No.  band energies     occupation 
      1      -9.8604      2.00000
      2      -9.8604      2.00000
      3      -9.4860      2.00000
      4      -9.4860      2.00000
      5      -9.4758      2.00000
      6      -9.4409      2.00000
      7      -8.3326      2.00000
      8      -8.2845      2.00000
      9      -8.2845      2.00000
     10      -8.2677      2.00000
     11      -7.7633      2.00000
     12      -7.7633      2.00000
     13      -2.2344      2.00000
     14      -2.0299      2.00000
     15      -1.9837      2.00000
     16      -1.9837      2.00000
     17      -1.6606      2.00000
     18      -1.6606      2.00000
     19      -0.8438      2.00000
     20      -0.7761      2.00000
     21      -0.4564      2.00000
     22      -0.4564      2.00000
     23       0.3535      2.00000
     24       0.3535      2.00000
     25       0.6902      2.00000
     26       0.6902      2.00000
     27       0.8196      2.00000
     28       0.8311      2.00000
     29       1.2135      2.00000
     30       1.2135      2.00000
     31       1.6573      2.00000
     32       1.6573      2.00000
     33       1.7500      2.00000
     34       1.9553      2.00000
     35       1.9553      2.00000
     36       1.9853      2.00000
     37       2.2643      2.00000
     38       3.0134      2.00000
     39       3.0134      2.00000
     40       3.2285      2.00000
     41       3.4624      2.00000
     42       3.4624      2.00000
     43       3.6213      2.00000
     44       3.8909      2.00000
     45       3.8909      2.00000
     46       3.9824      2.00000
     47       4.7823      2.00000
     48       4.7823      2.00000
     49       4.9650      2.00000
     50       5.0841      2.00000
     51       5.0841      2.00000
     52       5.2677      2.00000
     53       5.5617      2.00000
     54       5.5617      2.00000
     55       6.0613      2.00000
     56       6.0613      2.00000
     57       6.4775      2.00000
     58       6.4775      2.00000
     59       6.7402      2.00000
     60       6.7557      2.00000
     61       8.3684      0.35558
     62       8.3751      0.25339
     63       8.4533     -0.07919
     64       8.4533     -0.07919
     65      10.8254      0.00000
     66      10.8254      0.00000
     67      11.1514      0.00000
     68      11.1514      0.00000
     69      11.4521      0.00000
     70      11.8465      0.00000
     71      12.2703      0.00000
     72      12.2703      0.00000
     73      12.8342      0.00000
     74      13.0200      0.00000
     75      13.0200      0.00000
     76      13.1868      0.00000
     77      13.1868      0.00000
     78      13.3849      0.00000
     79      13.4498      0.00000
     80      13.4502      0.00000


--------------------------------------------------------------------------------------------------------


 soft charge-density along one line, spin component           1
         0         1         2         3         4         5         6         7         8         9
 total charge-density along one line
 
 pseudopotential strength for first ion, spin component:           1
 12.373  14.828  -0.001  -0.001   0.001  -0.004  -0.003   0.003
 14.828  17.771  -0.002  -0.001   0.001  -0.005  -0.004   0.004
 -0.001  -0.002  -5.769   0.012  -0.014  -7.665   0.018  -0.023
 -0.001  -0.001   0.012  -5.780  -0.011   0.018  -7.683  -0.017
  0.001   0.001  -0.014  -0.011  -5.767  -0.023  -0.017  -7.663
 -0.004  -0.005  -7.665   0.018  -0.023  -9.462   0.028  -0.035
 -0.003  -0.004   0.018  -7.683  -0.017   0.028  -9.491  -0.026
  0.003   0.004  -0.023  -0.017  -7.663  -0.035  -0.026  -9.459
 total augmentation occupancy for first ion, spin component:           1
  7.917  -3.736   0.249   0.186  -0.181  -0.070  -0.055   0.056
 -3.736   1.893  -0.210  -0.152   0.152   0.046   0.036  -0.037
  0.249  -0.210   2.241  -0.109   0.142  -0.364   0.055  -0.068
  0.186  -0.152  -0.109   2.393   0.112   0.055  -0.419  -0.050
 -0.181   0.152   0.142   0.112   2.241  -0.068  -0.050  -0.360
 -0.070   0.046  -0.364   0.055  -0.068   0.070  -0.014   0.019
 -0.055   0.036   0.055  -0.419  -0.050  -0.014   0.085   0.012
  0.056  -0.037  -0.068  -0.050  -0.360   0.019   0.012   0.068


------------------------ aborting loop because EDIFF is reached ----------------------------------------


    CHARGE:  cpu time    0.3303: real time    0.3303
    FORLOC:  cpu time    0.0094: real time    0.0094
    FORNL :  cpu time    2.4515: real time    2.4527
    STRESS:  cpu time    7.3122: real time    7.3178
    FORCOR:  cpu time    0.0464: real time    0.0464
    FORHAR:  cpu time    0.0174: real time    0.0174
    MIXING:  cpu time    0.0011: real time    0.0011
    OFIELD:  cpu time    0.0000: real time    0.0000

  FORCE on cell =-STRESS in cart. coord.  units (eV):
  Direction    XX          YY          ZZ          XY          YZ          ZX
  --------------------------------------------------------------------------------------
  Alpha Z   149.74379   149.74379   149.74379
  Ewald   -1714.08765 -1714.08765  -922.84742    -0.00000     0.00000     0.00000
  Hartree   296.96607   296.96607   662.88803    -0.00000    -0.00000    -0.00000
  E(xc)    -481.55639  -481.55637  -479.64961     0.00000     0.00000     0.00000
  Local    -328.17320  -328.17259 -1425.19423    -0.00000     0.00000    -0.00000
  n-local   448.05838   448.17119   444.26805     0.06598     0.00550     0.20988
  augment   -76.44202   -76.44255   -75.56251     0.00000     0.00000     0.00000
  Kinetic  1738.79880  1739.77325  1670.93668    -0.05755     0.32728    -0.34159
  Fock        0.00000     0.00000     0.00000     0.00000     0.00000     0.00000
  -------------------------------------------------------------------------------------
  Total      33.85145    33.85145    24.58278     0.00000     0.00000     0.00000
  in kB     166.55366   166.55366   120.95057     0.00000     0.00000     0.00000
  external pressure =      151.35 kB  Pullay stress =        0.00 kB


 VOLUME and BASIS-vectors are now :
 -----------------------------------------------------------------------------
  energy-cutoff  :      400.00
  volume of cell :      325.64
      direct lattice vectors                 reciprocal lattice vectors
     4.186086226 -7.250514029  0.000000000     0.119443311 -0.068960628  0.000000000
     4.186086226  7.250514029  0.000000000     0.119443311  0.068960628  0.000000000
     0.000000000  0.000000000  5.364469358     0.000000000  0.000000000  0.186411727

  length of vectors
     8.372172452  8.372172452  5.364469358     0.137921256  0.137921256  0.186411727


 FORCES acting on ions
    electron-ion (+dipol)            ewald-force                    non-local-force                 convergence-correction
 -----------------------------------------------------------------------------------------------
   -.390E+02 -.115E+02 0.908E+01   0.427E+02 0.624E+01 -.127E+02   -.370E+01 0.535E+01 0.368E+01   0.299E-01 -.492E-01 0.213E-02
   0.949E+01 0.395E+02 0.908E+01   -.159E+02 -.401E+02 -.127E+02   0.648E+01 0.533E+00 0.368E+01   -.576E-01 -.125E-02 0.213E-02
   0.166E+02 0.200E+02 0.128E+02   -.181E+02 -.171E+02 -.156E+02   0.141E+01 -.301E+01 0.280E+01   0.975E-02 0.334E-01 -.997E-02
   -.390E+02 0.115E+02 0.908E+01   0.427E+02 -.624E+01 -.127E+02   -.370E+01 -.535E+01 0.368E+01   0.299E-01 0.492E-01 0.213E-02
   0.903E+01 0.244E+02 0.128E+02   -.574E+01 -.242E+02 -.156E+02   -.332E+01 -.283E+00 0.280E+01   0.240E-01 0.251E-01 -.997E-02
   0.166E+02 -.200E+02 0.128E+02   -.181E+02 0.171E+02 -.156E+02   0.141E+01 0.301E+01 0.280E+01   0.975E-02 -.334E-01 -.997E-02
   0.295E+02 -.280E+02 0.908E+01   -.267E+02 0.338E+02 -.127E+02   -.278E+01 -.588E+01 0.368E+01   0.277E-01 0.505E-01 0.213E-02
   -.257E+02 -.440E+01 0.128E+02   0.238E+02 0.711E+01 -.156E+02   0.190E+01 -.273E+01 0.280E+01   -.338E-01 0.825E-02 -.997E-02
   0.949E+01 -.395E+02 0.908E+01   -.159E+02 0.401E+02 -.127E+02   0.648E+01 -.533E+00 0.368E+01   -.576E-01 0.125E-02 0.213E-02
   0.295E+02 0.280E+02 0.908E+01   -.267E+02 -.338E+02 -.127E+02   -.278E+01 0.588E+01 0.368E+01   0.277E-01 -.505E-01 0.213E-02
   -.257E+02 0.440E+01 0.128E+02   0.238E+02 -.711E+01 -.156E+02   0.190E+01 0.273E+01 0.280E+01   -.338E-01 -.825E-02 -.997E-02
   0.903E+01 -.244E+02 0.128E+02   -.574E+01 0.242E+02 -.156E+02   -.332E+01 0.283E+00 0.280E+01   0.240E-01 -.251E-01 -.997E-02
   0.804E+02 0.139E+02 0.516E+01   -.808E+02 -.149E+02 -.545E+01   0.449E+00 0.963E+00 0.302E+00   0.208E-01 0.536E-02 -.464E-02
   -.281E+02 -.765E+02 0.516E+01   0.275E+02 0.774E+02 -.545E+01   0.609E+00 -.870E+00 0.302E+00   -.577E-02 -.207E-01 -.464E-02
   0.804E+02 -.139E+02 0.516E+01   -.808E+02 0.149E+02 -.545E+01   0.449E+00 -.963E+00 0.302E+00   0.208E-01 -.536E-02 -.464E-02
   -.522E+02 0.626E+02 0.516E+01   0.533E+02 -.626E+02 -.545E+01   -.106E+01 -.926E-01 0.302E+00   -.151E-01 0.154E-01 -.464E-02
   -.789E-06 0.214E-07 0.149E+01   0.187E-13 -.184E-11 -.110E+01   0.544E-18 0.487E-18 -.426E+00   -.144E-06 0.780E-07 0.208E-02
   -.252E+02 0.446E+02 -.228E+02   0.296E+02 -.453E+02 0.241E+02   -.441E+01 0.734E+00 -.125E+01   0.386E-02 0.559E-02 0.516E-03
   -.789E-06 -.214E-07 0.149E+01   0.497E-13 0.185E-11 -.110E+01   0.312E-17 0.144E-17 -.426E+00   -.144E-06 -.780E-07 0.208E-02
   -.310E-06 0.156E-06 -.365E+02   -.174E-11 -.830E-11 0.301E+02   -.188E-17 0.761E-17 0.635E+01   -.414E-07 -.234E-07 -.268E-04
   -.260E+02 0.441E+02 -.228E+02   0.245E+02 -.483E+02 0.241E+02   0.157E+01 0.419E+01 -.125E+01   -.677E-02 -.544E-03 0.516E-03
   -.281E+02 0.765E+02 0.516E+01   0.275E+02 -.774E+02 -.545E+01   0.609E+00 0.870E+00 0.302E+00   -.577E-02 0.207E-01 -.464E-02
   -.522E+02 -.626E+02 0.516E+01   0.533E+02 0.626E+02 -.545E+01   -.106E+01 0.926E-01 0.302E+00   -.151E-01 -.154E-01 -.464E-02
   -.310E-06 -.156E-06 -.365E+02   0.280E-11 0.852E-11 0.301E+02   0.817E-17 -.438E-17 0.635E+01   -.414E-07 0.234E-07 -.268E-04
   0.512E+02 0.474E+00 -.228E+02   -.541E+02 0.298E+01 0.241E+02   0.284E+01 -.345E+01 -.125E+01   0.291E-02 0.614E-02 0.516E-03
   0.512E+02 -.474E+00 -.228E+02   -.541E+02 -.298E+01 0.241E+02   0.284E+01 0.345E+01 -.125E+01   0.291E-02 -.614E-02 0.516E-03
   -.260E+02 -.441E+02 -.228E+02   0.245E+02 0.483E+02 0.241E+02   0.157E+01 -.419E+01 -.125E+01   -.677E-02 0.544E-03 0.516E-03
   -.252E+02 -.446E+02 -.228E+02   0.296E+02 0.453E+02 0.241E+02   -.441E+01 -.734E+00 -.125E+01   0.386E-02 -.559E-02 0.516E-03
 -----------------------------------------------------------------------------------------------
   0.151E-05 0.190E-09 -.450E+02   -.284E-13 0.782E-13 0.178E-13   0.000E+00 -.333E-15 0.451E+02   0.123E-05 0.477E-11 -.677E-01
 
 
 POSITION                                       TOTAL-FORCE (eV/Angst)
 -----------------------------------------------------------------------------------
      2.74950      4.60805      1.11323         0.016125     -0.001773      0.023824
      6.80202      2.56535      1.11323        -0.009598     -0.013078      0.023824
      5.16005     -4.27988      5.32127         0.018520      0.007659     -0.006493
      2.74950     -4.60805      3.79546         0.016125      0.001773      0.023824
      2.08567      2.32879      2.63903        -0.002627      0.019868     -0.006493
      5.16005      4.27988      2.63903         0.018520     -0.007659     -0.006493
      3.00674      0.07711      1.11323        -0.006527      0.014851      0.023824
      5.31255      0.64184      2.63903        -0.015893     -0.012209     -0.006493
      6.80202     -2.56535      3.79546        -0.009598      0.013078      0.023824
      3.00674     -0.07711      3.79546        -0.006527     -0.014851      0.023824
      5.31255     -0.64184      5.32127        -0.015893      0.012209     -0.006493
      2.08567     -2.32879      5.32127        -0.002627     -0.019868     -0.006493
      2.15152      0.62929      2.48073         0.004903     -0.005882      0.006417
      3.65531      5.07260      2.48073        -0.007545     -0.001305      0.006417
      2.15152     -0.62929      5.16296         0.004903      0.005882      0.006417
      6.75143      1.54862      2.48073         0.002642      0.007187      0.006417
      0.00000     -0.00000      5.10855        -0.000000     -0.000000     -0.036574
      2.33325      3.00631      4.22065         0.012226     -0.012941     -0.010291
      0.00000     -0.00000      2.42632        -0.000000     -0.000000     -0.036574
      4.18609     -2.41684      2.67038        -0.000000     -0.000000     -0.003797
      4.60201     -0.51750      1.53842         0.005094     -0.017059     -0.010291
      3.65531     -5.07260      5.16296        -0.007545      0.001305      0.006417
      6.75143     -1.54862      5.16296         0.002642     -0.007187      0.006417
      4.18609      2.41684      5.35262        -0.000000     -0.000000     -0.003797
      5.62300     -3.72671      1.53842        -0.017321      0.004118     -0.010291
      5.62300      3.72671      4.22065        -0.017321     -0.004118     -0.010291
      4.60201      0.51750      4.22065         0.005094      0.017059     -0.010291
      2.33325     -3.00631      1.53842         0.012226      0.012941     -0.010291
 -----------------------------------------------------------------------------------
    total drift:                                0.000003      0.000000      0.001381


--------------------------------------------------------------------------------------------------------



  FREE ENERGIE OF THE ION-ELECTRON SYSTEM (eV)
  ---------------------------------------------------
  free  energy   TOTEN  =      -200.02565988 eV

  energy  without entropy=     -200.01741135  energy(sigma->0) =     -200.02359775
 
 d Force = 0.6935673E-04[-0.831E-04, 0.222E-03]  d Energy = 0.4785763E-04 0.215E-04
 d Force = 0.7616811E-01[ 0.766E-01, 0.758E-01]  d Ewald  = 0.7616815E-01-0.317E-07


--------------------------------------------------------------------------------------------------------


    POTLOK:  cpu time    0.0420: real time    0.0420


--------------------------------------------------------------------------------------------------------




--------------------------------------------------------------------------------------------------------


  
 reached required accuracy - stopping structural energy minimisation
     LOOP+:  cpu time   25.2582: real time   25.2969
    4ORBIT:  cpu time    0.0000: real time    0.0000

 total amount of memory used by VASP MPI-rank0    65160. kBytes
=======================================================================

   base      :      30000. kBytes
   nonlr-proj:       6135. kBytes
   fftplans  :       2787. kBytes
   grid      :       4365. kBytes
   one-center:         21. kBytes
   wavefun   :      21852. kBytes
 
  
  
 General timing and accounting informations for this job:
 ========================================================
  
                  Total CPU time used (sec):      623.241
                            User time (sec):      622.216
                          System time (sec):        1.026
                         Elapsed time (sec):      624.270
  
                   Maximum memory used (kb):       84428.
                   Average memory used (kb):           0.
  
                          Minor page faults:       161218
                          Major page faults:            3
                 Voluntary context switches:        10947
