<?xml version="1.0" encoding="ISO-8859-1"?>
<modeling>
 <generator>
  <i name="program" type="string">vasp </i>
  <i name="version" type="string">5.4.4.18Apr17-6-g9f103f2a35  </i>
  <i name="subversion" type="string">(build Nov 01 2019 12:17:22) complex            parallel </i>
  <i name="platform" type="string">LinuxIFC </i>
  <i name="date" type="string">2023 05 19 </i>
  <i name="time" type="string">18:21:55 </i>
 </generator>
 <incar>
  <i type="string" name="PREC">accurate</i>
  <i type="string" name="ALGO"> Fast</i>
  <i type="int" name="IBRION">     2</i>
  <i type="int" name="NSW">   100</i>
  <i type="int" name="ISIF">     2</i>
  <i type="string" name="LREAL"> Auto</i>
  <i type="int" name="ISMEAR">     2</i>
  <i name="SIGMA">      0.10000000</i>
  <i type="logical" name="LWAVE"> F  </i>
  <i type="logical" name="LCHARG"> F  </i>
  <v type="int" name="KPOINT_BSE">    -1     0     0     0</v>
 </incar>
 <structure name="primitive_cell" >
  <crystal>
   <varray name="basis" >
    <v>       4.18608623      -7.25051403       0.00000000 </v>
    <v>       4.18608623       7.25051403       0.00000000 </v>
    <v>       0.00000000       0.00000000       5.36446936 </v>
   </varray>
   <i name="volume">    325.63698986 </i>
   <varray name="rec_basis" >
    <v>       0.11944331      -0.06896063       0.00000000 </v>
    <v>       0.11944331       0.06896063       0.00000000 </v>
    <v>       0.00000000       0.00000000       0.18641173 </v>
   </varray>
  </crystal>
  <varray name="positions" >
   <v>       0.00847736      -0.35287377       0.21326215 </v>
   <v>       0.08729345      -0.21311138       0.46674092 </v>
   <v>      -0.08729345      -0.30040483      -0.03325908 </v>
   <v>      -0.06686359       0.41763405       0.28259872 </v>
   <v>      -0.00847736      -0.36135113      -0.28673785 </v>
   <v>      -0.08582195       0.32157747      -0.00812732 </v>
   <v>       0.08582195       0.40739942       0.49187268 </v>
   <v>      -0.32157747      -0.40739942      -0.00812732 </v>
   <v>       0.06686359       0.48449764      -0.21740128 </v>
   <v>       0.32157747      -0.08582195       0.49187268 </v>
   <v>       0.33333333      -0.33333333      -0.02422298 </v>
   <v>      -0.33333333       0.33333333       0.47577702 </v>
   <v>      -0.41763405      -0.48449764       0.28259872 </v>
   <v>       0.00000000       0.00000000       0.45692726 </v>
   <v>       0.00000000       0.00000000      -0.04307274 </v>
   <v>       0.40739942       0.08582195      -0.00812732 </v>
   <v>       0.48449764       0.06686359       0.28259872 </v>
   <v>       0.41763405      -0.06686359      -0.21740128 </v>
   <v>      -0.40739942      -0.32157747       0.49187268 </v>
   <v>       0.21311138       0.30040483       0.46674092 </v>
   <v>      -0.21311138       0.08729345      -0.03325908 </v>
   <v>       0.30040483       0.21311138      -0.03325908 </v>
   <v>      -0.30040483      -0.08729345       0.46674092 </v>
   <v>      -0.48449764      -0.41763405      -0.21740128 </v>
   <v>       0.35287377       0.36135113       0.21326215 </v>
   <v>      -0.36135113      -0.00847736       0.21326215 </v>
   <v>      -0.35287377       0.00847736      -0.28673785 </v>
   <v>       0.36135113       0.35287377      -0.28673785 </v>
  </varray>
 </structure>
 <varray name="primitive_index" >
  <v type="int" >        1 </v>
  <v type="int" >       14 </v>
  <v type="int" >       23 </v>
  <v type="int" >       25 </v>
  <v type="int" >        9 </v>
  <v type="int" >        3 </v>
  <v type="int" >        5 </v>
  <v type="int" >       11 </v>
  <v type="int" >       18 </v>
  <v type="int" >        6 </v>
  <v type="int" >       24 </v>
  <v type="int" >       20 </v>
  <v type="int" >       21 </v>
  <v type="int" >       19 </v>
  <v type="int" >       17 </v>
  <v type="int" >       12 </v>
  <v type="int" >       28 </v>
  <v type="int" >       26 </v>
  <v type="int" >        8 </v>
  <v type="int" >       13 </v>
  <v type="int" >       22 </v>
  <v type="int" >       15 </v>
  <v type="int" >       16 </v>
  <v type="int" >       27 </v>
  <v type="int" >        7 </v>
  <v type="int" >        2 </v>
  <v type="int" >        4 </v>
  <v type="int" >       10 </v>
 </varray>
 <kpoints>
  <generation param="Auto">
   <i name="subdivisionlength">     45.00000000 </i>
   <v type="int" name="divisions">       6        6        8 </v>
   <v name="usershift">      0.00000000       0.00000000       0.00000000 </v>
   <v name="genvec1">      0.16666667       0.00000000       0.00000000 </v>
   <v name="genvec2">      0.00000000       0.16666667       0.00000000 </v>
   <v name="genvec3">      0.00000000       0.00000000       0.12500000 </v>
   <v name="shift">      0.00000000       0.00000000       0.00000000 </v>
  </generation>
  <varray name="kpointlist" >
   <v>       0.00000000       0.00000000       0.00000000 </v>
   <v>       0.16666667       0.00000000       0.00000000 </v>
   <v>       0.33333333       0.00000000       0.00000000 </v>
   <v>       0.50000000       0.00000000       0.00000000 </v>
   <v>       0.16666667       0.16666667       0.00000000 </v>
   <v>       0.33333333       0.16666667       0.00000000 </v>
   <v>       0.33333333       0.33333333       0.00000000 </v>
   <v>       0.00000000       0.00000000       0.12500000 </v>
   <v>       0.16666667       0.00000000       0.12500000 </v>
   <v>       0.33333333       0.00000000       0.12500000 </v>
   <v>       0.50000000       0.00000000       0.12500000 </v>
   <v>       0.16666667       0.16666667       0.12500000 </v>
   <v>       0.33333333       0.16666667       0.12500000 </v>
   <v>       0.33333333       0.33333333       0.12500000 </v>
   <v>      -0.16666667       0.33333333       0.12500000 </v>
   <v>      -0.33333333       0.50000000       0.12500000 </v>
   <v>      -0.33333333      -0.33333333       0.12500000 </v>
   <v>       0.00000000       0.00000000       0.25000000 </v>
   <v>       0.16666667       0.00000000       0.25000000 </v>
   <v>       0.33333333       0.00000000       0.25000000 </v>
   <v>       0.50000000       0.00000000       0.25000000 </v>
   <v>       0.16666667       0.16666667       0.25000000 </v>
   <v>       0.33333333       0.16666667       0.25000000 </v>
   <v>       0.33333333       0.33333333       0.25000000 </v>
   <v>      -0.16666667       0.33333333       0.25000000 </v>
   <v>      -0.33333333       0.50000000       0.25000000 </v>
   <v>      -0.33333333      -0.33333333       0.25000000 </v>
   <v>       0.00000000       0.00000000       0.37500000 </v>
   <v>       0.16666667       0.00000000       0.37500000 </v>
   <v>       0.33333333       0.00000000       0.37500000 </v>
   <v>       0.50000000       0.00000000       0.37500000 </v>
   <v>       0.16666667       0.16666667       0.37500000 </v>
   <v>       0.33333333       0.16666667       0.37500000 </v>
   <v>       0.33333333       0.33333333       0.37500000 </v>
   <v>      -0.16666667       0.33333333       0.37500000 </v>
   <v>      -0.33333333       0.50000000       0.37500000 </v>
   <v>      -0.33333333      -0.33333333       0.37500000 </v>
   <v>       0.00000000       0.00000000       0.50000000 </v>
   <v>       0.16666667       0.00000000       0.50000000 </v>
   <v>       0.33333333       0.00000000       0.50000000 </v>
   <v>       0.50000000       0.00000000       0.50000000 </v>
   <v>       0.16666667       0.16666667       0.50000000 </v>
   <v>       0.33333333       0.16666667       0.50000000 </v>
   <v>       0.33333333       0.33333333       0.50000000 </v>
  </varray>
  <varray name="weights" >
   <v>       0.00347222 </v>
   <v>       0.02083333 </v>
   <v>       0.02083333 </v>
   <v>       0.01041667 </v>
   <v>       0.02083333 </v>
   <v>       0.04166667 </v>
   <v>       0.00694444 </v>
   <v>       0.00694444 </v>
   <v>       0.04166667 </v>
   <v>       0.04166667 </v>
   <v>       0.02083333 </v>
   <v>       0.02083333 </v>
   <v>       0.04166667 </v>
   <v>       0.00694444 </v>
   <v>       0.02083333 </v>
   <v>       0.04166667 </v>
   <v>       0.00694444 </v>
   <v>       0.00694444 </v>
   <v>       0.04166667 </v>
   <v>       0.04166667 </v>
   <v>       0.02083333 </v>
   <v>       0.02083333 </v>
   <v>       0.04166667 </v>
   <v>       0.00694444 </v>
   <v>       0.02083333 </v>
   <v>       0.04166667 </v>
   <v>       0.00694444 </v>
   <v>       0.00694444 </v>
   <v>       0.04166667 </v>
   <v>       0.04166667 </v>
   <v>       0.02083333 </v>
   <v>       0.02083333 </v>
   <v>       0.04166667 </v>
   <v>       0.00694444 </v>
   <v>       0.02083333 </v>
   <v>       0.04166667 </v>
   <v>       0.00694444 </v>
   <v>       0.00347222 </v>
   <v>       0.02083333 </v>
   <v>       0.02083333 </v>
   <v>       0.01041667 </v>
   <v>       0.02083333 </v>
   <v>       0.04166667 </v>
   <v>       0.00694444 </v>
  </varray>
 </kpoints>
 <parameters>
  <separator name="general" >
   <i type="string" name="SYSTEM">unknown system</i>
   <i type="logical" name="LCOMPAT"> F  </i>
  </separator>
  <separator name="electronic" >
   <i type="string" name="PREC">accura</i>
   <i name="ENMAX">    400.00000000</i>
   <i name="ENAUG">    627.11200000</i>
   <i name="EDIFF">      0.00010000</i>
   <i type="int" name="IALGO">    68</i>
   <i type="int" name="IWAVPR">    11</i>
   <i type="int" name="NBANDS">    80</i>
   <i name="NELECT">    124.00000000</i>
   <i type="int" name="TURBO">     0</i>
   <i type="int" name="IRESTART">     0</i>
   <i type="int" name="NREBOOT">     0</i>
   <i type="int" name="NMIN">     0</i>
   <i name="EREF">      0.00000000</i>
   <separator name="electronic smearing" >
    <i type="int" name="ISMEAR">     2</i>
    <i name="SIGMA">      0.10000000</i>
    <i name="KSPACING">      0.50000000</i>
    <i type="logical" name="KGAMMA"> T  </i>
   </separator>
   <separator name="electronic projectors" >
    <i type="logical" name="LREAL"> T  </i>
    <v name="ROPT">     -0.00025000     -0.00025000</v>
    <i type="int" name="LMAXPAW">  -100</i>
    <i type="int" name="LMAXMIX">     2</i>
    <i type="logical" name="NLSPLINE"> F  </i>
   </separator>
   <separator name="electronic startup" >
    <i type="int" name="ISTART">     0</i>
    <i type="int" name="ICHARG">     2</i>
    <i type="int" name="INIWAV">     1</i>
   </separator>
   <separator name="electronic spin" >
    <i type="int" name="ISPIN">     1</i>
    <i type="logical" name="LNONCOLLINEAR"> F  </i>
    <v name="MAGMOM">      1.00000000      1.00000000      1.00000000      1.00000000      1.00000000      1.00000000      1.00000000      1.00000000      1.00000000      1.00000000      1.00000000      1.00000000      1.00000000      1.00000000      1.00000000      1.00000000      1.00000000      1.00000000      1.00000000      1.00000000
      1.00000000      1.00000000      1.00000000      1.00000000      1.00000000      1.00000000      1.00000000      1.00000000</v>
    <i name="NUPDOWN">     -1.00000000</i>
    <i type="logical" name="LSORBIT"> F  </i>
    <v name="SAXIS">      0.00000000      0.00000000      1.00000000</v>
    <i type="logical" name="LSPIRAL"> F  </i>
    <v name="QSPIRAL">      0.00000000      0.00000000      0.00000000</v>
    <i type="logical" name="LZEROZ"> F  </i>
   </separator>
   <separator name="electronic exchange-correlation" >
    <i type="logical" name="LASPH"> F  </i>
    <i type="logical" name="LMETAGGA"> F  </i>
   </separator>
   <separator name="electronic convergence" >
    <i type="int" name="NELM">    60</i>
    <i type="int" name="NELMDL">    -5</i>
    <i type="int" name="NELMIN">     2</i>
    <i name="ENINI">    400.00000000</i>
    <separator name="electronic convergence detail" >
     <i type="logical" name="LDIAG"> T  </i>
     <i type="logical" name="LSUBROT"> F  </i>
     <i name="WEIMIN">      0.00100000</i>
     <i name="EBREAK">      0.00000031</i>
     <i name="DEPER">      0.30000000</i>
     <i type="int" name="NRMM">     4</i>
     <i name="TIME">      0.40000000</i>
    </separator>
   </separator>
   <separator name="electronic mixer" >
    <i name="AMIX">      0.40000000</i>
    <i name="BMIX">      1.00000000</i>
    <i name="AMIN">      0.10000000</i>
    <i name="AMIX_MAG">      1.60000000</i>
    <i name="BMIX_MAG">      1.00000000</i>
    <separator name="electronic mixer details" >
     <i type="int" name="IMIX">     4</i>
     <i type="logical" name="MIXFIRST"> F  </i>
     <i type="int" name="MAXMIX">   -45</i>
     <i name="WC">    100.00000000</i>
     <i type="int" name="INIMIX">     1</i>
     <i type="int" name="MIXPRE">     1</i>
     <i type="int" name="MREMOVE">     5</i>
    </separator>
   </separator>
   <separator name="electronic dipolcorrection" >
    <i type="logical" name="LDIPOL"> F  </i>
    <i type="logical" name="LMONO"> F  </i>
    <i type="int" name="IDIPOL">     0</i>
    <i name="EPSILON">      1.00000000</i>
    <v name="DIPOL">   -100.00000000   -100.00000000   -100.00000000</v>
    <i name="EFIELD">      0.00000000</i>
   </separator>
  </separator>
  <separator name="grids" >
   <i type="int" name="NGX">    56</i>
   <i type="int" name="NGY">    56</i>
   <i type="int" name="NGZ">    36</i>
   <i type="int" name="NGXF">   112</i>
   <i type="int" name="NGYF">   112</i>
   <i type="int" name="NGZF">    72</i>
   <i type="logical" name="ADDGRID"> F  </i>
  </separator>
  <separator name="ionic" >
   <i type="int" name="NSW">   100</i>
   <i type="int" name="IBRION">     2</i>
   <i type="int" name="MDALGO">     0</i>
   <i type="int" name="ISIF">     2</i>
   <i name="PSTRESS">      0.00000000</i>
   <i name="EDIFFG">      0.00100000</i>
   <i type="int" name="NFREE">     1</i>
   <i name="POTIM">      0.50000000</i>
   <i name="SMASS">     -3.00000000</i>
   <i name="SCALEE">      1.00000000</i>
  </separator>
  <separator name="ionic md" >
   <i name="TEBEG">      0.00010000</i>
   <i name="TEEND">      0.00010000</i>
   <i type="int" name="NBLOCK">     1</i>
   <i type="int" name="KBLOCK">   100</i>
   <i type="int" name="NPACO">   256</i>
   <i name="APACO">     16.00000000</i>
  </separator>
  <separator name="symmetry" >
   <i type="int" name="ISYM">     2</i>
   <i name="SYMPREC">      0.00001000</i>
  </separator>
  <separator name="dos" >
   <i type="int" name="LORBIT">     0</i>
   <v name="RWIGS">     -1.00000000     -1.00000000</v>
   <i type="int" name="NEDOS">   301</i>
   <i name="EMIN">     10.00000000</i>
   <i name="EMAX">    -10.00000000</i>
   <i name="EFERMI">      0.00000000</i>
  </separator>
  <separator name="writing" >
   <i type="int" name="NWRITE">     2</i>
   <i type="logical" name="LWAVE"> F  </i>
   <i type="logical" name="LDOWNSAMPLE"> F  </i>
   <i type="logical" name="LCHARG"> F  </i>
   <i type="logical" name="LPARD"> F  </i>
   <i type="logical" name="LVTOT"> F  </i>
   <i type="logical" name="LVHAR"> F  </i>
   <i type="logical" name="LELF"> F  </i>
   <i type="logical" name="LOPTICS"> F  </i>
   <v name="STM">      0.00000000      0.00000000      0.00000000      0.00000000      0.00000000      0.00000000      0.00000000</v>
  </separator>
  <separator name="performance" >
   <i type="int" name="NPAR">     4</i>
   <i type="int" name="NSIM">     4</i>
   <i type="int" name="NBLK">    -1</i>
   <i type="logical" name="LPLANE"> T  </i>
   <i type="logical" name="LSCALAPACK"> F  </i>
   <i type="logical" name="LSCAAWARE"> F  </i>
   <i type="logical" name="LSCALU"> F  </i>
   <i type="logical" name="LASYNC"> F  </i>
   <i type="logical" name="LORBITALREAL"> F  </i>
  </separator>
  <separator name="miscellaneous" >
   <i type="int" name="IDIOT">     3</i>
   <i type="int" name="ISPECIAL">     0</i>
   <i type="logical" name="LMUSIC"> F  </i>
   <v name="POMASS">     14.00100000     28.08500000</v>
   <v name="DARWINR">      0.00000000      0.00000000</v>
   <v name="DARWINV">      1.00000000      1.00000000</v>
   <i type="logical" name="LCORR"> T  </i>
  </separator>
  <i type="logical" name="GGA_COMPAT"> T  </i>
  <i type="logical" name="LBERRY"> F  </i>
  <i type="int" name="ICORELEVEL">     0</i>
  <i type="logical" name="LDAU"> F  </i>
  <i type="int" name="I_CONSTRAINED_M">     0</i>
  <separator name="electronic exchange-correlation" >
   <i type="string" name="GGA">--</i>
   <i type="int" name="VOSKOWN">     0</i>
   <i type="logical" name="LHFCALC"> F  </i>
   <i type="string" name="PRECFOCK"></i>
   <i type="logical" name="LSYMGRAD"> F  </i>
   <i type="logical" name="LHFONE"> F  </i>
   <i type="logical" name="LRHFCALC"> F  </i>
   <i type="logical" name="LTHOMAS"> F  </i>
   <i type="logical" name="LMODELHF"> F  </i>
   <i name="ENCUT4O">     -1.00000000</i>
   <i type="int" name="EXXOEP">     0</i>
   <i type="int" name="FOURORBIT">     0</i>
   <i name="AEXX">      0.00000000</i>
   <i name="HFALPHA">      0.00000000</i>
   <i name="MCALPHA">      0.00000000</i>
   <i name="ALDAX">      1.00000000</i>
   <i name="AGGAX">      1.00000000</i>
   <i name="ALDAC">      1.00000000</i>
   <i name="AGGAC">      1.00000000</i>
   <i type="int" name="NKREDX">     1</i>
   <i type="int" name="NKREDY">     1</i>
   <i type="int" name="NKREDZ">     1</i>
   <i type="logical" name="SHIFTRED"> F  </i>
   <i type="logical" name="ODDONLY"> F  </i>
   <i type="logical" name="EVENONLY"> F  </i>
   <i type="int" name="LMAXFOCK">     0</i>
   <i type="int" name="NMAXFOCKAE">     0</i>
   <i type="logical" name="LFOCKAEDFT"> F  </i>
   <i name="HFSCREEN">      0.00000000</i>
   <i name="HFSCREENC">      0.00000000</i>
   <i type="int" name="NBANDSGWLOW">     0</i>
  </separator>
  <separator name="vdW DFT" >
   <i type="logical" name="LUSE_VDW"> F  </i>
   <i name="Zab_VDW">     -0.84910000</i>
   <i name="PARAM1">      0.12340000</i>
   <i name="PARAM2">      1.00000000</i>
   <i name="PARAM3">      0.00000000</i>
  </separator>
  <separator name="model GW" >
   <i type="int" name="MODEL_GW">     0</i>
   <i name="MODEL_EPS0">      6.97793550</i>
   <i name="MODEL_ALPHA">      1.00000000</i>
  </separator>
  <separator name="linear response parameters" >
   <i type="logical" name="LEPSILON"> F  </i>
   <i type="logical" name="LRPA"> F  </i>
   <i type="logical" name="LNABLA"> F  </i>
   <i type="logical" name="LVEL"> F  </i>
   <i type="int" name="KINTER">     0</i>
   <i name="CSHIFT">      0.10000000</i>
   <i name="OMEGAMAX">     -1.00000000</i>
   <i name="DEG_THRESHOLD">      0.00200000</i>
   <i name="RTIME">     -0.10000000</i>
   <i name="WPLASMAI">      0.00000000</i>
   <v name="DFIELD">      0.00000000      0.00000000      0.00000000</v>
   <v name="WPLASMA">      0.00000000      0.00000000      0.00000000      0.00000000      0.00000000      0.00000000      0.00000000      0.00000000      0.00000000</v>
  </separator>
  <separator name="orbital magnetization" >
   <i type="logical" name="NUCIND"> F  </i>
   <v name="MAGPOS">      0.00000000      0.00000000      0.00000000</v>
   <i type="logical" name="LNICSALL"> T  </i>
   <i type="logical" name="ORBITALMAG"> F  </i>
   <i type="logical" name="LMAGBLOCH"> F  </i>
   <i type="logical" name="LCHIMAG"> F  </i>
   <i type="logical" name="LGAUGE"> T  </i>
   <i type="int" name="MAGATOM">     0</i>
   <v name="MAGDIPOL">      0.00000000      0.00000000      0.00000000</v>
   <v name="AVECCONST">      0.00000000      0.00000000      0.00000000</v>
  </separator>
  <separator name="response functions" >
   <i type="logical" name="LADDER"> F  </i>
   <i type="logical" name="LRPAFORCE"> F  </i>
   <i type="logical" name="LFXC"> F  </i>
   <i type="logical" name="LHARTREE"> T  </i>
   <i type="int" name="IBSE">     0</i>
   <v type="int" name="KPOINT">    -1     0     0     0</v>
   <i type="logical" name="LTCTE"> F  </i>
   <i type="logical" name="LTETE"> F  </i>
   <i type="logical" name="LTRIPLET"> F  </i>
   <i type="logical" name="LFXCEPS"> F  </i>
   <i type="logical" name="LFXHEG"> F  </i>
   <i type="int" name="NATURALO">     2</i>
   <i type="logical" name="L2ORDER"> F  </i>
   <i type="logical" name="LMP2LT"> F  </i>
   <i type="logical" name="LUSEW"> F  </i>
   <i name="ENCUTGW">     -2.00000000</i>
   <i name="ENCUTGWSOFT">     -2.00000000</i>
   <i name="ENCUTLF">     -1.00000000</i>
   <i type="int" name="LMAXMP2">    -1</i>
   <i name="SCISSOR">      0.00000000</i>
   <i type="int" name="NOMEGA">     0</i>
   <i type="int" name="NOMEGAR">     0</i>
   <i type="int" name="NBANDSGW">    -1</i>
   <i type="int" name="NBANDSO">    -1</i>
   <i type="int" name="NBANDSV">    -1</i>
   <i type="int" name="NELM">     1</i>
   <i type="int" name="NELMHF">     1</i>
   <i type="int" name="DIM">     3</i>
   <i type="int" name="ANTIRES">     0</i>
   <i name="OMEGAMAX">    -30.00000000</i>
   <i name="OMEGAMIN">    -30.00000000</i>
   <i name="OMEGATL">   -200.00000000</i>
   <i type="int" name="OMEGAGRID">   140</i>
   <i name="CSHIFT">     -0.10000000</i>
   <i type="logical" name="SELFENERGY"> F  </i>
   <i type="logical" name="LSPECTRAL"> F  </i>
   <i type="logical" name="LSPECTRALGW"> F  </i>
   <i type="logical" name="LSINGLES"> F  </i>
   <i type="logical" name="LFERMIGW"> F  </i>
   <i type="logical" name="ODDONLYGW"> F  </i>
   <i type="logical" name="EVENONLYGW"> F  </i>
   <i type="int" name="NKREDLFX">     1</i>
   <i type="int" name="NKREDLFY">     1</i>
   <i type="int" name="NKREDLFZ">     1</i>
   <i type="int" name="MAXMEM">  2800</i>
   <i type="int" name="TELESCOPE">     0</i>
   <i type="int" name="TAUPAR">     1</i>
   <i type="int" name="OMEGAPAR">    -1</i>
   <i name="LAMBDA">      1.00000000</i>
  </separator>
  <separator name="External order field" >
   <i name="OFIELD_KAPPA">      0.00000000</i>
   <v name="OFIELD_K">      0.00000000      0.00000000      0.00000000</v>
   <i name="OFIELD_Q6_NEAR">      0.00000000</i>
   <i name="OFIELD_Q6_FAR">      0.00000000</i>
   <i name="OFIELD_A">      0.00000000</i>
  </separator>
 </parameters>
 <atominfo>
  <atoms>      28 </atoms>
  <types>       2 </types>
  <array name="atoms" >
   <dimension dim="1">ion</dimension>
   <field type="string">element</field>
   <field type="int">atomtype</field>
   <set>
    <rc><c>N </c><c>   1</c></rc>
    <rc><c>N </c><c>   1</c></rc>
    <rc><c>N </c><c>   1</c></rc>
    <rc><c>N </c><c>   1</c></rc>
    <rc><c>N </c><c>   1</c></rc>
    <rc><c>N </c><c>   1</c></rc>
    <rc><c>N </c><c>   1</c></rc>
    <rc><c>N </c><c>   1</c></rc>
    <rc><c>N </c><c>   1</c></rc>
    <rc><c>N </c><c>   1</c></rc>
    <rc><c>N </c><c>   1</c></rc>
    <rc><c>N </c><c>   1</c></rc>
    <rc><c>Si</c><c>   2</c></rc>
    <rc><c>Si</c><c>   2</c></rc>
    <rc><c>Si</c><c>   2</c></rc>
    <rc><c>Si</c><c>   2</c></rc>
    <rc><c>Si</c><c>   2</c></rc>
    <rc><c>Si</c><c>   2</c></rc>
    <rc><c>Si</c><c>   2</c></rc>
    <rc><c>Si</c><c>   2</c></rc>
    <rc><c>Si</c><c>   2</c></rc>
    <rc><c>Si</c><c>   2</c></rc>
    <rc><c>Si</c><c>   2</c></rc>
    <rc><c>Si</c><c>   2</c></rc>
    <rc><c>Si</c><c>   2</c></rc>
    <rc><c>Si</c><c>   2</c></rc>
    <rc><c>Si</c><c>   2</c></rc>
    <rc><c>Si</c><c>   2</c></rc>
   </set>
  </array>
  <array name="atomtypes" >
   <dimension dim="1">type</dimension>
   <field type="int">atomspertype</field>
   <field type="string">element</field>
   <field>mass</field>
   <field>valence</field>
   <field type="string">pseudopotential</field>
   <set>
    <rc><c>  12</c><c>N </c><c>     14.00100000</c><c>      5.00000000</c><c>  PAW_PBE N 08Apr2002                   </c></rc>
    <rc><c>  16</c><c>Si</c><c>     28.08500000</c><c>      4.00000000</c><c>  PAW_PBE Si 05Jan2001                  </c></rc>
   </set>
  </array>
 </atominfo>
 <structure name="initialpos" >
  <crystal>
   <varray name="basis" >
    <v>       4.18608623      -7.25051403       0.00000000 </v>
    <v>       4.18608623       7.25051403       0.00000000 </v>
    <v>       0.00000000       0.00000000       5.36446936 </v>
   </varray>
   <i name="volume">    325.63698986 </i>
   <varray name="rec_basis" >
    <v>       0.11944331      -0.06896063       0.00000000 </v>
    <v>       0.11944331       0.06896063       0.00000000 </v>
    <v>       0.00000000       0.00000000       0.18641173 </v>
   </varray>
  </crystal>
  <varray name="positions" >
   <v>       0.00847736       0.64712623       0.21326215 </v>
   <v>       0.63864887       0.99152264       0.21326215 </v>
   <v>       0.91417805       0.32157747       0.99187268 </v>
   <v>       0.64712623       0.00847736       0.71326215 </v>
   <v>       0.08582195       0.40739942       0.49187268 </v>
   <v>       0.32157747       0.91417805       0.49187268 </v>
   <v>       0.35287377       0.36135113       0.21326215 </v>
   <v>       0.59260058       0.67842253       0.49187268 </v>
   <v>       0.99152264       0.63864887       0.71326215 </v>
   <v>       0.36135113       0.35287377       0.71326215 </v>
   <v>       0.67842253       0.59260058       0.99187268 </v>
   <v>       0.40739942       0.08582195       0.99187268 </v>
   <v>       0.21311138       0.30040483       0.46674092 </v>
   <v>       0.08729345       0.78688862       0.46674092 </v>
   <v>       0.30040483       0.21311138       0.96674092 </v>
   <v>       0.69959517       0.91270655       0.46674092 </v>
   <v>       0.00000000       0.00000000       0.95692726 </v>
   <v>       0.06686359       0.48449764       0.78259872 </v>
   <v>       0.00000000       0.00000000       0.45692726 </v>
   <v>       0.66666667       0.33333333       0.47577702 </v>
   <v>       0.58236595       0.51550236       0.28259872 </v>
   <v>       0.78688862       0.08729345       0.96674092 </v>
   <v>       0.91270655       0.69959517       0.96674092 </v>
   <v>       0.33333333       0.66666667       0.97577702 </v>
   <v>       0.93313641       0.41763405       0.28259872 </v>
   <v>       0.41763405       0.93313641       0.78259872 </v>
   <v>       0.51550236       0.58236595       0.78259872 </v>
   <v>       0.48449764       0.06686359       0.28259872 </v>
  </varray>
 </structure>
 <calculation>
  <scstep>
   <time name="dav">    8.28    8.28</time>
   <time name="total">    8.33    8.34</time>
   <energy>
    <i name="alphaZ">    149.74378846 </i>
    <i name="ewald">  -4327.58211608 </i>
    <i name="hartreedc">  -1043.41646813 </i>
    <i name="XCdc">    103.25334394 </i>
    <i name="pawpsdc">   3869.17357318 </i>
    <i name="pawaedc">  -3601.97287308 </i>
    <i name="eentropy">     -0.00199054 </i>
    <i name="bandstr">    507.59118121 </i>
    <i name="atom">   4822.75196862 </i>
    <i name="e_fr_energy">    479.54040759 </i>
    <i name="e_wo_entrp">    479.54239813 </i>
    <i name="e_0_energy">    479.54090523 </i>
   </energy>
  </scstep>
  <scstep>
   <time name="dav">    9.76    9.77</time>
   <time name="total">    9.77    9.77</time>
   <energy>
    <i name="e_fr_energy">   -176.63604056 </i>
    <i name="e_wo_entrp">   -176.63336423 </i>
    <i name="e_0_energy">   -176.63537148 </i>
   </energy>
  </scstep>
  <scstep>
   <time name="dav">    9.50    9.50</time>
   <time name="total">    9.51    9.51</time>
   <energy>
    <i name="e_fr_energy">   -225.45647807 </i>
    <i name="e_wo_entrp">   -225.43455672 </i>
    <i name="e_0_energy">   -225.45099774 </i>
   </energy>
  </scstep>
  <scstep>
   <time name="dav">    9.72    9.72</time>
   <time name="total">    9.73    9.73</time>
   <energy>
    <i name="e_fr_energy">   -226.49276178 </i>
    <i name="e_wo_entrp">   -226.46760455 </i>
    <i name="e_0_energy">   -226.48647248 </i>
   </energy>
  </scstep>
  <scstep>
   <time name="dav">    9.61    9.61</time>
   <time name="total">    9.94    9.94</time>
   <energy>
    <i name="e_fr_energy">   -226.51636204 </i>
    <i name="e_wo_entrp">   -226.49116150 </i>
    <i name="e_0_energy">   -226.51006190 </i>
   </energy>
  </scstep>
  <scstep>
   <time name="diag">    0.94    0.94</time>
   <time name="diis">    5.19    5.20</time>
   <time name="orth">    0.09    0.09</time>
   <time name="total">    6.60    6.60</time>
   <energy>
    <i name="e_fr_energy">   -200.76152005 </i>
    <i name="e_wo_entrp">   -200.75821094 </i>
    <i name="e_0_energy">   -200.76069277 </i>
   </energy>
  </scstep>
  <scstep>
   <time name="diag">    0.94    0.94</time>
   <time name="diis">    5.29    5.30</time>
   <time name="orth">    0.09    0.09</time>
   <time name="total">    6.70    6.71</time>
   <energy>
    <i name="e_fr_energy">   -200.10629724 </i>
    <i name="e_wo_entrp">   -200.09877414 </i>
    <i name="e_0_energy">   -200.10441646 </i>
   </energy>
  </scstep>
  <scstep>
   <time name="diag">    0.95    0.95</time>
   <time name="diis">    5.27    5.27</time>
   <time name="orth">    0.09    0.09</time>
   <time name="total">    6.68    6.68</time>
   <energy>
    <i name="e_fr_energy">   -199.90850003 </i>
    <i name="e_wo_entrp">   -199.90584495 </i>
    <i name="e_0_energy">   -199.90783626 </i>
   </energy>
  </scstep>
  <scstep>
   <time name="diag">    0.95    0.95</time>
   <time name="diis">    5.23    5.23</time>
   <time name="orth">    0.09    0.09</time>
   <time name="total">    6.64    6.64</time>
   <energy>
    <i name="e_fr_energy">   -199.88791684 </i>
    <i name="e_wo_entrp">   -199.87976295 </i>
    <i name="e_0_energy">   -199.88587836 </i>
   </energy>
  </scstep>
  <scstep>
   <time name="diag">    0.94    0.94</time>
   <time name="diis">    5.19    5.19</time>
   <time name="orth">    0.09    0.09</time>
   <time name="total">    6.60    6.60</time>
   <energy>
    <i name="e_fr_energy">   -199.88182513 </i>
    <i name="e_wo_entrp">   -199.87513285 </i>
    <i name="e_0_energy">   -199.88015206 </i>
   </energy>
  </scstep>
  <scstep>
   <time name="diag">    0.94    0.95</time>
   <time name="diis">    5.22    5.22</time>
   <time name="orth">    0.09    0.09</time>
   <time name="total">    6.63    6.63</time>
   <energy>
    <i name="e_fr_energy">   -199.87999948 </i>
    <i name="e_wo_entrp">   -199.87210696 </i>
    <i name="e_0_energy">   -199.87802635 </i>
   </energy>
  </scstep>
  <scstep>
   <time name="diag">    0.95    0.95</time>
   <time name="diis">    5.25    5.25</time>
   <time name="orth">    0.09    0.09</time>
   <time name="total">    6.66    6.66</time>
   <energy>
    <i name="e_fr_energy">   -199.87990764 </i>
    <i name="e_wo_entrp">   -199.87236523 </i>
    <i name="e_0_energy">   -199.87802204 </i>
   </energy>
  </scstep>
  <scstep>
   <time name="diag">    0.95    0.95</time>
   <time name="diis">    3.88    3.88</time>
   <time name="orth">    0.09    0.09</time>
   <time name="total">    5.30    5.30</time>
   <energy>
    <i name="e_fr_energy">   -199.87976501 </i>
    <i name="e_wo_entrp">   -199.87195741 </i>
    <i name="e_0_energy">   -199.87781311 </i>
   </energy>
  </scstep>
  <scstep>
   <time name="diag">    0.94    0.94</time>
   <time name="diis">    3.35    3.35</time>
   <time name="orth">    0.09    0.09</time>
   <time name="total">    4.43    4.43</time>
   <energy>
    <i name="alphaZ">    149.74378846 </i>
    <i name="ewald">  -4327.58211608 </i>
    <i name="hartreedc">  -1271.68693321 </i>
    <i name="XCdc">    121.69199100 </i>
    <i name="pawpsdc">  20441.40237654 </i>
    <i name="pawaedc"> -20179.83444322 </i>
    <i name="eentropy">     -0.00778792 </i>
    <i name="bandstr">     43.64140485 </i>
    <i name="atom">   4822.75196862 </i>
    <i name="e_fr_energy">   -199.87975095 </i>
    <i name="e_wo_entrp">   -199.87196303 </i>
    <i name="e_0_energy">   -199.87780397 </i>
   </energy>
  </scstep>
  <structure>
   <crystal>
    <varray name="basis" >
     <v>       4.18608623      -7.25051403       0.00000000 </v>
     <v>       4.18608623       7.25051403       0.00000000 </v>
     <v>       0.00000000       0.00000000       5.36446936 </v>
    </varray>
    <i name="volume">    325.63698986 </i>
    <varray name="rec_basis" >
     <v>       0.11944331      -0.06896063       0.00000000 </v>
     <v>       0.11944331       0.06896063       0.00000000 </v>
     <v>       0.00000000       0.00000000       0.18641173 </v>
    </varray>
   </crystal>
   <varray name="positions" >
    <v>       0.00847736       0.64712623       0.21326215 </v>
    <v>       0.63864887       0.99152264       0.21326215 </v>
    <v>       0.91417805       0.32157747       0.99187268 </v>
    <v>       0.64712623       0.00847736       0.71326215 </v>
    <v>       0.08582195       0.40739942       0.49187268 </v>
    <v>       0.32157747       0.91417805       0.49187268 </v>
    <v>       0.35287377       0.36135113       0.21326215 </v>
    <v>       0.59260058       0.67842253       0.49187268 </v>
    <v>       0.99152264       0.63864887       0.71326215 </v>
    <v>       0.36135113       0.35287377       0.71326215 </v>
    <v>       0.67842253       0.59260058       0.99187268 </v>
    <v>       0.40739942       0.08582195       0.99187268 </v>
    <v>       0.21311138       0.30040483       0.46674092 </v>
    <v>       0.08729345       0.78688862       0.46674092 </v>
    <v>       0.30040483       0.21311138       0.96674092 </v>
    <v>       0.69959517       0.91270655       0.46674092 </v>
    <v>       0.00000000       0.00000000       0.95692726 </v>
    <v>       0.06686359       0.48449764       0.78259872 </v>
    <v>       0.00000000       0.00000000       0.45692726 </v>
    <v>       0.66666667       0.33333333       0.47577702 </v>
    <v>       0.58236595       0.51550236       0.28259872 </v>
    <v>       0.78688862       0.08729345       0.96674092 </v>
    <v>       0.91270655       0.69959517       0.96674092 </v>
    <v>       0.33333333       0.66666667       0.97577702 </v>
    <v>       0.93313641       0.41763405       0.28259872 </v>
    <v>       0.41763405       0.93313641       0.78259872 </v>
    <v>       0.51550236       0.58236595       0.78259872 </v>
    <v>       0.48449764       0.06686359       0.28259872 </v>
   </varray>
  </structure>
  <varray name="forces" >
   <v>       0.16996080      -0.13123618      -0.20987239 </v>
   <v>      -0.19863427      -0.08157228      -0.20987239 </v>
   <v>      -0.07762864       0.10143605      -0.12802270 </v>
   <v>       0.16996080       0.13123618      -0.20987239 </v>
   <v>       0.12666052      -0.01651034      -0.12802270 </v>
   <v>      -0.07762864      -0.10143605      -0.12802270 </v>
   <v>       0.02867346       0.21280846      -0.20987239 </v>
   <v>      -0.04903188       0.11794640      -0.12802270 </v>
   <v>      -0.19863427       0.08157228      -0.20987239 </v>
   <v>       0.02867346      -0.21280846      -0.20987239 </v>
   <v>      -0.04903188      -0.11794640      -0.12802270 </v>
   <v>       0.12666052       0.01651034      -0.12802270 </v>
   <v>      -0.30013740      -0.10970472      -0.01214377 </v>
   <v>       0.05506162       0.31477897      -0.01214377 </v>
   <v>      -0.30013740       0.10970472      -0.01214377 </v>
   <v>       0.24507578      -0.20507425      -0.01214377 </v>
   <v>       0.00000000      -0.00000000      -0.02164308 </v>
   <v>       0.11586805      -0.23674975       0.16000776 </v>
   <v>       0.00000000      -0.00000000      -0.02164308 </v>
   <v>       0.00000000      -0.00000000       0.59173638 </v>
   <v>       0.14709728      -0.21871955       0.16000776 </v>
   <v>       0.05506162      -0.31477897      -0.01214377 </v>
   <v>       0.24507578       0.20507425      -0.01214377 </v>
   <v>       0.00000000      -0.00000000       0.59173638 </v>
   <v>      -0.26296533      -0.01803020       0.16000776 </v>
   <v>      -0.26296533       0.01803020       0.16000776 </v>
   <v>       0.14709728       0.21871955       0.16000776 </v>
   <v>       0.11586805       0.23674975       0.16000776 </v>
  </varray>
  <varray name="stress" >
   <v>     188.40258667       0.00000000       0.00000000 </v>
   <v>       0.00000000     188.40258667      -0.00000000 </v>
   <v>       0.00000000      -0.00000000     154.73827295 </v>
  </varray>
  <energy>
   <i name="e_fr_energy">   -199.87975095 </i>
   <i name="e_wo_entrp">   -199.87780397 </i>
   <i name="e_0_energy">     -0.00778792 </i>
  </energy>
  <time name="totalsc">  114.64  114.69</time>
 </calculation>
 <calculation>
  <scstep>
   <time name="dav">    8.91    8.91</time>
   <time name="total">    9.28    9.28</time>
   <energy>
    <i name="alphaZ">    149.74378846 </i>
    <i name="ewald">  -4344.80421269 </i>
    <i name="hartreedc">  -1260.56489302 </i>
    <i name="XCdc">    121.39801175 </i>
    <i name="pawpsdc">  20441.69377182 </i>
    <i name="pawaedc"> -20180.12586043 </i>
    <i name="eentropy">     -0.00433485 </i>
    <i name="bandstr">     49.96726865 </i>
    <i name="atom">   4822.75196862 </i>
    <i name="e_fr_energy">   -199.94449169 </i>
    <i name="e_wo_entrp">   -199.94015684 </i>
    <i name="e_0_energy">   -199.94340797 </i>
   </energy>
  </scstep>
  <scstep>
   <time name="diag">    0.95    0.95</time>
   <time name="diis">    5.29    5.29</time>
   <time name="orth">    0.09    0.09</time>
   <time name="total">    6.71    6.71</time>
   <energy>
    <i name="e_fr_energy">   -199.95579176 </i>
    <i name="e_wo_entrp">   -199.94763965 </i>
    <i name="e_0_energy">   -199.95375373 </i>
   </energy>
  </scstep>
  <scstep>
   <time name="diag">    0.95    0.95</time>
   <time name="diis">    5.28    5.28</time>
   <time name="orth">    0.09    0.09</time>
   <time name="total">    6.70    6.70</time>
   <energy>
    <i name="e_fr_energy">   -199.95135765 </i>
    <i name="e_wo_entrp">   -199.94501006 </i>
    <i name="e_0_energy">   -199.94977075 </i>
   </energy>
  </scstep>
  <scstep>
   <time name="diag">    0.95    0.95</time>
   <time name="diis">    5.28    5.28</time>
   <time name="orth">    0.09    0.09</time>
   <time name="total">    6.70    6.70</time>
   <energy>
    <i name="e_fr_energy">   -199.94978629 </i>
    <i name="e_wo_entrp">   -199.94269526 </i>
    <i name="e_0_energy">   -199.94801353 </i>
   </energy>
  </scstep>
  <scstep>
   <time name="diag">    0.95    0.95</time>
   <time name="diis">    5.16    5.16</time>
   <time name="orth">    0.09    0.09</time>
   <time name="total">    6.58    6.58</time>
   <energy>
    <i name="e_fr_energy">   -199.94952037 </i>
    <i name="e_wo_entrp">   -199.94269301 </i>
    <i name="e_0_energy">   -199.94781353 </i>
   </energy>
  </scstep>
  <scstep>
   <time name="diag">    0.95    0.95</time>
   <time name="diis">    3.38    3.38</time>
   <time name="orth">    0.09    0.09</time>
   <time name="total">    4.46    4.47</time>
   <energy>
    <i name="alphaZ">    149.74378846 </i>
    <i name="ewald">  -4344.80421269 </i>
    <i name="hartreedc">  -1258.61270999 </i>
    <i name="XCdc">    121.24917720 </i>
    <i name="pawpsdc">  20149.73560837 </i>
    <i name="pawaedc"> -19888.08183122 </i>
    <i name="eentropy">     -0.00688368 </i>
    <i name="bandstr">     48.07556095 </i>
    <i name="atom">   4822.75196862 </i>
    <i name="e_fr_energy">   -199.94953398 </i>
    <i name="e_wo_entrp">   -199.94265030 </i>
    <i name="e_0_energy">   -199.94781306 </i>
   </energy>
  </scstep>
  <structure>
   <crystal>
    <varray name="basis" >
     <v>       4.18608623      -7.25051403       0.00000000 </v>
     <v>       4.18608623       7.25051403       0.00000000 </v>
     <v>       0.00000000       0.00000000       5.36446936 </v>
    </varray>
    <i name="volume">    325.63698986 </i>
    <varray name="rec_basis" >
     <v>       0.11944331      -0.06896063       0.00000000 </v>
     <v>       0.11944331       0.06896063       0.00000000 </v>
     <v>       0.00000000       0.00000000       0.18641173 </v>
    </varray>
   </crystal>
   <varray name="positions" >
    <v>       0.00989332       0.64766899       0.21137477 </v>
    <v>       0.63777567       0.99010668       0.21137477 </v>
    <v>       0.91339328       0.32146762       0.99072137 </v>
    <v>       0.64766899       0.00989332       0.71137477 </v>
    <v>       0.08660672       0.40807434       0.49072137 </v>
    <v>       0.32146762       0.91339328       0.49072137 </v>
    <v>       0.35233101       0.36222433       0.21137477 </v>
    <v>       0.59192566       0.67853238       0.49072137 </v>
    <v>       0.99010668       0.63777567       0.71137477 </v>
    <v>       0.36222433       0.35233101       0.71137477 </v>
    <v>       0.67853238       0.59192566       0.99072137 </v>
    <v>       0.40807434       0.08660672       0.99072137 </v>
    <v>       0.21174688       0.29831039       0.46663171 </v>
    <v>       0.08656351       0.78825312       0.46663171 </v>
    <v>       0.29831039       0.21174688       0.96663171 </v>
    <v>       0.70168961       0.91343649       0.46663171 </v>
    <v>       0.00000000      -0.00000000       0.95673262 </v>
    <v>       0.06831888       0.48437767       0.78403767 </v>
    <v>       0.00000000      -0.00000000       0.45673262 </v>
    <v>       0.66666667       0.33333333       0.48109850 </v>
    <v>       0.58394121       0.51562233       0.28403767 </v>
    <v>       0.78825312       0.08656351       0.96663171 </v>
    <v>       0.91343649       0.70168961       0.96663171 </v>
    <v>       0.33333333       0.66666667       0.98109850 </v>
    <v>       0.93168112       0.41605879       0.28403767 </v>
    <v>       0.41605879       0.93168112       0.78403767 </v>
    <v>       0.51562233       0.58394121       0.78403767 </v>
    <v>       0.48437767       0.06831888       0.28403767 </v>
   </varray>
  </structure>
  <varray name="forces" >
   <v>       0.04879890      -0.11207438      -0.00229469 </v>
   <v>      -0.12145871       0.01377610      -0.00229469 </v>
   <v>      -0.12183361       0.04012219       0.09978440 </v>
   <v>       0.04879890       0.11207438      -0.00229469 </v>
   <v>       0.09566364      -0.08544991       0.09978440 </v>
   <v>      -0.12183361      -0.04012219       0.09978440 </v>
   <v>       0.07265981       0.09829828      -0.00229469 </v>
   <v>       0.02616997       0.12557210       0.09978440 </v>
   <v>      -0.12145871      -0.01377610      -0.00229469 </v>
   <v>       0.07265981      -0.09829828      -0.00229469 </v>
   <v>       0.02616997      -0.12557210       0.09978440 </v>
   <v>       0.09566364       0.08544991       0.09978440 </v>
   <v>       0.19326973      -0.04340064      -0.14890044 </v>
   <v>      -0.13422092      -0.14567618      -0.14890044 </v>
   <v>       0.19326973       0.04340064      -0.14890044 </v>
   <v>      -0.05904881       0.18907681      -0.14890044 </v>
   <v>      -0.00000000       0.00000000      -0.04028110 </v>
   <v>       0.13242557       0.09199114      -0.09552490 </v>
   <v>      -0.00000000       0.00000000      -0.04028110 </v>
   <v>      -0.00000000       0.00000000       0.48108800 </v>
   <v>      -0.14587945      -0.06868834      -0.09552490 </v>
   <v>      -0.13422092       0.14567618      -0.14890044 </v>
   <v>      -0.05904881      -0.18907681      -0.14890044 </v>
   <v>      -0.00000000       0.00000000       0.48108800 </v>
   <v>       0.01345388       0.16067948      -0.09552490 </v>
   <v>       0.01345388      -0.16067948      -0.09552490 </v>
   <v>      -0.14587945       0.06868834      -0.09552490 </v>
   <v>       0.13242557      -0.09199114      -0.09552490 </v>
  </varray>
  <varray name="stress" >
   <v>     179.15630442       0.00000000       0.00000000 </v>
   <v>       0.00000000     179.15630442      -0.00000000 </v>
   <v>       0.00000000      -0.00000000     139.81512021 </v>
  </varray>
  <energy>
   <i name="e_fr_energy">   -199.94953398 </i>
   <i name="e_wo_entrp">   -199.94781306 </i>
   <i name="e_0_energy">     -0.00688368 </i>
  </energy>
  <time name="totalsc">   51.63   51.65</time>
 </calculation>
 <calculation>
  <scstep>
   <time name="dav">    9.47    9.47</time>
   <time name="total">    9.85    9.86</time>
   <energy>
    <i name="alphaZ">    149.74378846 </i>
    <i name="ewald">  -4346.84249731 </i>
    <i name="hartreedc">  -1257.30026496 </i>
    <i name="XCdc">    121.21340367 </i>
    <i name="pawpsdc">  20138.71277780 </i>
    <i name="pawaedc"> -19877.05783582 </i>
    <i name="eentropy">     -0.00641124 </i>
    <i name="bandstr">     48.83480860 </i>
    <i name="atom">   4822.75196862 </i>
    <i name="e_fr_energy">   -199.95026218 </i>
    <i name="e_wo_entrp">   -199.94385093 </i>
    <i name="e_0_energy">   -199.94865937 </i>
   </energy>
  </scstep>
  <scstep>
   <time name="diag">    0.95    0.95</time>
   <time name="diis">    5.25    5.25</time>
   <time name="orth">    0.09    0.09</time>
   <time name="total">    6.67    6.67</time>
   <energy>
    <i name="e_fr_energy">   -199.95044583 </i>
    <i name="e_wo_entrp">   -199.94342037 </i>
    <i name="e_0_energy">   -199.94868946 </i>
   </energy>
  </scstep>
  <scstep>
   <time name="diag">    0.95    0.95</time>
   <time name="diis">    3.27    3.27</time>
   <time name="orth">    0.09    0.09</time>
   <time name="total">    4.35    4.36</time>
   <energy>
    <i name="alphaZ">    149.74378846 </i>
    <i name="ewald">  -4346.84249731 </i>
    <i name="hartreedc">  -1257.13102344 </i>
    <i name="XCdc">    121.20140042 </i>
    <i name="pawpsdc">  20129.92347525 </i>
    <i name="pawaedc"> -19868.26336356 </i>
    <i name="eentropy">     -0.00663218 </i>
    <i name="bandstr">     48.67251961 </i>
    <i name="atom">   4822.75196862 </i>
    <i name="e_fr_energy">   -199.95036414 </i>
    <i name="e_wo_entrp">   -199.94373196 </i>
    <i name="e_0_energy">   -199.94870610 </i>
   </energy>
  </scstep>
  <structure>
   <crystal>
    <varray name="basis" >
     <v>       4.18608623      -7.25051403       0.00000000 </v>
     <v>       4.18608623       7.25051403       0.00000000 </v>
     <v>       0.00000000       0.00000000       5.36446936 </v>
    </varray>
    <i name="volume">    325.63698986 </i>
    <varray name="rec_basis" >
     <v>       0.11944331      -0.06896063       0.00000000 </v>
     <v>       0.11944331       0.06896063       0.00000000 </v>
     <v>       0.00000000       0.00000000       0.18641173 </v>
    </varray>
   </crystal>
   <varray name="positions" >
    <v>       0.01006093       0.64773324       0.21115135 </v>
    <v>       0.63767230       0.98993907       0.21115135 </v>
    <v>       0.91330038       0.32145461       0.99058509 </v>
    <v>       0.64773324       0.01006093       0.71115135 </v>
    <v>       0.08669962       0.40815423       0.49058509 </v>
    <v>       0.32145461       0.91330038       0.49058509 </v>
    <v>       0.35226676       0.36232770       0.21115135 </v>
    <v>       0.59184577       0.67854539       0.49058509 </v>
    <v>       0.98993907       0.63767230       0.71115135 </v>
    <v>       0.36232770       0.35226676       0.71115135 </v>
    <v>       0.67854539       0.59184577       0.99058509 </v>
    <v>       0.40815423       0.08669962       0.99058509 </v>
    <v>       0.21158536       0.29806246       0.46661878 </v>
    <v>       0.08647710       0.78841464       0.46661878 </v>
    <v>       0.29806246       0.21158536       0.96661878 </v>
    <v>       0.70193754       0.91352290       0.46661878 </v>
    <v>       0.00000000      -0.00000000       0.95670958 </v>
    <v>       0.06849115       0.48436347       0.78420801 </v>
    <v>       0.00000000      -0.00000000       0.45670958 </v>
    <v>       0.66666667       0.33333333       0.48172842 </v>
    <v>       0.58412768       0.51563653       0.28420801 </v>
    <v>       0.78841464       0.08647710       0.96661878 </v>
    <v>       0.91352290       0.70193754       0.96661878 </v>
    <v>       0.33333333       0.66666667       0.98172842 </v>
    <v>       0.93150885       0.41587232       0.28420801 </v>
    <v>       0.41587232       0.93150885       0.78420801 </v>
    <v>       0.51563653       0.58412768       0.78420801 </v>
    <v>       0.48436347       0.06849115       0.28420801 </v>
   </varray>
  </structure>
  <varray name="forces" >
   <v>       0.03903112      -0.11183673       0.02086213 </v>
   <v>      -0.11636901       0.02211642       0.02086213 </v>
   <v>      -0.12820006       0.03519087       0.12307516 </v>
   <v>       0.03903112       0.11183673       0.02086213 </v>
   <v>       0.09457622      -0.09342908       0.12307516 </v>
   <v>      -0.12820006      -0.03519087       0.12307516 </v>
   <v>       0.07733788       0.08972031       0.02086213 </v>
   <v>       0.03362384       0.12861995       0.12307516 </v>
   <v>      -0.11636901      -0.02211642       0.02086213 </v>
   <v>       0.07733788      -0.08972031       0.02086213 </v>
   <v>       0.03362384      -0.12861995       0.12307516 </v>
   <v>       0.09457622       0.09342908       0.12307516 </v>
   <v>       0.24949460      -0.03504415      -0.16357491 </v>
   <v>      -0.15509642      -0.19854659      -0.16357491 </v>
   <v>       0.24949460       0.03504415      -0.16357491 </v>
   <v>      -0.09439818       0.23359074      -0.16357491 </v>
   <v>       0.00000000       0.00000000      -0.04208690 </v>
   <v>       0.13352074       0.12816070      -0.12267968 </v>
   <v>       0.00000000       0.00000000      -0.04208690 </v>
   <v>       0.00000000       0.00000000       0.46903879 </v>
   <v>      -0.17775079      -0.05155200      -0.12267968 </v>
   <v>      -0.15509642       0.19854659      -0.16357491 </v>
   <v>      -0.09439818      -0.23359074      -0.16357491 </v>
   <v>       0.00000000       0.00000000       0.46903879 </v>
   <v>       0.04423005       0.17971270      -0.12267968 </v>
   <v>       0.04423005      -0.17971270      -0.12267968 </v>
   <v>      -0.17775079       0.05155200      -0.12267968 </v>
   <v>       0.13352074      -0.12816070      -0.12267968 </v>
  </varray>
  <varray name="stress" >
   <v>     177.75791703       0.00000000       0.00000000 </v>
   <v>       0.00000000     177.75791703       0.00000000 </v>
   <v>       0.00000000      -0.00000000     137.80147808 </v>
  </varray>
  <energy>
   <i name="e_fr_energy">   -199.95036414 </i>
   <i name="e_wo_entrp">   -199.94870610 </i>
   <i name="e_0_energy">     -0.00663218 </i>
  </energy>
  <time name="totalsc">   32.02   32.04</time>
 </calculation>
 <calculation>
  <scstep>
   <time name="dav">    8.29    8.30</time>
   <time name="total">    8.67    8.68</time>
   <energy>
    <i name="alphaZ">    149.74378846 </i>
    <i name="ewald">  -4352.26302391 </i>
    <i name="hartreedc">  -1254.48211660 </i>
    <i name="XCdc">    121.04181837 </i>
    <i name="pawpsdc">  20119.28395387 </i>
    <i name="pawaedc"> -19857.62125995 </i>
    <i name="eentropy">     -0.00789501 </i>
    <i name="bandstr">     51.56755517 </i>
    <i name="atom">   4822.75196862 </i>
    <i name="e_fr_energy">   -199.98521099 </i>
    <i name="e_wo_entrp">   -199.97731598 </i>
    <i name="e_0_energy">   -199.98323724 </i>
   </energy>
  </scstep>
  <scstep>
   <time name="diag">    0.95    0.95</time>
   <time name="diis">    5.24    5.24</time>
   <time name="orth">    0.09    0.09</time>
   <time name="total">    6.65    6.65</time>
   <energy>
    <i name="e_fr_energy">   -199.99852780 </i>
    <i name="e_wo_entrp">   -199.99288117 </i>
    <i name="e_0_energy">   -199.99711614 </i>
   </energy>
  </scstep>
  <scstep>
   <time name="diag">    0.95    0.95</time>
   <time name="diis">    5.39    5.39</time>
   <time name="orth">    0.09    0.09</time>
   <time name="total">    6.80    6.81</time>
   <energy>
    <i name="e_fr_energy">   -199.99613210 </i>
    <i name="e_wo_entrp">   -199.98860438 </i>
    <i name="e_0_energy">   -199.99425017 </i>
   </energy>
  </scstep>
  <scstep>
   <time name="diag">    0.95    0.95</time>
   <time name="diis">    5.26    5.27</time>
   <time name="orth">    0.09    0.09</time>
   <time name="total">    6.67    6.69</time>
   <energy>
    <i name="e_fr_energy">   -199.99474595 </i>
    <i name="e_wo_entrp">   -199.98797362 </i>
    <i name="e_0_energy">   -199.99305287 </i>
   </energy>
  </scstep>
  <scstep>
   <time name="diag">    0.95    0.95</time>
   <time name="diis">    5.16    5.17</time>
   <time name="orth">    0.09    0.09</time>
   <time name="total">    6.58    6.59</time>
   <energy>
    <i name="e_fr_energy">   -199.99437154 </i>
    <i name="e_wo_entrp">   -199.98728229 </i>
    <i name="e_0_energy">   -199.99259923 </i>
   </energy>
  </scstep>
  <scstep>
   <time name="diag">    0.96    0.96</time>
   <time name="diis">    3.33    3.33</time>
   <time name="orth">    0.09    0.09</time>
   <time name="total">    4.42    4.42</time>
   <energy>
    <i name="alphaZ">    149.74378846 </i>
    <i name="ewald">  -4352.26302391 </i>
    <i name="hartreedc">  -1253.64123978 </i>
    <i name="XCdc">    120.95883443 </i>
    <i name="pawpsdc">  19929.87162022 </i>
    <i name="pawaedc"> -19668.14245551 </i>
    <i name="eentropy">     -0.00708708 </i>
    <i name="bandstr">     50.73323183 </i>
    <i name="atom">   4822.75196862 </i>
    <i name="e_fr_energy">   -199.99436271 </i>
    <i name="e_wo_entrp">   -199.98727563 </i>
    <i name="e_0_energy">   -199.99259094 </i>
   </energy>
  </scstep>
  <structure>
   <crystal>
    <varray name="basis" >
     <v>       4.18608623      -7.25051403       0.00000000 </v>
     <v>       4.18608623       7.25051403       0.00000000 </v>
     <v>       0.00000000       0.00000000       5.36446936 </v>
    </varray>
    <i name="volume">    325.63698986 </i>
    <varray name="rec_basis" >
     <v>       0.11944331      -0.06896063       0.00000000 </v>
     <v>       0.11944331       0.06896063       0.00000000 </v>
     <v>       0.00000000       0.00000000       0.18641173 </v>
    </varray>
   </crystal>
   <varray name="positions" >
    <v>       0.01152360       0.64790901       0.21020833 </v>
    <v>       0.63638541       0.98847640       0.21020833 </v>
    <v>       0.91195235       0.32075218       0.99102570 </v>
    <v>       0.64790901       0.01152360       0.71020833 </v>
    <v>       0.08804765       0.40879983       0.49102570 </v>
    <v>       0.32075218       0.91195235       0.49102570 </v>
    <v>       0.35209099       0.36361459       0.21020833 </v>
    <v>       0.59120017       0.67924782       0.49102570 </v>
    <v>       0.98847640       0.63638541       0.71020833 </v>
    <v>       0.36361459       0.35209099       0.71020833 </v>
    <v>       0.67924782       0.59120017       0.99102570 </v>
    <v>       0.40879983       0.08804765       0.99102570 </v>
    <v>       0.21235578       0.29815520       0.46504725 </v>
    <v>       0.08579942       0.78764422       0.46504725 </v>
    <v>       0.29815520       0.21235578       0.96504725 </v>
    <v>       0.70184480       0.91420058       0.46504725 </v>
    <v>       0.00000000       0.00000000       0.95620508 </v>
    <v>       0.06971750       0.48551538       0.78394402 </v>
    <v>       0.00000000       0.00000000       0.45620508 </v>
    <v>       0.66666667       0.33333333       0.48924670 </v>
    <v>       0.58420212       0.51448462       0.28394402 </v>
    <v>       0.78764422       0.08579942       0.96504725 </v>
    <v>       0.91420058       0.70184480       0.96504725 </v>
    <v>       0.33333333       0.66666667       0.98924670 </v>
    <v>       0.93028250       0.41579788       0.28394402 </v>
    <v>       0.41579788       0.93028250       0.78394402 </v>
    <v>       0.51448462       0.58420212       0.78394402 </v>
    <v>       0.48551538       0.06971750       0.28394402 </v>
   </varray>
  </structure>
  <varray name="forces" >
   <v>      -0.09217701      -0.02747829      -0.16558318 </v>
   <v>       0.02229161       0.09356678      -0.16558318 </v>
   <v>       0.08044612       0.02954851      -0.02315642 </v>
   <v>      -0.09217701       0.02747829      -0.16558318 </v>
   <v>      -0.01463330       0.08444264      -0.02315642 </v>
   <v>       0.08044612      -0.02954851      -0.02315642 </v>
   <v>       0.06988540      -0.06608849      -0.16558318 </v>
   <v>      -0.06581282      -0.05489413      -0.02315642 </v>
   <v>       0.02229161      -0.09356678      -0.16558318 </v>
   <v>       0.06988540       0.06608849      -0.16558318 </v>
   <v>      -0.06581282       0.05489413      -0.02315642 </v>
   <v>      -0.01463330      -0.08444264      -0.02315642 </v>
   <v>       0.20227232       0.07918635       0.04755925 </v>
   <v>      -0.03255877      -0.21476615       0.04755925 </v>
   <v>       0.20227232      -0.07918635       0.04755925 </v>
   <v>      -0.16971355       0.13557980       0.04755925 </v>
   <v>       0.00000000      -0.00000000      -0.04958300 </v>
   <v>      -0.03543407       0.01396922       0.09662083 </v>
   <v>       0.00000000      -0.00000000      -0.04958300 </v>
   <v>       0.00000000      -0.00000000       0.18326156 </v>
   <v>       0.00561934       0.03767141       0.09662083 </v>
   <v>      -0.03255877       0.21476615       0.04755925 </v>
   <v>      -0.16971355      -0.13557980       0.04755925 </v>
   <v>       0.00000000      -0.00000000       0.18326156 </v>
   <v>       0.02981473      -0.02370219       0.09662083 </v>
   <v>       0.02981473       0.02370219       0.09662083 </v>
   <v>       0.00561934      -0.03767141       0.09662083 </v>
   <v>      -0.03543407      -0.01396922       0.09662083 </v>
  </varray>
  <varray name="stress" >
   <v>     170.39459731       0.00000000       0.00000000 </v>
   <v>       0.00000000     170.39459731      -0.00000000 </v>
   <v>       0.00000000       0.00000000     132.22358415 </v>
  </varray>
  <energy>
   <i name="e_fr_energy">   -199.99436271 </i>
   <i name="e_wo_entrp">   -199.99259094 </i>
   <i name="e_0_energy">     -0.00708708 </i>
  </energy>
  <time name="totalsc">   51.12   51.17</time>
 </calculation>
 <calculation>
  <scstep>
   <time name="dav">    8.88    8.88</time>
   <time name="total">    9.25    9.26</time>
   <energy>
    <i name="alphaZ">    149.74378846 </i>
    <i name="ewald">  -4353.11287354 </i>
    <i name="hartreedc">  -1253.25115511 </i>
    <i name="XCdc">    120.93306349 </i>
    <i name="pawpsdc">  19921.00025757 </i>
    <i name="pawaedc"> -19659.26959459 </i>
    <i name="eentropy">     -0.00730222 </i>
    <i name="bandstr">     51.21682665 </i>
    <i name="atom">   4822.75196862 </i>
    <i name="e_fr_energy">   -199.99502067 </i>
    <i name="e_wo_entrp">   -199.98771845 </i>
    <i name="e_0_energy">   -199.99319512 </i>
   </energy>
  </scstep>
  <scstep>
   <time name="diag">    0.95    0.95</time>
   <time name="diis">    5.27    5.27</time>
   <time name="orth">    0.09    0.09</time>
   <time name="total">    6.69    6.69</time>
   <energy>
    <i name="e_fr_energy">   -199.99537822 </i>
    <i name="e_wo_entrp">   -199.98844106 </i>
    <i name="e_0_energy">   -199.99364393 </i>
   </energy>
  </scstep>
  <scstep>
   <time name="diag">    0.95    0.95</time>
   <time name="diis">    3.54    3.55</time>
   <time name="orth">    0.09    0.09</time>
   <time name="total">    4.62    4.63</time>
   <energy>
    <i name="alphaZ">    149.74378846 </i>
    <i name="ewald">  -4353.11287354 </i>
    <i name="hartreedc">  -1253.14395000 </i>
    <i name="XCdc">    120.92339470 </i>
    <i name="pawpsdc">  19907.44857192 </i>
    <i name="pawaedc"> -19645.71235082 </i>
    <i name="eentropy">     -0.00721739 </i>
    <i name="bandstr">     51.11335494 </i>
    <i name="atom">   4822.75196862 </i>
    <i name="e_fr_energy">   -199.99531311 </i>
    <i name="e_wo_entrp">   -199.98809572 </i>
    <i name="e_0_energy">   -199.99350876 </i>
   </energy>
  </scstep>
  <structure>
   <crystal>
    <varray name="basis" >
     <v>       4.18608623      -7.25051403       0.00000000 </v>
     <v>       4.18608623       7.25051403       0.00000000 </v>
     <v>       0.00000000       0.00000000       5.36446936 </v>
    </varray>
    <i name="volume">    325.63698986 </i>
    <varray name="rec_basis" >
     <v>       0.11944331      -0.06896063       0.00000000 </v>
     <v>       0.11944331       0.06896063       0.00000000 </v>
     <v>       0.00000000       0.00000000       0.18641173 </v>
    </varray>
   </crystal>
   <varray name="positions" >
    <v>       0.01175992       0.64793741       0.21005597 </v>
    <v>       0.63617749       0.98824008       0.21005597 </v>
    <v>       0.91173456       0.32063869       0.99109689 </v>
    <v>       0.64793741       0.01175992       0.71005597 </v>
    <v>       0.08826544       0.40890413       0.49109689 </v>
    <v>       0.32063869       0.91173456       0.49109689 </v>
    <v>       0.35206259       0.36382251       0.21005597 </v>
    <v>       0.59109587       0.67936131       0.49109689 </v>
    <v>       0.98824008       0.63617749       0.71005597 </v>
    <v>       0.36382251       0.35206259       0.71005597 </v>
    <v>       0.67936131       0.59109587       0.99109689 </v>
    <v>       0.40890413       0.08826544       0.99109689 </v>
    <v>       0.21248025       0.29817018       0.46479334 </v>
    <v>       0.08568993       0.78751975       0.46479334 </v>
    <v>       0.29817018       0.21248025       0.96479334 </v>
    <v>       0.70182982       0.91431007       0.46479334 </v>
    <v>       0.00000000       0.00000000       0.95612357 </v>
    <v>       0.06991563       0.48570149       0.78390137 </v>
    <v>       0.00000000       0.00000000       0.45612357 </v>
    <v>       0.66666667       0.33333333       0.49046140 </v>
    <v>       0.58421415       0.51429851       0.28390137 </v>
    <v>       0.78751975       0.08568993       0.96479334 </v>
    <v>       0.91431007       0.70182982       0.96479334 </v>
    <v>       0.33333333       0.66666667       0.99046140 </v>
    <v>       0.93008437       0.41578585       0.28390137 </v>
    <v>       0.41578585       0.93008437       0.78390137 </v>
    <v>       0.51429851       0.58421415       0.78390137 </v>
    <v>       0.48570149       0.06991563       0.28390137 </v>
   </varray>
  </structure>
  <varray name="forces" >
   <v>      -0.10798268      -0.01568954      -0.19534166 </v>
   <v>       0.04040380       0.10136052      -0.19534166 </v>
   <v>       0.10599768       0.02974698      -0.04573189 </v>
   <v>      -0.10798268       0.01568954      -0.19534166 </v>
   <v>      -0.02723720       0.10667018      -0.04573189 </v>
   <v>       0.10599768      -0.02974698      -0.04573189 </v>
   <v>       0.06757889      -0.08567097      -0.19534166 </v>
   <v>      -0.07876048      -0.07692320      -0.04573189 </v>
   <v>       0.04040380      -0.10136052      -0.19534166 </v>
   <v>       0.06757889       0.08567097      -0.19534166 </v>
   <v>      -0.07876048       0.07692320      -0.04573189 </v>
   <v>      -0.02723720      -0.10667018      -0.04573189 </v>
   <v>       0.19575594       0.09705382       0.08260274 </v>
   <v>      -0.01382689      -0.21805653       0.08260274 </v>
   <v>       0.19575594      -0.09705382       0.08260274 </v>
   <v>      -0.18192905       0.12100270       0.08260274 </v>
   <v>       0.00000000      -0.00000000      -0.05125602 </v>
   <v>      -0.05693007      -0.00437270       0.13042491 </v>
   <v>       0.00000000      -0.00000000      -0.05125602 </v>
   <v>       0.00000000      -0.00000000       0.13539372 </v>
   <v>       0.03225191       0.04711654       0.13042491 </v>
   <v>      -0.01382689       0.21805653       0.08260274 </v>
   <v>      -0.18192905      -0.12100270       0.08260274 </v>
   <v>       0.00000000      -0.00000000       0.13539372 </v>
   <v>       0.02467817      -0.05148924       0.13042491 </v>
   <v>       0.02467817       0.05148924       0.13042491 </v>
   <v>       0.03225191      -0.04711654       0.13042491 </v>
   <v>      -0.05693007       0.00437270       0.13042491 </v>
  </varray>
  <varray name="stress" >
   <v>     169.14302744       0.00000000       0.00000000 </v>
   <v>       0.00000000     169.14302744       0.00000000 </v>
   <v>       0.00000000       0.00000000     131.23148572 </v>
  </varray>
  <energy>
   <i name="e_fr_energy">   -199.99531311 </i>
   <i name="e_wo_entrp">   -199.99350876 </i>
   <i name="e_0_energy">     -0.00721739 </i>
  </energy>
  <time name="totalsc">   31.79   31.82</time>
 </calculation>
 <calculation>
  <scstep>
   <time name="dav">    8.26    8.26</time>
   <time name="total">    8.63    8.64</time>
   <energy>
    <i name="alphaZ">    149.74378846 </i>
    <i name="ewald">  -4350.42565989 </i>
    <i name="hartreedc">  -1256.52669723 </i>
    <i name="XCdc">    120.87841923 </i>
    <i name="pawpsdc">  19901.45376170 </i>
    <i name="pawaedc"> -19639.71548350 </i>
    <i name="eentropy">     -0.00868972 </i>
    <i name="bandstr">     51.84209563 </i>
    <i name="atom">   4822.75196862 </i>
    <i name="e_fr_energy">   -200.00649670 </i>
    <i name="e_wo_entrp">   -199.99780698 </i>
    <i name="e_0_energy">   -200.00432427 </i>
   </energy>
  </scstep>
  <scstep>
   <time name="diag">    0.95    0.95</time>
   <time name="diis">    5.30    5.30</time>
   <time name="orth">    0.09    0.09</time>
   <time name="total">    6.72    6.72</time>
   <energy>
    <i name="e_fr_energy">   -200.01552450 </i>
    <i name="e_wo_entrp">   -200.00872938 </i>
    <i name="e_0_energy">   -200.01382572 </i>
   </energy>
  </scstep>
  <scstep>
   <time name="diag">    0.95    0.95</time>
   <time name="diis">    5.35    5.35</time>
   <time name="orth">    0.09    0.09</time>
   <time name="total">    6.76    6.77</time>
   <energy>
    <i name="e_fr_energy">   -200.01304763 </i>
    <i name="e_wo_entrp">   -200.00454910 </i>
    <i name="e_0_energy">   -200.01092299 </i>
   </energy>
  </scstep>
  <scstep>
   <time name="diag">    0.95    0.95</time>
   <time name="diis">    5.22    5.22</time>
   <time name="orth">    0.09    0.09</time>
   <time name="total">    6.64    6.64</time>
   <energy>
    <i name="e_fr_energy">   -200.01182379 </i>
    <i name="e_wo_entrp">   -200.00364231 </i>
    <i name="e_0_energy">   -200.00977842 </i>
   </energy>
  </scstep>
  <scstep>
   <time name="diag">    0.95    0.95</time>
   <time name="diis">    5.18    5.18</time>
   <time name="orth">    0.09    0.09</time>
   <time name="total">    6.59    6.60</time>
   <energy>
    <i name="e_fr_energy">   -200.01159619 </i>
    <i name="e_wo_entrp">   -200.00337218 </i>
    <i name="e_0_energy">   -200.00954019 </i>
   </energy>
  </scstep>
  <scstep>
   <time name="diag">    0.95    0.95</time>
   <time name="diis">    3.28    3.28</time>
   <time name="orth">    0.09    0.09</time>
   <time name="total">    4.36    4.36</time>
   <energy>
    <i name="alphaZ">    149.74378846 </i>
    <i name="ewald">  -4350.42565989 </i>
    <i name="hartreedc">  -1256.45037670 </i>
    <i name="XCdc">    120.84441150 </i>
    <i name="pawpsdc">  19795.14365665 </i>
    <i name="pawaedc"> -19533.36021422 </i>
    <i name="eentropy">     -0.00825842 </i>
    <i name="bandstr">     51.74909054 </i>
    <i name="atom">   4822.75196862 </i>
    <i name="e_fr_energy">   -200.01159346 </i>
    <i name="e_wo_entrp">   -200.00333504 </i>
    <i name="e_0_energy">   -200.00952886 </i>
   </energy>
  </scstep>
  <structure>
   <crystal>
    <varray name="basis" >
     <v>       4.18608623      -7.25051403       0.00000000 </v>
     <v>       4.18608623       7.25051403       0.00000000 </v>
     <v>       0.00000000       0.00000000       5.36446936 </v>
    </varray>
    <i name="volume">    325.63698986 </i>
    <varray name="rec_basis" >
     <v>       0.11944331      -0.06896063       0.00000000 </v>
     <v>       0.11944331       0.06896063       0.00000000 </v>
     <v>       0.00000000       0.00000000       0.18641173 </v>
    </varray>
   </crystal>
   <varray name="positions" >
    <v>       0.01197491       0.64732294       0.20767258 </v>
    <v>       0.63534803       0.98802509       0.20767258 </v>
    <v>       0.91152212       0.32099618       0.99090851 </v>
    <v>       0.64732294       0.01197491       0.70767258 </v>
    <v>       0.08847788       0.40947407       0.49090851 </v>
    <v>       0.32099618       0.91152212       0.49090851 </v>
    <v>       0.35267706       0.36465197       0.20767258 </v>
    <v>       0.59052593       0.67900382       0.49090851 </v>
    <v>       0.98802509       0.63534803       0.70767258 </v>
    <v>       0.36465197       0.35267706       0.70767258 </v>
    <v>       0.67900382       0.59052593       0.99090851 </v>
    <v>       0.40947407       0.08847788       0.99090851 </v>
    <v>       0.21376159       0.29975523       0.46470013 </v>
    <v>       0.08599364       0.78623841       0.46470013 </v>
    <v>       0.29975523       0.21376159       0.96470013 </v>
    <v>       0.70024477       0.91400636       0.46470013 </v>
    <v>       0.00000000       0.00000000       0.95535454 </v>
    <v>       0.07026966       0.48598317       0.78499332 </v>
    <v>       0.00000000       0.00000000       0.45535454 </v>
    <v>       0.66666667       0.33333333       0.49594950 </v>
    <v>       0.58428649       0.51401683       0.28499332 </v>
    <v>       0.78623841       0.08599364       0.96470013 </v>
    <v>       0.91400636       0.70024477       0.96470013 </v>
    <v>       0.33333333       0.66666667       0.99594950 </v>
    <v>       0.92973034       0.41571351       0.28499332 </v>
    <v>       0.41571351       0.92973034       0.78499332 </v>
    <v>       0.51401683       0.58428649       0.78499332 </v>
    <v>       0.48598317       0.07026966       0.28499332 </v>
   </varray>
  </structure>
  <varray name="forces" >
   <v>       0.00220078      -0.06025015       0.14606371 </v>
   <v>      -0.05327855       0.02821914       0.14606371 </v>
   <v>      -0.00091376       0.02276173       0.04208894 </v>
   <v>       0.00220078       0.06025015       0.14606371 </v>
   <v>       0.02016912       0.01058953       0.04208894 </v>
   <v>      -0.00091376      -0.02276173       0.04208894 </v>
   <v>       0.05107777       0.03203101       0.14606371 </v>
   <v>      -0.01925536       0.01217220       0.04208894 </v>
   <v>      -0.05327855      -0.02821914       0.14606371 </v>
   <v>       0.05107777      -0.03203101       0.14606371 </v>
   <v>      -0.01925536      -0.01217220       0.04208894 </v>
   <v>       0.02016912      -0.01058953       0.04208894 </v>
   <v>      -0.04953032       0.13120918      -0.19618531 </v>
   <v>       0.13839564      -0.02271008      -0.19618531 </v>
   <v>      -0.04953032      -0.13120918      -0.19618531 </v>
   <v>      -0.08886532      -0.10849910      -0.19618531 </v>
   <v>       0.00000000       0.00000000      -0.04879314 </v>
   <v>       0.04085782      -0.12160854       0.05959542 </v>
   <v>       0.00000000       0.00000000      -0.04879314 </v>
   <v>       0.00000000       0.00000000      -0.10589514 </v>
   <v>       0.08488718      -0.09618818       0.05959542 </v>
   <v>       0.13839564       0.02271008      -0.19618531 </v>
   <v>      -0.08886532       0.10849910      -0.19618531 </v>
   <v>       0.00000000       0.00000000      -0.10589514 </v>
   <v>      -0.12574500      -0.02542036       0.05959542 </v>
   <v>      -0.12574500       0.02542036       0.05959542 </v>
   <v>       0.08488718       0.09618818       0.05959542 </v>
   <v>       0.04085782       0.12160854       0.05959542 </v>
  </varray>
  <varray name="stress" >
   <v>     166.44054185       0.00000000       0.00000000 </v>
   <v>       0.00000000     166.44054185      -0.00000000 </v>
   <v>       0.00000000       0.00000000     125.67663634 </v>
  </varray>
  <energy>
   <i name="e_fr_energy">   -200.01159346 </i>
   <i name="e_wo_entrp">   -200.00952886 </i>
   <i name="e_0_energy">     -0.00825842 </i>
  </energy>
  <time name="totalsc">   50.93   50.97</time>
 </calculation>
 <calculation>
  <scstep>
   <time name="dav">    8.40    8.41</time>
   <time name="total">    8.78    8.79</time>
   <energy>
    <i name="alphaZ">    149.74378846 </i>
    <i name="ewald">  -4351.04452107 </i>
    <i name="hartreedc">  -1255.66490045 </i>
    <i name="XCdc">    120.85213249 </i>
    <i name="pawpsdc">  19791.78939740 </i>
    <i name="pawaedc"> -19530.00511813 </i>
    <i name="eentropy">     -0.00766864 </i>
    <i name="bandstr">     51.57217668 </i>
    <i name="atom">   4822.75196862 </i>
    <i name="e_fr_energy">   -200.01274464 </i>
    <i name="e_wo_entrp">   -200.00507600 </i>
    <i name="e_0_energy">   -200.01082748 </i>
   </energy>
  </scstep>
  <scstep>
   <time name="diag">    0.95    0.95</time>
   <time name="diis">    5.25    5.25</time>
   <time name="orth">    0.09    0.09</time>
   <time name="total">    6.66    6.66</time>
   <energy>
    <i name="e_fr_energy">   -200.01329155 </i>
    <i name="e_wo_entrp">   -200.00497076 </i>
    <i name="e_0_energy">   -200.01121136 </i>
   </energy>
  </scstep>
  <scstep>
   <time name="diag">    0.95    0.95</time>
   <time name="diis">    3.98    3.98</time>
   <time name="orth">    0.09    0.09</time>
   <time name="total">    5.40    5.40</time>
   <energy>
    <i name="e_fr_energy">   -200.01302401 </i>
    <i name="e_wo_entrp">   -200.00502131 </i>
    <i name="e_0_energy">   -200.01102334 </i>
   </energy>
  </scstep>
  <scstep>
   <time name="diag">    0.95    0.95</time>
   <time name="diis">    3.11    3.11</time>
   <time name="orth">    0.09    0.09</time>
   <time name="total">    4.19    4.20</time>
   <energy>
    <i name="alphaZ">    149.74378846 </i>
    <i name="ewald">  -4351.04452107 </i>
    <i name="hartreedc">  -1255.67763005 </i>
    <i name="XCdc">    120.85842302 </i>
    <i name="pawpsdc">  19811.42641792 </i>
    <i name="pawaedc"> -19549.64910803 </i>
    <i name="eentropy">     -0.00805636 </i>
    <i name="bandstr">     51.58574715 </i>
    <i name="atom">   4822.75196862 </i>
    <i name="e_fr_energy">   -200.01297034 </i>
    <i name="e_wo_entrp">   -200.00491397 </i>
    <i name="e_0_energy">   -200.01095624 </i>
   </energy>
  </scstep>
  <structure>
   <crystal>
    <varray name="basis" >
     <v>       4.18608623      -7.25051403       0.00000000 </v>
     <v>       4.18608623       7.25051403       0.00000000 </v>
     <v>       0.00000000       0.00000000       5.36446936 </v>
    </varray>
    <i name="volume">    325.63698986 </i>
    <varray name="rec_basis" >
     <v>       0.11944331      -0.06896063       0.00000000 </v>
     <v>       0.11944331       0.06896063       0.00000000 </v>
     <v>       0.00000000       0.00000000       0.18641173 </v>
    </varray>
   </crystal>
   <varray name="positions" >
    <v>       0.01192781       0.64745756       0.20819474 </v>
    <v>       0.63552975       0.98807219       0.20819474 </v>
    <v>       0.91156866       0.32091786       0.99094978 </v>
    <v>       0.64745756       0.01192781       0.70819474 </v>
    <v>       0.08843134       0.40934920       0.49094978 </v>
    <v>       0.32091786       0.91156866       0.49094978 </v>
    <v>       0.35254244       0.36447025       0.20819474 </v>
    <v>       0.59065080       0.67908214       0.49094978 </v>
    <v>       0.98807219       0.63552975       0.70819474 </v>
    <v>       0.36447025       0.35254244       0.70819474 </v>
    <v>       0.67908214       0.59065080       0.99094978 </v>
    <v>       0.40934920       0.08843134       0.99094978 </v>
    <v>       0.21348087       0.29940797       0.46472055 </v>
    <v>       0.08592710       0.78651913       0.46472055 </v>
    <v>       0.29940797       0.21348087       0.96472055 </v>
    <v>       0.70059203       0.91407290       0.46472055 </v>
    <v>       0.00000000       0.00000000       0.95552302 </v>
    <v>       0.07019210       0.48592146       0.78475409 </v>
    <v>       0.00000000       0.00000000       0.45552302 </v>
    <v>       0.66666667       0.33333333       0.49474715 </v>
    <v>       0.58427064       0.51407854       0.28475409 </v>
    <v>       0.78651913       0.08592710       0.96472055 </v>
    <v>       0.91407290       0.70059203       0.96472055 </v>
    <v>       0.33333333       0.66666667       0.99474715 </v>
    <v>       0.92980790       0.41572936       0.28475409 </v>
    <v>       0.41572936       0.92980790       0.78475409 </v>
    <v>       0.51407854       0.58427064       0.78475409 </v>
    <v>       0.48592146       0.07019210       0.28475409 </v>
   </varray>
  </structure>
  <varray name="forces" >
   <v>      -0.02031580      -0.04916631       0.07561874 </v>
   <v>      -0.03242137       0.04217715       0.07561874 </v>
   <v>       0.02304021       0.02444664       0.02307150 </v>
   <v>      -0.02031580       0.04916631       0.07561874 </v>
   <v>       0.00965131       0.03217673       0.02307150 </v>
   <v>       0.02304021      -0.02444664       0.02307150 </v>
   <v>       0.05273717       0.00698916       0.07561874 </v>
   <v>      -0.03269152      -0.00773009       0.02307150 </v>
   <v>      -0.03242137      -0.04217715       0.07561874 </v>
   <v>       0.05273717      -0.00698916       0.07561874 </v>
   <v>      -0.03269152       0.00773009       0.02307150 </v>
   <v>       0.00965131      -0.03217673       0.02307150 </v>
   <v>       0.00527779       0.12305665      -0.13819077 </v>
   <v>       0.10393129      -0.06609903      -0.13819077 </v>
   <v>       0.00527779      -0.12305665      -0.13819077 </v>
   <v>      -0.10920908      -0.05695762      -0.13819077 </v>
   <v>       0.00000000      -0.00000000      -0.05033807 </v>
   <v>       0.01940397      -0.09692149       0.07399533 </v>
   <v>       0.00000000      -0.00000000      -0.05033807 </v>
   <v>       0.00000000      -0.00000000      -0.05314634 </v>
   <v>       0.07423449      -0.06526508       0.07399533 </v>
   <v>       0.10393129       0.06609903      -0.13819077 </v>
   <v>      -0.10920908       0.05695762      -0.13819077 </v>
   <v>       0.00000000      -0.00000000      -0.05314634 </v>
   <v>      -0.09363846      -0.03165641       0.07399533 </v>
   <v>      -0.09363846       0.03165641       0.07399533 </v>
   <v>       0.07423449       0.06526508       0.07399533 </v>
   <v>       0.01940397       0.09692149       0.07399533 </v>
  </varray>
  <varray name="stress" >
   <v>     167.00611794       0.00000000      -0.00000000 </v>
   <v>       0.00000000     167.00611794      -0.00000000 </v>
   <v>       0.00000000       0.00000000     126.89303552 </v>
  </varray>
  <energy>
   <i name="e_fr_energy">   -200.01297034 </i>
   <i name="e_wo_entrp">   -200.01095624 </i>
   <i name="e_0_energy">     -0.00805636 </i>
  </energy>
  <time name="totalsc">   36.29   36.32</time>
 </calculation>
 <calculation>
  <scstep>
   <time name="dav">    8.34    8.34</time>
   <time name="total">    8.72    8.73</time>
   <energy>
    <i name="alphaZ">    149.74378846 </i>
    <i name="ewald">  -4350.27434175 </i>
    <i name="hartreedc">  -1257.12452294 </i>
    <i name="XCdc">    120.82066432 </i>
    <i name="pawpsdc">  19812.96499939 </i>
    <i name="pawaedc"> -19551.18971074 </i>
    <i name="eentropy">     -0.00854548 </i>
    <i name="bandstr">     52.29594745 </i>
    <i name="atom">   4822.75196862 </i>
    <i name="e_fr_energy">   -200.01975266 </i>
    <i name="e_wo_entrp">   -200.01120718 </i>
    <i name="e_0_energy">   -200.01761629 </i>
   </energy>
  </scstep>
  <scstep>
   <time name="diag">    0.95    0.95</time>
   <time name="diis">    5.26    5.26</time>
   <time name="orth">    0.09    0.09</time>
   <time name="total">    6.68    6.69</time>
   <energy>
    <i name="e_fr_energy">   -200.02178935 </i>
    <i name="e_wo_entrp">   -200.01409251 </i>
    <i name="e_0_energy">   -200.01986514 </i>
   </energy>
  </scstep>
  <scstep>
[...]
       <r>   -1.6606    1.0000 </r>
       <r>   -0.8438    1.0000 </r>
       <r>   -0.7761    1.0000 </r>
       <r>   -0.4564    1.0000 </r>
       <r>   -0.4564    1.0000 </r>
       <r>    0.3535    1.0000 </r>
       <r>    0.3535    1.0000 </r>
       <r>    0.6902    1.0000 </r>
       <r>    0.6902    1.0000 </r>
       <r>    0.8196    1.0000 </r>
       <r>    0.8311    1.0000 </r>
       <r>    1.2135    1.0000 </r>
       <r>    1.2135    1.0000 </r>
       <r>    1.6573    1.0000 </r>
       <r>    1.6573    1.0000 </r>
       <r>    1.7500    1.0000 </r>
       <r>    1.9553    1.0000 </r>
       <r>    1.9553    1.0000 </r>
       <r>    1.9853    1.0000 </r>
       <r>    2.2643    1.0000 </r>
       <r>    3.0134    1.0000 </r>
       <r>    3.0134    1.0000 </r>
       <r>    3.2285    1.0000 </r>
       <r>    3.4624    1.0000 </r>
       <r>    3.4624    1.0000 </r>
       <r>    3.6213    1.0000 </r>
       <r>    3.8909    1.0000 </r>
       <r>    3.8909    1.0000 </r>
       <r>    3.9824    1.0000 </r>
       <r>    4.7823    1.0000 </r>
       <r>    4.7823    1.0000 </r>
       <r>    4.9650    1.0000 </r>
       <r>    5.0841    1.0000 </r>
       <r>    5.0841    1.0000 </r>
       <r>    5.2677    1.0000 </r>
       <r>    5.5617    1.0000 </r>
       <r>    5.5617    1.0000 </r>
       <r>    6.0613    1.0000 </r>
       <r>    6.0613    1.0000 </r>
       <r>    6.4775    1.0000 </r>
       <r>    6.4775    1.0000 </r>
       <r>    6.7402    1.0000 </r>
       <r>    6.7557    1.0000 </r>
       <r>    8.3684    0.1778 </r>
       <r>    8.3751    0.1267 </r>
       <r>    8.4533   -0.0396 </r>
       <r>    8.4533   -0.0396 </r>
       <r>   10.8254    0.0000 </r>
       <r>   10.8254    0.0000 </r>
       <r>   11.1514    0.0000 </r>
       <r>   11.1514    0.0000 </r>
       <r>   11.4521    0.0000 </r>
       <r>   11.8465    0.0000 </r>
       <r>   12.2703    0.0000 </r>
       <r>   12.2703    0.0000 </r>
       <r>   12.8342    0.0000 </r>
       <r>   13.0200    0.0000 </r>
       <r>   13.0200    0.0000 </r>
       <r>   13.1868    0.0000 </r>
       <r>   13.1868    0.0000 </r>
       <r>   13.3849    0.0000 </r>
       <r>   13.4498    0.0000 </r>
       <r>   13.4502    0.0000 </r>
      </set>
     </set>
    </set>
   </array>
  </eigenvalues>
  <separator name="orbital magnetization" >
   <v name="MAGDIPOLOUT">      0.00000000      0.00000000      0.00000000</v>
  </separator>
  <dos>
   <i name="efermi">      8.33531944 </i>
   <total>
    <array>
     <dimension dim="1">gridpoints</dimension>
     <dimension dim="2">spin</dimension>
     <field>energy</field>
     <field>total</field>
     <field>integrated</field>
     <set>
      <set comment="spin 1">
       <r>   -12.0278     0.0000     0.0000 </r>
       <r>   -11.9374     0.0000     0.0000 </r>
       <r>   -11.8470     0.0000     0.0000 </r>
       <r>   -11.7566     0.0000     0.0000 </r>
       <r>   -11.6661     0.0000     0.0000 </r>
       <r>   -11.5757     0.0000     0.0000 </r>
       <r>   -11.4853     0.0000     0.0000 </r>
       <r>   -11.3949     0.0000     0.0000 </r>
       <r>   -11.3044     0.0000     0.0000 </r>
       <r>   -11.2140     0.0000     0.0000 </r>
       <r>   -11.1236     0.0000     0.0000 </r>
       <r>   -11.0332     0.0008     0.0001 </r>
       <r>   -10.9427     0.0050     0.0005 </r>
       <r>   -10.8523    -0.0403    -0.0031 </r>
       <r>   -10.7619     0.3412     0.0277 </r>
       <r>   -10.6715     1.8110     0.1915 </r>
       <r>   -10.5811     2.9355     0.4569 </r>
       <r>   -10.4906     4.0759     0.8255 </r>
       <r>   -10.4002     3.4416     1.1367 </r>
       <r>   -10.3098     4.7684     1.5679 </r>
       <r>   -10.2194     4.9904     2.0191 </r>
       <r>   -10.1289     9.0624     2.8386 </r>
       <r>   -10.0385     7.9637     3.5587 </r>
       <r>    -9.9481     7.3793     4.2260 </r>
       <r>    -9.8577     8.4070     4.9862 </r>
       <r>    -9.7672     2.9971     5.2572 </r>
       <r>    -9.6768     4.1550     5.6329 </r>
       <r>    -9.5864     1.2450     5.7455 </r>
       <r>    -9.4960     1.8690     5.9145 </r>
       <r>    -9.4055     7.8410     6.6235 </r>
       <r>    -9.3151     6.3452     7.1972 </r>
       <r>    -9.2247     0.9314     7.2815 </r>
       <r>    -9.1343     4.5412     7.6921 </r>
       <r>    -9.0438    13.0707     8.8740 </r>
       <r>    -8.9534    10.5952     9.8321 </r>
       <r>    -8.8630     5.8109    10.3575 </r>
       <r>    -8.7726     5.4729    10.8524 </r>
       <r>    -8.6821     4.2062    11.2327 </r>
       <r>    -8.5917     3.2542    11.5270 </r>
       <r>    -8.5013     9.0823    12.3482 </r>
       <r>    -8.4109    11.8895    13.4233 </r>
       <r>    -8.3204    15.7485    14.8474 </r>
       <r>    -8.2300    12.9500    16.0184 </r>
       <r>    -8.1396    13.2873    17.2199 </r>
       <r>    -8.0492    10.8633    18.2022 </r>
       <r>    -7.9588     7.8290    18.9101 </r>
       <r>    -7.8683     8.0773    19.6405 </r>
       <r>    -7.7779    12.8896    20.8060 </r>
       <r>    -7.6875    24.2858    23.0020 </r>
       <r>    -7.5971    11.1801    24.0130 </r>
       <r>    -7.5066    -0.0928    24.0046 </r>
       <r>    -7.4162    -0.0859    23.9968 </r>
       <r>    -7.3258     0.0341    23.9999 </r>
       <r>    -7.2354     0.0010    24.0000 </r>
       <r>    -7.1449     0.0000    24.0000 </r>
       <r>    -7.0545     0.0000    24.0000 </r>
       <r>    -6.9641     0.0000    24.0000 </r>
       <r>    -6.8737     0.0000    24.0000 </r>
       <r>    -6.7832     0.0000    24.0000 </r>
       <r>    -6.6928     0.0000    24.0000 </r>
       <r>    -6.6024     0.0000    24.0000 </r>
       <r>    -6.5120     0.0000    24.0000 </r>
       <r>    -6.4215     0.0000    24.0000 </r>
       <r>    -6.3311     0.0000    24.0000 </r>
       <r>    -6.2407     0.0000    24.0000 </r>
       <r>    -6.1503     0.0000    24.0000 </r>
       <r>    -6.0598     0.0000    24.0000 </r>
       <r>    -5.9694     0.0000    24.0000 </r>
       <r>    -5.8790     0.0000    24.0000 </r>
       <r>    -5.7886     0.0000    24.0000 </r>
       <r>    -5.6982     0.0000    24.0000 </r>
       <r>    -5.6077     0.0000    24.0000 </r>
       <r>    -5.5173     0.0000    24.0000 </r>
       <r>    -5.4269     0.0000    24.0000 </r>
       <r>    -5.3365     0.0000    24.0000 </r>
       <r>    -5.2460     0.0000    24.0000 </r>
       <r>    -5.1556     0.0000    24.0000 </r>
       <r>    -5.0652     0.0000    24.0000 </r>
       <r>    -4.9748     0.0000    24.0000 </r>
       <r>    -4.8843     0.0000    24.0000 </r>
       <r>    -4.7939     0.0000    24.0000 </r>
       <r>    -4.7035     0.0000    24.0000 </r>
       <r>    -4.6131     0.0000    24.0000 </r>
       <r>    -4.5226     0.0000    24.0000 </r>
       <r>    -4.4322     0.0000    24.0000 </r>
       <r>    -4.3418     0.0000    24.0000 </r>
       <r>    -4.2514     0.0000    24.0000 </r>
       <r>    -4.1609     0.0000    24.0000 </r>
       <r>    -4.0705     0.0000    24.0000 </r>
       <r>    -3.9801     0.0000    24.0000 </r>
       <r>    -3.8897     0.0004    24.0000 </r>
       <r>    -3.7992     0.0009    24.0001 </r>
       <r>    -3.7088    -0.0081    23.9994 </r>
       <r>    -3.6184     0.1186    24.0101 </r>
       <r>    -3.5280     0.8112    24.0835 </r>
       <r>    -3.4375     0.7397    24.1504 </r>
       <r>    -3.3471     1.2768    24.2658 </r>
       <r>    -3.2567     2.0570    24.4518 </r>
       <r>    -3.1663     0.7691    24.5214 </r>
       <r>    -3.0759     2.7710    24.7719 </r>
       <r>    -2.9854     3.1184    25.0539 </r>
       <r>    -2.8950     1.0929    25.1527 </r>
       <r>    -2.8046     3.5331    25.4722 </r>
       <r>    -2.7142     1.4446    25.6028 </r>
       <r>    -2.6237     2.8614    25.8616 </r>
       <r>    -2.5333     6.6543    26.4633 </r>
       <r>    -2.4429     5.5724    26.9672 </r>
       <r>    -2.3525     7.0316    27.6030 </r>
       <r>    -2.2620    10.6850    28.5692 </r>
       <r>    -2.1716     7.8563    29.2796 </r>
       <r>    -2.0812     5.9580    29.8183 </r>
       <r>    -1.9908     6.2362    30.3822 </r>
       <r>    -1.9003     5.9146    30.9171 </r>
       <r>    -1.8099     4.9925    31.3685 </r>
       <r>    -1.7195     6.0467    31.9153 </r>
       <r>    -1.6291    10.4246    32.8579 </r>
       <r>    -1.5386    10.7987    33.8344 </r>
       <r>    -1.4482    11.7310    34.8951 </r>
       <r>    -1.3578     9.8315    35.7841 </r>
       <r>    -1.2674    11.5039    36.8244 </r>
       <r>    -1.1769    10.5148    37.7751 </r>
       <r>    -1.0865     8.7879    38.5698 </r>
       <r>    -0.9961    12.5203    39.7019 </r>
       <r>    -0.9057     6.4974    40.2894 </r>
       <r>    -0.8152     4.3466    40.6825 </r>
       <r>    -0.7248     2.2221    40.8834 </r>
       <r>    -0.6344     0.9749    40.9716 </r>
       <r>    -0.5440     4.2775    41.3583 </r>
       <r>    -0.4536     3.0004    41.6297 </r>
       <r>    -0.3631     3.5529    41.9509 </r>
       <r>    -0.2727     8.1390    42.6869 </r>
       <r>    -0.1823    10.8074    43.6641 </r>
       <r>    -0.0919    10.4397    44.6081 </r>
       <r>    -0.0014     9.1502    45.4355 </r>
       <r>     0.0890     6.8034    46.0507 </r>
       <r>     0.1794     7.5086    46.7297 </r>
       <r>     0.2698    10.2531    47.6568 </r>
       <r>     0.3603     7.3112    48.3179 </r>
       <r>     0.4507     8.4099    49.0784 </r>
       <r>     0.5411     5.1394    49.5431 </r>
       <r>     0.6315     6.7324    50.1519 </r>
       <r>     0.7220     7.8807    50.8645 </r>
       <r>     0.8124     9.9651    51.7656 </r>
       <r>     0.9028    13.1658    52.9561 </r>
       <r>     0.9932     9.5667    53.8211 </r>
       <r>     1.0837    12.0591    54.9116 </r>
       <r>     1.1741    11.4916    55.9507 </r>
       <r>     1.2645    11.9232    57.0288 </r>
       <r>     1.3549    11.5362    58.0720 </r>
       <r>     1.4454     6.3401    58.6453 </r>
       <r>     1.5358    11.9800    59.7286 </r>
       <r>     1.6262    14.7248    61.0600 </r>
       <r>     1.7166    10.5435    62.0134 </r>
       <r>     1.8070     8.9210    62.8201 </r>
       <r>     1.8975    12.5681    63.9566 </r>
       <r>     1.9879    11.3202    64.9802 </r>
       <r>     2.0783     9.1131    65.8042 </r>
       <r>     2.1687    12.0924    66.8977 </r>
       <r>     2.2592    14.4893    68.2078 </r>
       <r>     2.3496    15.0960    69.5729 </r>
       <r>     2.4400    10.6461    70.5356 </r>
       <r>     2.5304     8.7025    71.3225 </r>
       <r>     2.6209    11.8146    72.3908 </r>
       <r>     2.7113    13.0945    73.5748 </r>
       <r>     2.8017    15.3843    74.9660 </r>
       <r>     2.8921     9.1921    75.7971 </r>
       <r>     2.9826     9.8732    76.6899 </r>
       <r>     3.0730    12.1650    77.7899 </r>
       <r>     3.1634    10.3061    78.7218 </r>
       <r>     3.2538    12.3943    79.8426 </r>
       <r>     3.3443    14.4193    81.1464 </r>
       <r>     3.4347    13.7485    82.3896 </r>
       <r>     3.5251    10.9607    83.3808 </r>
       <r>     3.6155    10.2318    84.3060 </r>
       <r>     3.7060     9.8688    85.1983 </r>
       <r>     3.7964    11.9745    86.2811 </r>
       <r>     3.8868     7.7638    86.9831 </r>
       <r>     3.9772     9.7613    87.8658 </r>
       <r>     4.0677    10.3847    88.8048 </r>
       <r>     4.1581    13.3450    90.0115 </r>
       <r>     4.2485    13.4560    91.2283 </r>
       <r>     4.3389     7.1184    91.8720 </r>
       <r>     4.4293     7.5156    92.5516 </r>
       <r>     4.5198    11.3077    93.5740 </r>
       <r>     4.6102    13.5727    94.8013 </r>
       <r>     4.7006    11.9951    95.8860 </r>
       <r>     4.7910    12.2252    96.9914 </r>
       <r>     4.8815    11.2450    98.0083 </r>
       <r>     4.9719     7.3660    98.6743 </r>
       <r>     5.0623     9.6390    99.5459 </r>
       <r>     5.1527    12.4817   100.6746 </r>
       <r>     5.2432    18.5831   102.3549 </r>
       <r>     5.3336    14.5283   103.6686 </r>
       <r>     5.4240     6.4177   104.2489 </r>
       <r>     5.5144     8.4091   105.0093 </r>
       <r>     5.6049     6.5690   105.6033 </r>
       <r>     5.6953     5.7389   106.1222 </r>
       <r>     5.7857     8.0124   106.8468 </r>
       <r>     5.8761    14.5499   108.1624 </r>
       <r>     5.9666    12.6385   109.3053 </r>
       <r>     6.0570    14.9287   110.6552 </r>
       <r>     6.1474    16.4712   112.1446 </r>
       <r>     6.2378     9.5200   113.0054 </r>
       <r>     6.3283     4.7041   113.4308 </r>
       <r>     6.4187     3.7973   113.7741 </r>
       <r>     6.5091     5.1698   114.2416 </r>
       <r>     6.5995     7.7683   114.9440 </r>
       <r>     6.6900     8.1578   115.6817 </r>
       <r>     6.7804    10.5173   116.6327 </r>
       <r>     6.8708    11.4675   117.6697 </r>
       <r>     6.9612    11.2957   118.6911 </r>
       <r>     7.0516     5.9785   119.2317 </r>
       <r>     7.1421     4.9244   119.6770 </r>
       <r>     7.2325     2.7810   119.9284 </r>
       <r>     7.3229     8.6164   120.7076 </r>
       <r>     7.4133     8.2672   121.4551 </r>
       <r>     7.5038     3.3787   121.7606 </r>
       <r>     7.5942    -0.1180   121.7500 </r>
       <r>     7.6846    -0.0067   121.7493 </r>
       <r>     7.7750    -0.0038   121.7490 </r>
       <r>     7.8655     0.1278   121.7606 </r>
       <r>     7.9559     0.7525   121.8286 </r>
       <r>     8.0463     1.7875   121.9902 </r>
       <r>     8.1367     3.5126   122.3079 </r>
       <r>     8.2272     4.7886   122.7409 </r>
       <r>     8.3176    10.5065   123.6909 </r>
       <r>     8.4080    16.9952   125.2277 </r>
       <r>     8.4984     7.7779   125.9310 </r>
       <r>     8.5889     3.0952   126.2109 </r>
       <r>     8.6793     0.4695   126.2533 </r>
       <r>     8.7697    -0.0460   126.2492 </r>
       <r>     8.8601     0.0081   126.2499 </r>
       <r>     8.9506     0.0013   126.2500 </r>
       <r>     9.0410     0.0000   126.2500 </r>
       <r>     9.1314     0.0000   126.2500 </r>
       <r>     9.2218     0.0000   126.2500 </r>
       <r>     9.3122     0.0000   126.2500 </r>
       <r>     9.4027     0.0000   126.2500 </r>
       <r>     9.4931     0.0032   126.2503 </r>
       <r>     9.5835     0.0202   126.2521 </r>
       <r>     9.6739    -0.2724   126.2275 </r>
       <r>     9.7644     2.1236   126.4195 </r>
       <r>     9.8548     3.7547   126.7590 </r>
       <r>     9.9452    -0.0774   126.7520 </r>
       <r>    10.0356     0.0408   126.7557 </r>
       <r>    10.1261     0.3112   126.7839 </r>
       <r>    10.2165     0.9609   126.8707 </r>
       <r>    10.3069     1.4184   126.9990 </r>
       <r>    10.3973     1.4429   127.1295 </r>
       <r>    10.4878     2.1665   127.3254 </r>
       <r>    10.5782     4.1954   127.7047 </r>
       <r>    10.6686     8.5093   128.4742 </r>
       <r>    10.7590    10.7730   129.4483 </r>
       <r>    10.8495    14.4798   130.7577 </r>
       <r>    10.9399    14.6970   132.0866 </r>
       <r>    11.0303     8.2404   132.8317 </r>
       <r>    11.1207     8.1670   133.5702 </r>
       <r>    11.2112    11.3043   134.5924 </r>
       <r>    11.3016     6.2932   135.1615 </r>
       <r>    11.3920     4.4142   135.5606 </r>
       <r>    11.4824     4.2933   135.9488 </r>
       <r>    11.5729     4.0476   136.3148 </r>
       <r>    11.6633     6.2923   136.8838 </r>
       <r>    11.7537     4.9891   137.3350 </r>
       <r>    11.8441     8.1360   138.0706 </r>
       <r>    11.9345    12.7541   139.2239 </r>
       <r>    12.0250     7.8742   139.9359 </r>
       <r>    12.1154     8.3836   140.6940 </r>
       <r>    12.2058    10.5881   141.6514 </r>
       <r>    12.2962    10.9296   142.6397 </r>
       <r>    12.3867     9.9815   143.5423 </r>
       <r>    12.4771     7.8519   144.2523 </r>
       <r>    12.5675     7.7960   144.9572 </r>
       <r>    12.6579    10.2697   145.8859 </r>
       <r>    12.7484    12.7916   147.0426 </r>
       <r>    12.8388    11.1941   148.0548 </r>
       <r>    12.9292    10.8018   149.0315 </r>
       <r>    13.0196    14.4433   150.3375 </r>
       <r>    13.1101    14.7195   151.6685 </r>
       <r>    13.2005    16.5044   153.1609 </r>
       <r>    13.2909    19.6150   154.9346 </r>
       <r>    13.3813    17.2115   156.4909 </r>
       <r>    13.4718    16.8867   158.0179 </r>
       <r>    13.5622    13.3131   159.2217 </r>
       <r>    13.6526     6.6165   159.8200 </r>
       <r>    13.7430     1.7689   159.9800 </r>
       <r>    13.8335     0.0869   159.9878 </r>
       <r>    13.9239     0.1273   159.9993 </r>
       <r>    14.0143     0.0087   160.0001 </r>
       <r>    14.1047    -0.0018   160.0000 </r>
       <r>    14.1952     0.0004   160.0000 </r>
       <r>    14.2856     0.0000   160.0000 </r>
       <r>    14.3760     0.0000   160.0000 </r>
       <r>    14.4664     0.0000   160.0000 </r>
       <r>    14.5568     0.0000   160.0000 </r>
       <r>    14.6473     0.0000   160.0000 </r>
       <r>    14.7377     0.0000   160.0000 </r>
       <r>    14.8281     0.0000   160.0000 </r>
       <r>    14.9185     0.0000   160.0000 </r>
       <r>    15.0090     0.0000   160.0000 </r>
       <r>    15.0994     0.0000   160.0000 </r>
      </set>
     </set>
    </array>
   </total>
  </dos>
 </calculation>
 <structure name="finalpos" >
  <crystal>
   <varray name="basis" >
    <v>       4.18608623      -7.25051403       0.00000000 </v>
    <v>       4.18608623       7.25051403       0.00000000 </v>
    <v>       0.00000000       0.00000000       5.36446936 </v>
   </varray>
   <i name="volume">    325.63698986 </i>
   <varray name="rec_basis" >
    <v>       0.11944331      -0.06896063       0.00000000 </v>
    <v>       0.11944331       0.06896063       0.00000000 </v>
    <v>       0.00000000       0.00000000       0.18641173 </v>
   </varray>
  </crystal>
  <varray name="positions" >
   <v>       0.01063543       0.64618317       0.20751852 </v>
   <v>       0.63554774       0.98936457       0.20751852 </v>
   <v>       0.91147601       0.32119000       0.99194678 </v>
   <v>       0.64618317       0.01063543       0.70751852 </v>
   <v>       0.08852399       0.40971399       0.49194678 </v>
   <v>       0.32119000       0.91147601       0.49194678 </v>
   <v>       0.35381683       0.36445226       0.20751852 </v>
   <v>       0.59028601       0.67881000       0.49194678 </v>
   <v>       0.98936457       0.63554774       0.70751852 </v>
   <v>       0.36445226       0.35381683       0.70751852 </v>
   <v>       0.67881000       0.59028601       0.99194678 </v>
   <v>       0.40971399       0.08852399       0.99194678 </v>
   <v>       0.21358798       0.30038056       0.46243647 </v>
   <v>       0.08679258       0.78641202       0.46243647 </v>
   <v>       0.30038056       0.21358798       0.96243647 </v>
   <v>       0.69961944       0.91320742       0.46243647 </v>
   <v>       0.00000000       0.00000000       0.95229396 </v>
   <v>       0.07137398       0.48600769       0.78677939 </v>
   <v>       0.00000000       0.00000000       0.45229396 </v>
   <v>       0.66666667       0.33333333       0.49779026 </v>
   <v>       0.58536629       0.51399231       0.28677939 </v>
   <v>       0.78641202       0.08679258       0.96243647 </v>
   <v>       0.91320742       0.69961944       0.96243647 </v>
   <v>       0.33333333       0.66666667       0.99779026 </v>
   <v>       0.92862602       0.41463371       0.28677939 </v>
   <v>       0.41463371       0.92862602       0.78677939 </v>
   <v>       0.51399231       0.58536629       0.78677939 </v>
   <v>       0.48600769       0.07137398       0.28677939 </v>
  </varray>
 </structure>
</modeling>
