unknown system                          
           1
     4.186086   -7.250514    0.000000
     4.186086    7.250514    0.000000
     0.000000    0.000000    5.364469
   Si   N 
  12  16
Direct configuration=     1
   0.00847736  0.64712623  0.21326215
   0.63864887  0.99152264  0.21326215
   0.91417805  0.32157747  0.99187268
   0.64712623  0.00847736  0.71326215
   0.08582195  0.40739942  0.49187268
   0.32157747  0.91417805  0.49187268
   0.35287377  0.36135113  0.21326215
   0.59260058  0.67842253  0.49187268
   0.99152264  0.63864887  0.71326215
   0.36135113  0.35287377  0.71326215
   0.67842253  0.59260058  0.99187268
   0.40739942  0.08582195  0.99187268
   0.21311138  0.30040483  0.46674092
   0.08729345  0.78688862  0.46674092
   0.30040483  0.21311138  0.96674092
   0.69959517  0.91270655  0.46674092
   0.00000000  0.00000000  0.95692726
   0.06686359  0.48449764  0.78259872
   0.00000000  0.00000000  0.45692726
   0.66666667  0.33333333  0.47577702
   0.58236595  0.51550236  0.28259872
   0.78688862  0.08729345  0.96674092
   0.91270655  0.69959517  0.96674092
   0.33333333  0.66666667  0.97577702
   0.93313641  0.41763405  0.28259872
   0.41763405  0.93313641  0.78259872
   0.51550236  0.58236595  0.78259872
   0.48449764  0.06686359  0.28259872
Direct configuration=     2
   0.00989332  0.64766899  0.21137477
   0.63777567  0.99010668  0.21137477
   0.91339328  0.32146762  0.99072137
   0.64766899  0.00989332  0.71137477
   0.08660672  0.40807434  0.49072137
   0.32146762  0.91339328  0.49072137
   0.35233101  0.36222433  0.21137477
   0.59192566  0.67853238  0.49072137
   0.99010668  0.63777567  0.71137477
   0.36222433  0.35233101  0.71137477
   0.67853238  0.59192566  0.99072137
   0.40807434  0.08660672  0.99072137
   0.21174688  0.29831039  0.46663171
   0.08656351  0.78825312  0.46663171
   0.29831039  0.21174688  0.96663171
   0.70168961  0.91343649  0.46663171
   0.00000000 -0.00000000  0.95673262
   0.06831888  0.48437767  0.78403767
   0.00000000 -0.00000000  0.45673262
   0.66666667  0.33333333  0.48109850
   0.58394121  0.51562233  0.28403767
   0.78825312  0.08656351  0.96663171
   0.91343649  0.70168961  0.96663171
   0.33333333  0.66666667  0.98109850
   0.93168112  0.41605879  0.28403767
   0.41605879  0.93168112  0.78403767
   0.51562233  0.58394121  0.78403767
   0.48437767  0.06831888  0.28403767
Direct configuration=     3
   0.01006093  0.64773324  0.21115135
   0.63767230  0.98993907  0.21115135
   0.91330038  0.32145461  0.99058509
   0.64773324  0.01006093  0.71115135
   0.08669962  0.40815423  0.49058509
   0.32145461  0.91330038  0.49058509
   0.35226676  0.36232770  0.21115135
   0.59184577  0.67854539  0.49058509
   0.98993907  0.63767230  0.71115135
   0.36232770  0.35226676  0.71115135
   0.67854539  0.59184577  0.99058509
   0.40815423  0.08669962  0.99058509
   0.21158536  0.29806246  0.46661878
   0.08647710  0.78841464  0.46661878
   0.29806246  0.21158536  0.96661878
   0.70193754  0.91352290  0.46661878
   0.00000000 -0.00000000  0.95670958
   0.06849115  0.48436347  0.78420801
   0.00000000 -0.00000000  0.45670958
   0.66666667  0.33333333  0.48172842
   0.58412768  0.51563653  0.28420801
   0.78841464  0.08647710  0.96661878
   0.91352290  0.70193754  0.96661878
   0.33333333  0.66666667  0.98172842
   0.93150885  0.41587232  0.28420801
   0.41587232  0.93150885  0.78420801
   0.51563653  0.58412768  0.78420801
   0.48436347  0.06849115  0.28420801
Direct configuration=     4
   0.01152360  0.64790901  0.21020833
   0.63638541  0.98847640  0.21020833
   0.91195235  0.32075218  0.99102570
   0.64790901  0.01152360  0.71020833
   0.08804765  0.40879983  0.49102570
   0.32075218  0.91195235  0.49102570
   0.35209099  0.36361459  0.21020833
   0.59120017  0.67924782  0.49102570
   0.98847640  0.63638541  0.71020833
   0.36361459  0.35209099  0.71020833
   0.67924782  0.59120017  0.99102570
   0.40879983  0.08804765  0.99102570
   0.21235578  0.29815520  0.46504725
   0.08579942  0.78764422  0.46504725
   0.29815520  0.21235578  0.96504725
   0.70184480  0.91420058  0.46504725
   0.00000000  0.00000000  0.95620508
   0.06971750  0.48551538  0.78394402
   0.00000000  0.00000000  0.45620508
   0.66666667  0.33333333  0.48924670
   0.58420212  0.51448462  0.28394402
   0.78764422  0.08579942  0.96504725
   0.91420058  0.70184480  0.96504725
   0.33333333  0.66666667  0.98924670
   0.93028250  0.41579788  0.28394402
   0.41579788  0.93028250  0.78394402
   0.51448462  0.58420212  0.78394402
   0.48551538  0.06971750  0.28394402
Direct configuration=     5
   0.01175992  0.64793741  0.21005597
   0.63617749  0.98824008  0.21005597
   0.91173456  0.32063869  0.99109689
   0.64793741  0.01175992  0.71005597
   0.08826544  0.40890413  0.49109689
   0.32063869  0.91173456  0.49109689
   0.35206259  0.36382251  0.21005597
   0.59109587  0.67936131  0.49109689
   0.98824008  0.63617749  0.71005597
   0.36382251  0.35206259  0.71005597
   0.67936131  0.59109587  0.99109689
   0.40890413  0.08826544  0.99109689
   0.21248025  0.29817018  0.46479334
   0.08568993  0.78751975  0.46479334
   0.29817018  0.21248025  0.96479334
   0.70182982  0.91431007  0.46479334
   0.00000000  0.00000000  0.95612357
   0.06991563  0.48570149  0.78390137
   0.00000000  0.00000000  0.45612357
   0.66666667  0.33333333  0.49046140
   0.58421415  0.51429851  0.28390137
   0.78751975  0.08568993  0.96479334
   0.91431007  0.70182982  0.96479334
   0.33333333  0.66666667  0.99046140
   0.93008437  0.41578585  0.28390137
   0.41578585  0.93008437  0.78390137
   0.51429851  0.58421415  0.78390137
   0.48570149  0.06991563  0.28390137
Direct configuration=     6
   0.01197491  0.64732294  0.20767258
   0.63534803  0.98802509  0.20767258
   0.91152212  0.32099618  0.99090851
   0.64732294  0.01197491  0.70767258
   0.08847788  0.40947407  0.49090851
   0.32099618  0.91152212  0.49090851
   0.35267706  0.36465197  0.20767258
   0.59052593  0.67900382  0.49090851
   0.98802509  0.63534803  0.70767258
   0.36465197  0.35267706  0.70767258
   0.67900382  0.59052593  0.99090851
   0.40947407  0.08847788  0.99090851
   0.21376159  0.29975523  0.46470013
   0.08599364  0.78623841  0.46470013
   0.29975523  0.21376159  0.96470013
   0.70024477  0.91400636  0.46470013
   0.00000000  0.00000000  0.95535454
   0.07026966  0.48598317  0.78499332
   0.00000000  0.00000000  0.45535454
   0.66666667  0.33333333  0.49594950
   0.58428649  0.51401683  0.28499332
   0.78623841  0.08599364  0.96470013
   0.91400636  0.70024477  0.96470013
   0.33333333  0.66666667  0.99594950
   0.92973034  0.41571351  0.28499332
   0.41571351  0.92973034  0.78499332
   0.51401683  0.58428649  0.78499332
   0.48598317  0.07026966  0.28499332
Direct configuration=     7
   0.01192781  0.64745756  0.20819474
   0.63552975  0.98807219  0.20819474
   0.91156866  0.32091786  0.99094978
   0.64745756  0.01192781  0.70819474
   0.08843134  0.40934920  0.49094978
   0.32091786  0.91156866  0.49094978
   0.35254244  0.36447025  0.20819474
   0.59065080  0.67908214  0.49094978
   0.98807219  0.63552975  0.70819474
   0.36447025  0.35254244  0.70819474
   0.67908214  0.59065080  0.99094978
   0.40934920  0.08843134  0.99094978
   0.21348087  0.29940797  0.46472055
   0.08592710  0.78651913  0.46472055
   0.29940797  0.21348087  0.96472055
   0.70059203  0.91407290  0.46472055
   0.00000000  0.00000000  0.95552302
   0.07019210  0.48592146  0.78475409
   0.00000000  0.00000000  0.45552302
   0.66666667  0.33333333  0.49474715
   0.58427064  0.51407854  0.28475409
   0.78651913  0.08592710  0.96472055
   0.91407290  0.70059203  0.96472055
   0.33333333  0.66666667  0.99474715
   0.92980790  0.41572936  0.28475409
   0.41572936  0.92980790  0.78475409
   0.51407854  0.58427064  0.78475409
   0.48592146  0.07019210  0.28475409
Direct configuration=     8
   0.01206234  0.64692382  0.20791151
   0.63486149  0.98793766  0.20791151
   0.91153414  0.32127974  0.99108274
   0.64692382  0.01206234  0.70791151
   0.08846586  0.40974561  0.49108274
   0.32127974  0.91153414  0.49108274
   0.35307618  0.36513851  0.20791151
   0.59025439  0.67872026  0.49108274
   0.98793766  0.63486149  0.70791151
   0.36513851  0.35307618  0.70791151
   0.67872026  0.59025439  0.99108274
   0.40974561  0.08846586  0.99108274
   0.21361962  0.30049770  0.46342687
   0.08687809  0.78638038  0.46342687
   0.30049770  0.21361962  0.96342687
   0.69950230  0.91312191  0.46342687
   0.00000000  0.00000000  0.95475250
   0.07077503  0.48582331  0.78587106
   0.00000000  0.00000000  0.45475250
   0.66666667  0.33333333  0.49649864
   0.58495172  0.51417669  0.28587106
   0.78638038  0.08687809  0.96342687
   0.91312191  0.69950230  0.96342687
   0.33333333  0.66666667  0.99649864
   0.92922497  0.41504828  0.28587106
   0.41504828  0.92922497  0.78587106
   0.51417669  0.58495172  0.78587106
   0.48582331  0.07077503  0.28587106
Direct configuration=     9
   0.01205106  0.64696858  0.20793526
   0.63491752  0.98794894  0.20793526
   0.91153703  0.32124940  0.99107159
   0.64696858  0.01205106  0.70793526
   0.08846297  0.40971237  0.49107159
   0.32124940  0.91153703  0.49107159
   0.35303142  0.36508248  0.20793526
   0.59028763  0.67875060  0.49107159
   0.98794894  0.63491752  0.70793526
   0.36508248  0.35303142  0.70793526
   0.67875060  0.59028763  0.99107159
   0.40971237  0.08846297  0.99107159
   0.21360798  0.30040633  0.46353534
   0.08679835  0.78639202  0.46353534
   0.30040633  0.21360798  0.96353534
   0.69959367  0.91320165  0.46353534
   0.00000000  0.00000000  0.95481710
   0.07072615  0.48583154  0.78577741
   0.00000000  0.00000000  0.45481710
   0.66666667  0.33333333  0.49635178
   0.58489461  0.51416846  0.28577741
   0.78639202  0.08679835  0.96353534
   0.91320165  0.69959367  0.96353534
   0.33333333  0.66666667  0.99635178
   0.92927385  0.41510539  0.28577741
   0.41510539  0.92927385  0.78577741
   0.51416846  0.58489461  0.78577741
   0.48583154  0.07072615  0.28577741
Direct configuration=    10
   0.01159240  0.64648479  0.20740612
   0.63489240  0.98840760  0.20740612
   0.91145419  0.32146060  0.99179955
   0.64648479  0.01159240  0.70740612
   0.08854581  0.41000641  0.49179955
   0.32146060  0.91145419  0.49179955
   0.35351521  0.36510760  0.20740612
   0.58999359  0.67853940  0.49179955
   0.98840760  0.63489240  0.70740612
   0.36510760  0.35351521  0.70740612
   0.67853940  0.58999359  0.99179955
   0.41000641  0.08854581  0.99179955
   0.21365321  0.30056741  0.46309992
   0.08691420  0.78634679  0.46309992
   0.30056741  0.21365321  0.96309992
   0.69943259  0.91308580  0.46309992
   0.00000000  0.00000000  0.95413083
   0.07139424  0.48602143  0.78617369
   0.00000000  0.00000000  0.45413083
   0.66666667  0.33333333  0.49655897
   0.58537281  0.51397857  0.28617369
   0.78634679  0.08691420  0.96309992
   0.91308580  0.69943259  0.96309992
   0.33333333  0.66666667  0.99655897
   0.92860576  0.41462719  0.28617369
   0.41462719  0.92860576  0.78617369
   0.51397857  0.58537281  0.78617369
   0.48602143  0.07139424  0.28617369
Direct configuration=    11
   0.01167549  0.64657244  0.20750199
   0.63489695  0.98832451  0.20750199
   0.91146920  0.32142234  0.99166766
   0.64657244  0.01167549  0.70750199
   0.08853080  0.40995314  0.49166766
   0.32142234  0.91146920  0.49166766
   0.35342756  0.36510305  0.20750199
   0.59004686  0.67857766  0.49166766
   0.98832451  0.63489695  0.70750199
   0.36510305  0.35342756  0.70750199
   0.67857766  0.59004686  0.99166766
   0.40995314  0.08853080  0.99166766
   0.21364502  0.30053823  0.46317881
   0.08689321  0.78635498  0.46317881
   0.30053823  0.21364502  0.96317881
   0.69946177  0.91310679  0.46317881
   0.00000000  0.00000000  0.95425517
   0.07127320  0.48598703  0.78610190
   0.00000000  0.00000000  0.45425517
   0.66666667  0.33333333  0.49652143
   0.58528617  0.51401297  0.28610190
   0.78635498  0.08689321  0.96317881
   0.91310679  0.69946177  0.96317881
   0.33333333  0.66666667  0.99652143
   0.92872680  0.41471383  0.28610190
   0.41471383  0.92872680  0.78610190
   0.51401297  0.58528617  0.78610190
   0.48598703  0.07127320  0.28610190
Direct configuration=    12
   0.01132693  0.64643858  0.20752011
   0.63511165  0.98867307  0.20752011
   0.91144868  0.32133488  0.99174707
   0.64643858  0.01132693  0.70752011
   0.08855132  0.40988620  0.49174707
   0.32133488  0.91144868  0.49174707
   0.35356142  0.36488835  0.20752011
   0.59011380  0.67866512  0.49174707
   0.98867307  0.63511165  0.70752011
   0.36488835  0.35356142  0.70752011
   0.67866512  0.59011380  0.99174707
   0.40988620  0.08855132  0.99174707
   0.21372381  0.30050369  0.46278447
   0.08677987  0.78627619  0.46278447
   0.30050369  0.21372381  0.96278447
   0.69949631  0.91322013  0.46278447
   0.00000000  0.00000000  0.95362958
   0.07142078  0.48612075  0.78651804
   0.00000000  0.00000000  0.45362958
   0.66666667  0.33333333  0.49678905
   0.58530003  0.51387925  0.28651804
   0.78627619  0.08677987  0.96278447
   0.91322013  0.69949631  0.96278447
   0.33333333  0.66666667  0.99678905
   0.92857922  0.41469997  0.28651804
   0.41469997  0.92857922  0.78651804
   0.51387925  0.58530003  0.78651804
   0.48612075  0.07142078  0.28651804
Direct configuration=    13
   0.01122940  0.64640113  0.20752518
   0.63517173  0.98877060  0.20752518
   0.91144294  0.32131041  0.99176929
   0.64640113  0.01122940  0.70752518
   0.08855706  0.40986747  0.49176929
   0.32131041  0.91144294  0.49176929
   0.35359887  0.36482827  0.20752518
   0.59013253  0.67868959  0.49176929
   0.98877060  0.63517173  0.70752518
   0.36482827  0.35359887  0.70752518
   0.67868959  0.59013253  0.99176929
   0.40986747  0.08855706  0.99176929
   0.21374586  0.30049402  0.46267412
   0.08674816  0.78625414  0.46267412
   0.30049402  0.21374586  0.96267412
   0.69950598  0.91325184  0.46267412
   0.00000000  0.00000000  0.95345453
   0.07146207  0.48615816  0.78663448
   0.00000000  0.00000000  0.45345453
   0.66666667  0.33333333  0.49686394
   0.58530391  0.51384184  0.28663448
   0.78625414  0.08674816  0.96267412
   0.91325184  0.69950598  0.96267412
   0.33333333  0.66666667  0.99686394
   0.92853793  0.41469609  0.28663448
   0.41469609  0.92853793  0.78663448
   0.51384184  0.58530391  0.78663448
   0.48615816  0.07146207  0.28663448
Direct configuration=    14
   0.01082973  0.64625447  0.20752070
   0.63542474  0.98917027  0.20752070
   0.91146519  0.32122939  0.99188872
   0.64625447  0.01082973  0.70752070
   0.08853481  0.40976420  0.49188872
   0.32122939  0.91146519  0.49188872
   0.35374553  0.36457526  0.20752070
   0.59023580  0.67877061  0.49188872
   0.98917027  0.63542474  0.70752070
   0.36457526  0.35374553  0.70752070
   0.67877061  0.59023580  0.99188872
   0.40976420  0.08853481  0.99188872
   0.21363963  0.30041768  0.46251421
   0.08677805  0.78636037  0.46251421
   0.30041768  0.21363963  0.96251421
   0.69958232  0.91322195  0.46251421
   0.00000000  0.00000000  0.95267360
   0.07140280  0.48605691  0.78673199
   0.00000000  0.00000000  0.45267360
   0.66666667  0.33333333  0.49748724
   0.58534589  0.51394309  0.28673199
   0.78636037  0.08677805  0.96251421
   0.91322195  0.69958232  0.96251421
   0.33333333  0.66666667  0.99748724
   0.92859720  0.41465411  0.28673199
   0.41465411  0.92859720  0.78673199
   0.51394309  0.58534589  0.78673199
   0.48605691  0.07140280  0.28673199
Direct configuration=    15
   0.01063543  0.64618317  0.20751852
   0.63554774  0.98936457  0.20751852
   0.91147601  0.32119000  0.99194678
   0.64618317  0.01063543  0.70751852
   0.08852399  0.40971399  0.49194678
   0.32119000  0.91147601  0.49194678
   0.35381683  0.36445226  0.20751852
   0.59028601  0.67881000  0.49194678
   0.98936457  0.63554774  0.70751852
   0.36445226  0.35381683  0.70751852
   0.67881000  0.59028601  0.99194678
   0.40971399  0.08852399  0.99194678
   0.21358798  0.30038056  0.46243647
   0.08679258  0.78641202  0.46243647
   0.30038056  0.21358798  0.96243647
   0.69961944  0.91320742  0.46243647
   0.00000000  0.00000000  0.95229396
   0.07137398  0.48600769  0.78677939
   0.00000000  0.00000000  0.45229396
   0.66666667  0.33333333  0.49779026
   0.58536629  0.51399231  0.28677939
   0.78641202  0.08679258  0.96243647
   0.91320742  0.69961944  0.96243647
   0.33333333  0.66666667  0.99779026
   0.92862602  0.41463371  0.28677939
   0.41463371  0.92862602  0.78677939
   0.51399231  0.58536629  0.78677939
   0.48600769  0.07137398  0.28677939
