  28  28   0   0
  0.1127750E+02  0.8286742E-09  0.8286742E-09  0.5309730E-09  0.5000000E-15
  1.000000000000000E-004
  CAR 
 unknown system                          
     15.63295720    -11.88555574  301      8.70106920      1.00000000
    -11.886  0.0000E+00  0.0000E+00
    -11.794  0.0000E+00  0.0000E+00
    -11.702  0.0000E+00  0.0000E+00
    -11.610  0.0000E+00  0.0000E+00
    -11.519  0.8226E-35  0.7545E-36
    -11.427  0.2843E-28  0.2608E-29
    -11.335  0.1744E-22  0.1599E-23
    -11.243  0.1907E-17  0.1749E-18
    -11.152  0.3709E-13  0.3402E-14
    -11.060  0.1266E-09  0.1161E-10
    -10.968  0.7393E-07  0.6793E-08
    -10.877  0.6656E-05  0.6174E-06
    -10.785  0.4755E-04  0.4979E-05
    -10.693 -0.3660E-03 -0.2859E-04
    -10.601  0.3187E-02  0.2638E-03
    -10.510  0.1731E-01  0.1852E-02
    -10.418  0.2737E-01  0.4363E-02
    -10.326  0.3982E-01  0.8016E-02
    -10.234  0.3194E-01  0.1095E-01
    -10.143  0.4621E-01  0.1518E-01
    -10.051  0.4484E-01  0.1930E-01
     -9.959  0.8107E-01  0.2673E-01
     -9.868  0.8427E-01  0.3446E-01
     -9.776  0.6473E-01  0.4040E-01
     -9.684  0.8834E-01  0.4851E-01
     -9.592  0.3699E-01  0.5190E-01
     -9.501  0.3648E-01  0.5524E-01
     -9.409  0.2416E-01  0.5746E-01
     -9.317  0.6833E-02  0.5809E-01
     -9.225  0.5698E-01  0.6331E-01
     -9.134  0.7980E-01  0.7063E-01
     -9.042  0.2081E-01  0.7254E-01
     -8.950  0.1885E-01  0.7427E-01
     -8.859  0.8026E-01  0.8163E-01
     -8.767  0.1302E+00  0.9357E-01
     -8.675  0.7438E-01  0.1004E+00
     -8.583  0.5417E-01  0.1054E+00
     -8.492  0.5255E-01  0.1102E+00
     -8.400  0.3131E-01  0.1131E+00
     -8.308  0.4605E-01  0.1173E+00
     -8.216  0.1006E+00  0.1265E+00
     -8.125  0.1259E+00  0.1381E+00
     -8.033  0.1445E+00  0.1513E+00
     -7.941  0.1242E+00  0.1627E+00
     -7.850  0.1279E+00  0.1744E+00
     -7.758  0.9811E-01  0.1834E+00
     -7.666  0.7336E-01  0.1902E+00
     -7.574  0.7544E-01  0.1971E+00
     -7.483  0.1282E+00  0.2089E+00
     -7.391  0.2401E+00  0.2309E+00
     -7.299  0.1019E+00  0.2402E+00
     -7.207 -0.2246E-02  0.2400E+00
     -7.116 -0.4654E-03  0.2400E+00
     -7.024  0.2749E-03  0.2400E+00
     -6.932  0.6463E-05  0.2400E+00
     -6.840  0.1977E-07  0.2400E+00
     -6.749  0.9966E-11  0.2400E+00
     -6.657  0.8852E-15  0.2400E+00
     -6.565  0.0000E+00  0.2400E+00
     -6.474  0.0000E+00  0.2400E+00
     -6.382  0.0000E+00  0.2400E+00
     -6.290  0.0000E+00  0.2400E+00
     -6.198  0.0000E+00  0.2400E+00
     -6.107  0.0000E+00  0.2400E+00
     -6.015  0.0000E+00  0.2400E+00
     -5.923  0.0000E+00  0.2400E+00
     -5.831  0.0000E+00  0.2400E+00
     -5.740  0.0000E+00  0.2400E+00
     -5.648  0.0000E+00  0.2400E+00
     -5.556  0.0000E+00  0.2400E+00
     -5.465  0.0000E+00  0.2400E+00
     -5.373  0.0000E+00  0.2400E+00
     -5.281  0.0000E+00  0.2400E+00
     -5.189  0.0000E+00  0.2400E+00
     -5.098  0.0000E+00  0.2400E+00
     -5.006  0.0000E+00  0.2400E+00
     -4.914  0.0000E+00  0.2400E+00
     -4.822  0.0000E+00  0.2400E+00
     -4.731  0.0000E+00  0.2400E+00
     -4.639  0.0000E+00  0.2400E+00
     -4.547  0.0000E+00  0.2400E+00
     -4.456  0.0000E+00  0.2400E+00
     -4.364  0.0000E+00  0.2400E+00
     -4.272  0.3971E-29  0.2400E+00
     -4.180  0.3023E-23  0.2400E+00
     -4.089  0.4037E-18  0.2400E+00
     -3.997  0.9285E-14  0.2400E+00
     -3.905  0.3537E-10  0.2400E+00
     -3.813  0.2094E-07  0.2400E+00
     -3.722  0.1670E-05  0.2400E+00
     -3.630  0.1054E-04  0.2400E+00
     -3.538 -0.4578E-04  0.2400E+00
     -3.447  0.4436E-03  0.2400E+00
     -3.355  0.5820E-02  0.2406E+00
     -3.263  0.8890E-02  0.2414E+00
     -3.171  0.7272E-02  0.2421E+00
     -3.080  0.2171E-01  0.2440E+00
     -2.988  0.9844E-02  0.2449E+00
     -2.896  0.1538E-01  0.2464E+00
     -2.804  0.3863E-01  0.2499E+00
     -2.713  0.1039E-01  0.2509E+00
     -2.621  0.2657E-01  0.2533E+00
     -2.529  0.2504E-01  0.2556E+00
     -2.438  0.9346E-02  0.2564E+00
     -2.346  0.4521E-01  0.2606E+00
     -2.254  0.6340E-01  0.2664E+00
     -2.162  0.5213E-01  0.2712E+00
     -2.071  0.8828E-01  0.2793E+00
     -1.979  0.1026E+00  0.2887E+00
     -1.887  0.6205E-01  0.2944E+00
     -1.795  0.5219E-01  0.2992E+00
     -1.704  0.6397E-01  0.3050E+00
     -1.612  0.5590E-01  0.3102E+00
     -1.520  0.5244E-01  0.3150E+00
     -1.429  0.7209E-01  0.3216E+00
     -1.337  0.1102E+00  0.3317E+00
     -1.245  0.1057E+00  0.3414E+00
     -1.153  0.1109E+00  0.3516E+00
     -1.062  0.1014E+00  0.3609E+00
     -0.970  0.1084E+00  0.3708E+00
     -0.878  0.9396E-01  0.3794E+00
     -0.786  0.9812E-01  0.3884E+00
     -0.695  0.1133E+00  0.3988E+00
     -0.603  0.5681E-01  0.4040E+00
     -0.511  0.3867E-01  0.4076E+00
     -0.420  0.1499E-01  0.4090E+00
     -0.328  0.1630E-01  0.4105E+00
     -0.236  0.4636E-01  0.4147E+00
     -0.144  0.2442E-01  0.4170E+00
     -0.053  0.5803E-01  0.4223E+00
      0.039  0.9610E-01  0.4311E+00
      0.131  0.1134E+00  0.4415E+00
      0.223  0.1050E+00  0.4511E+00
      0.314  0.7659E-01  0.4582E+00
      0.406  0.6324E-01  0.4640E+00
      0.498  0.8135E-01  0.4714E+00
      0.590  0.8508E-01  0.4792E+00
      0.681  0.8707E-01  0.4872E+00
      0.773  0.6340E-01  0.4930E+00
      0.865  0.5451E-01  0.4980E+00
      0.956  0.7109E-01  0.5045E+00
      1.048  0.8437E-01  0.5123E+00
      1.140  0.1275E+00  0.5240E+00
      1.232  0.1223E+00  0.5352E+00
      1.323  0.9946E-01  0.5443E+00
      1.415  0.1224E+00  0.5556E+00
      1.507  0.1209E+00  0.5666E+00
      1.599  0.1216E+00  0.5778E+00
      1.690  0.6753E-01  0.5840E+00
      1.782  0.9031E-01  0.5923E+00
      1.874  0.1389E+00  0.6050E+00
      1.965  0.1123E+00  0.6153E+00
      2.057  0.8953E-01  0.6235E+00
      2.149  0.1075E+00  0.6334E+00
      2.241  0.1257E+00  0.6449E+00
      2.332  0.9866E-01  0.6540E+00
      2.424  0.9730E-01  0.6629E+00
      2.516  0.1214E+00  0.6740E+00
      2.608  0.1467E+00  0.6875E+00
      2.699  0.1313E+00  0.6995E+00
      2.791  0.8024E-01  0.7069E+00
      2.883  0.9358E-01  0.7155E+00
      2.974  0.1448E+00  0.7288E+00
      3.066  0.1523E+00  0.7427E+00
      3.158  0.1161E+00  0.7534E+00
      3.250  0.8007E-01  0.7607E+00
      3.341  0.1055E+00  0.7704E+00
      3.433  0.1129E+00  0.7808E+00
      3.525  0.1074E+00  0.7906E+00
      3.617  0.1331E+00  0.8028E+00
      3.708  0.1578E+00  0.8173E+00
      3.800  0.1288E+00  0.8291E+00
      3.892  0.1112E+00  0.8393E+00
      3.983  0.9803E-01  0.8483E+00
      4.075  0.1205E+00  0.8593E+00
      4.167  0.9442E-01  0.8680E+00
      4.259  0.7729E-01  0.8751E+00
      4.350  0.1053E+00  0.8848E+00
      4.442  0.1248E+00  0.8962E+00
      4.534  0.1498E+00  0.9099E+00
      4.626  0.8463E-01  0.9177E+00
      4.717  0.6902E-01  0.9240E+00
      4.809  0.1072E+00  0.9339E+00
      4.901  0.1315E+00  0.9459E+00
      4.992  0.1251E+00  0.9574E+00
      5.084  0.1138E+00  0.9678E+00
      5.176  0.1198E+00  0.9788E+00
      5.268  0.8036E-01  0.9862E+00
      5.359  0.8201E-01  0.9937E+00
      5.451  0.1248E+00  0.1005E+01
      5.543  0.1647E+00  0.1020E+01
      5.635  0.1636E+00  0.1035E+01
      5.726  0.6897E-01  0.1042E+01
      5.818  0.8096E-01  0.1049E+01
      5.910  0.6262E-01  0.1055E+01
      6.001  0.6504E-01  0.1061E+01
      6.093  0.6737E-01  0.1067E+01
      6.185  0.1206E+00  0.1078E+01
      6.277  0.1243E+00  0.1089E+01
      6.368  0.1279E+00  0.1101E+01
      6.460  0.1720E+00  0.1117E+01
      6.552  0.1199E+00  0.1128E+01
      6.644  0.4918E-01  0.1132E+01
      6.735  0.4023E-01  0.1136E+01
      6.827  0.3143E-01  0.1139E+01
      6.919  0.6617E-01  0.1145E+01
      7.010  0.7248E-01  0.1152E+01
      7.102  0.9299E-01  0.1160E+01
      7.194  0.1045E+00  0.1170E+01
      7.286  0.1179E+00  0.1181E+01
      7.377  0.8909E-01  0.1189E+01
      7.469  0.5421E-01  0.1194E+01
      7.561  0.3721E-01  0.1197E+01
      7.653  0.4497E-01  0.1201E+01
      7.744  0.9002E-01  0.1210E+01
      7.836  0.6646E-01  0.1216E+01
      7.928  0.2159E-01  0.1218E+01
      8.020 -0.1990E-02  0.1217E+01
      8.111  0.1785E-03  0.1217E+01
      8.203  0.2710E-02  0.1218E+01
      8.295  0.8985E-02  0.1219E+01
      8.386  0.1634E-01  0.1220E+01
      8.478  0.3234E-01  0.1223E+01
      8.570  0.4246E-01  0.1227E+01
      8.662  0.7638E-01  0.1234E+01
      8.753  0.1652E+00  0.1249E+01
      8.845  0.9742E-01  0.1258E+01
      8.937  0.3916E-01  0.1262E+01
      9.029  0.9870E-02  0.1263E+01
      9.120 -0.3437E-03  0.1262E+01
      9.212  0.3215E-04  0.1262E+01
      9.304  0.2567E-04  0.1262E+01
      9.395  0.7070E-06  0.1262E+01
      9.487  0.3037E-08  0.1262E+01
      9.579  0.2184E-11  0.1263E+01
      9.671  0.1484E-10  0.1263E+01
      9.762  0.2611E-07  0.1263E+01
      9.854  0.6911E-05  0.1263E+01
      9.946  0.1802E-03  0.1263E+01
     10.038 -0.1347E-02  0.1262E+01
     10.129  0.6386E-02  0.1263E+01
     10.221  0.4311E-01  0.1267E+01
     10.313  0.7742E-02  0.1268E+01
     10.404 -0.3822E-03  0.1268E+01
     10.496  0.6199E-02  0.1268E+01
     10.588  0.1123E-01  0.1269E+01
     10.680  0.1524E-01  0.1271E+01
     10.771  0.1484E-01  0.1272E+01
     10.863  0.2722E-01  0.1274E+01
     10.955  0.6541E-01  0.1280E+01
     11.047  0.9184E-01  0.1289E+01
     11.138  0.1048E+00  0.1299E+01
     11.230  0.1557E+00  0.1313E+01
     11.322  0.1189E+00  0.1324E+01
     11.413  0.6219E-01  0.1329E+01
     11.505  0.8777E-01  0.1337E+01
     11.597  0.1138E+00  0.1348E+01
     11.689  0.4990E-01  0.1352E+01
     11.780  0.5141E-01  0.1357E+01
     11.872  0.3033E-01  0.1360E+01
     11.964  0.3976E-01  0.1364E+01
     12.056  0.6291E-01  0.1369E+01
     12.147  0.4632E-01  0.1374E+01
     12.239  0.7489E-01  0.1380E+01
     12.331  0.1207E+00  0.1392E+01
     12.422  0.7147E-01  0.1398E+01
     12.514  0.8318E-01  0.1406E+01
     12.606  0.9445E-01  0.1414E+01
     12.698  0.1020E+00  0.1424E+01
     12.789  0.1147E+00  0.1434E+01
     12.881  0.7946E-01  0.1442E+01
     12.973  0.6152E-01  0.1447E+01
     13.065  0.9527E-01  0.1456E+01
     13.156  0.1101E+00  0.1466E+01
     13.248  0.1199E+00  0.1477E+01
     13.340  0.1026E+00  0.1486E+01
     13.431  0.1167E+00  0.1497E+01
     13.523  0.1374E+00  0.1510E+01
     13.615  0.1395E+00  0.1523E+01
     13.707  0.1770E+00  0.1539E+01
     13.798  0.1951E+00  0.1557E+01
     13.890  0.1451E+00  0.1570E+01
     13.982  0.1558E+00  0.1584E+01
     14.074  0.1034E+00  0.1594E+01
     14.165  0.5775E-01  0.1599E+01
     14.257  0.8869E-02  0.1600E+01
     14.349 -0.3045E-03  0.1600E+01
     14.440  0.1311E-02  0.1600E+01
     14.532  0.7113E-04  0.1600E+01
     14.624 -0.1998E-04  0.1600E+01
     14.716  0.3892E-05  0.1600E+01
     14.807  0.8161E-07  0.1600E+01
     14.899  0.1863E-09  0.1600E+01
     14.991  0.6332E-13  0.1600E+01
     15.083  0.3530E-17  0.1600E+01
     15.174  0.0000E+00  0.1600E+01
     15.266  0.0000E+00  0.1600E+01
     15.358  0.0000E+00  0.1600E+01
     15.450  0.0000E+00  0.1600E+01
     15.541  0.0000E+00  0.1600E+01
     15.633  0.0000E+00  0.1600E+01
