   28   28  100    1
  0.1127750E+02  0.8286742E-09  0.8286742E-09  0.5309730E-09  0.5000000E-15
  1.000000000000000E-004
  CAR 
 unknown system                          
    124     44     80
 
  0.3742002E-15  0.3742002E-15  0.3742002E-15  0.3472222E-02
    1      -10.634714   1.000000
    2       -9.875611   1.000000
    3       -9.875611   1.000000
    4       -8.899894   1.000000
    5       -8.899894   1.000000
    6       -8.196717   1.000000
    7       -7.700069   1.000000
    8       -7.700069   1.000000
    9       -7.675588   1.000000
   10       -7.629520   1.000000
   11       -7.529972   1.000000
   12       -7.529972   1.000000
   13       -3.467401   1.000000
   14       -2.364242   1.000000
   15       -2.364242   1.000000
   16       -2.202897   1.000000
   17       -1.153747   1.000000
   18       -1.027236   1.000000
   19       -1.027236   1.000000
   20       -0.519680   1.000000
   21       -0.122147   1.000000
   22       -0.122147   1.000000
   23        0.105226   1.000000
   24        0.658397   1.000000
   25        0.658397   1.000000
   26        0.851384   1.000000
   27        0.971401   1.000000
   28        1.552923   1.000000
   29        1.555202   1.000000
   30        1.555202   1.000000
   31        1.734803   1.000000
   32        2.333093   1.000000
   33        2.333093   1.000000
   34        2.618751   1.000000
   35        2.821170   1.000000
   36        2.821170   1.000000
   37        3.056392   1.000000
   38        3.056393   1.000000
   39        3.072823   1.000000
   40        3.580220   1.000000
   41        3.580220   1.000000
   42        4.236636   1.000000
   43        4.236636   1.000000
   44        4.354399   1.000000
   45        4.399178   1.000000
   46        4.399178   1.000000
   47        4.902064   1.000000
   48        4.933716   1.000000
   49        5.330955   1.000000
   50        5.525118   1.000000
   51        5.525118   1.000000
   52        5.730523   1.000000
   53        5.920304   1.000000
   54        6.000080   1.000000
   55        6.000080   1.000000
   56        6.453642   1.000000
   57        6.453642   1.000000
   58        7.257127   1.000000
   59        7.257128   1.000000
   60        7.846860   1.000000
   61        7.846860   1.000000
   62        8.136619   1.000000
   63        9.014242   0.000158
   64       10.340423   0.000000
   65       10.340423   0.000000
   66       11.251543   0.000000
   67       11.251543   0.000000
   68       11.827118   0.000000
   69       11.827118   0.000000
   70       12.271222   0.000000
   71       12.337512   0.000000
   72       12.668959   0.000000
   73       13.148027   0.000000
   74       13.148027   0.000000
   75       13.257509   0.000000
   76       13.639995   0.000000
   77       13.639995   0.000000
   78       13.723794   0.000000
   79       14.126212   0.000000
   80       14.126213   0.000000
 
  0.1666667E+00  0.1256217E-14  0.3742002E-15  0.2083333E-01
    1      -10.599021   1.000000
    2       -9.947467   1.000000
    3       -9.902377   1.000000
    4       -8.865583   1.000000
    5       -8.822702   1.000000
    6       -8.159909   1.000000
    7       -7.831315   1.000000
    8       -7.719750   1.000000
    9       -7.678089   1.000000
   10       -7.619777   1.000000
   11       -7.531298   1.000000
   12       -7.486090   1.000000
   13       -3.373578   1.000000
   14       -2.377757   1.000000
   15       -2.278132   1.000000
   16       -2.131376   1.000000
   17       -1.251460   1.000000
   18       -1.111508   1.000000
   19       -1.034077   1.000000
   20       -0.748939   1.000000
   21       -0.348717   1.000000
   22       -0.033967   1.000000
   23        0.074176   1.000000
   24        0.503784   1.000000
   25        0.760640   1.000000
   26        1.022057   1.000000
   27        1.160575   1.000000
   28        1.470543   1.000000
   29        1.484592   1.000000
   30        1.611720   1.000000
   31        1.869240   1.000000
   32        2.306099   1.000000
   33        2.431138   1.000000
   34        2.588703   1.000000
   35        2.790269   1.000000
   36        2.859771   1.000000
   37        3.047795   1.000000
   38        3.078399   1.000000
   39        3.279492   1.000000
   40        3.612529   1.000000
   41        3.627853   1.000000
   42        4.124721   1.000000
   43        4.184358   1.000000
   44        4.301821   1.000000
   45        4.434812   1.000000
   46        4.476665   1.000000
   47        4.853714   1.000000
   48        4.932006   1.000000
   49        4.994639   1.000000
   50        5.541473   1.000000
   51        5.668205   1.000000
   52        5.779868   1.000000
   53        5.898211   1.000000
   54        6.017073   1.000000
   55        6.160873   1.000000
   56        6.402479   1.000000
   57        6.467994   1.000000
   58        7.121009   1.000000
   59        7.189340   1.000000
   60        7.725949   1.000000
   61        7.821735   1.000000
   62        8.199947   1.000000
   63        8.933442   0.003321
   64       10.466069   0.000000
   65       10.534158   0.000000
   66       11.185463   0.000000
   67       11.214902   0.000000
   68       11.718769   0.000000
   69       11.933222   0.000000
   70       12.405150   0.000000
   71       12.544475   0.000000
   72       12.703124   0.000000
   73       12.935252   0.000000
   74       13.079353   0.000000
   75       13.326547   0.000000
   76       13.477664   0.000000
   77       13.772365   0.000000
   78       13.830059   0.000000
   79       14.084926   0.000000
   80       14.147771   0.000000
 
  0.3333333E+00  0.3602319E-15  0.3742002E-15  0.2083333E-01
    1      -10.498824   1.000000
    2      -10.112154   1.000000
    3       -9.948802   1.000000
    4       -8.813502   1.000000
    5       -8.619852   1.000000
    6       -8.073520   1.000000
    7       -8.058983   1.000000
    8       -7.788540   1.000000
    9       -7.688698   1.000000
   10       -7.600363   1.000000
   11       -7.533857   1.000000
   12       -7.458300   1.000000
   13       -3.111402   1.000000
   14       -2.410238   1.000000
   15       -2.095477   1.000000
   16       -2.013230   1.000000
   17       -1.548965   1.000000
   18       -1.202837   1.000000
   19       -1.105329   1.000000
   20       -0.970567   1.000000
   21       -0.713544   1.000000
   22       -0.005079   1.000000
   23        0.098440   1.000000
   24        0.229634   1.000000
   25        0.867588   1.000000
   26        1.215583   1.000000
   27        1.339492   1.000000
   28        1.401671   1.000000
   29        1.618750   1.000000
   30        1.780514   1.000000
   31        2.144675   1.000000
   32        2.215242   1.000000
   33        2.436928   1.000000
   34        2.523453   1.000000
   35        2.722550   1.000000
   36        2.931806   1.000000
   37        3.066347   1.000000
   38        3.157768   1.000000
   39        3.528327   1.000000
   40        3.592349   1.000000
   41        3.704820   1.000000
   42        4.007927   1.000000
   43        4.111814   1.000000
   44        4.311327   1.000000
   45        4.417608   1.000000
   46        4.620548   1.000000
   47        4.776043   1.000000
   48        4.961705   1.000000
   49        5.009725   1.000000
   50        5.446779   1.000000
   51        5.564920   1.000000
   52        5.775086   1.000000
   53        5.801970   1.000000
   54        6.049623   1.000000
   55        6.259259   1.000000
   56        6.343057   1.000000
   57        6.497421   1.000000
   58        6.920662   1.000000
   59        7.078145   1.000000
   60        7.496589   1.000000
   61        7.848183   1.000000
   62        8.345624   0.999985
   63        8.771256  -0.021459
   64       10.711178   0.000000
   65       10.941218   0.000000
   66       11.058263   0.000000
   67       11.177975   0.000000
   68       11.666594   0.000000
   69       12.110882   0.000000
   70       12.440096   0.000000
   71       12.480349   0.000000
   72       12.700901   0.000000
   73       13.033617   0.000000
   74       13.262278   0.000000
   75       13.436710   0.000000
   76       13.558470   0.000000
   77       13.622145   0.000000
   78       13.792763   0.000000
   79       13.944866   0.000000
   80       13.957518   0.000000
 
  0.5000000E+00  0.3375528E-15  0.3742002E-15  0.1041667E-01
    1      -10.396268   1.000000
    2      -10.243800   1.000000
    3       -9.969372   1.000000
    4       -8.793304   1.000000
    5       -8.353952   1.000000
    6       -8.350057   1.000000
    7       -7.959139   1.000000
    8       -7.872325   1.000000
    9       -7.692545   1.000000
   10       -7.589701   1.000000
   11       -7.535338   1.000000
   12       -7.455281   1.000000
   13       -2.862220   1.000000
   14       -2.512707   1.000000
   15       -2.099482   1.000000
   16       -1.952395   1.000000
   17       -1.454043   1.000000
   18       -1.420399   1.000000
   19       -1.180638   1.000000
   20       -0.981735   1.000000
   21       -0.899165   1.000000
   22       -0.053496   1.000000
   23        0.095193   1.000000
   24        0.176922   1.000000
   25        0.914086   1.000000
   26        1.226419   1.000000
   27        1.270043   1.000000
   28        1.583783   1.000000
   29        1.789387   1.000000
   30        1.843815   1.000000
   31        2.076008   1.000000
   32        2.296010   1.000000
   33        2.443199   1.000000
   34        2.532785   1.000000
   35        2.683297   1.000000
   36        3.002737   1.000000
   37        3.004264   1.000000
   38        3.124325   1.000000
   39        3.452931   1.000000
   40        3.686211   1.000000
   41        3.785400   1.000000
   42        4.040573   1.000000
   43        4.086764   1.000000
   44        4.198695   1.000000
   45        4.433575   1.000000
   46        4.772046   1.000000
   47        4.782601   1.000000
   48        5.104695   1.000000
   49        5.171250   1.000000
   50        5.362140   1.000000
   51        5.389911   1.000000
   52        5.711522   1.000000
   53        5.770472   1.000000
   54        6.002405   1.000000
   55        6.122068   1.000000
   56        6.394345   1.000000
   57        6.423624   1.000000
   58        6.809325   1.000000
   59        7.224480   1.000000
   60        7.325099   1.000000
   61        7.890666   1.000000
   62        8.458758   0.997410
   63        8.656874   0.903467
   64       10.881438   0.000000
   65       10.954927   0.000000
   66       11.074175   0.000000
   67       11.349528   0.000000
   68       11.542575   0.000000
   69       12.251664   0.000000
   70       12.274204   0.000000
   71       12.463961   0.000000
   72       12.736524   0.000000
   73       13.130396   0.000000
   74       13.278819   0.000000
   75       13.471575   0.000000
   76       13.481223   0.000000
   77       13.675747   0.000000
   78       13.753339   0.000000
   79       13.818902   0.000000
   80       14.011298   0.000000
 
  0.1666667E+00  0.1666667E+00  0.3742002E-15  0.2083333E-01
    1      -10.530598   1.000000
    2      -10.051758   1.000000
    3       -9.953731   1.000000
    4       -8.785597   1.000000
    5       -8.720874   1.000000
    6       -8.089273   1.000000
    7       -8.007012   1.000000
    8       -7.746102   1.000000
    9       -7.700427   1.000000
   10       -7.605440   1.000000
   11       -7.531168   1.000000
   12       -7.465160   1.000000
   13       -3.193069   1.000000
   14       -2.368799   1.000000
   15       -2.172153   1.000000
   16       -2.040128   1.000000
   17       -1.392764   1.000000
   18       -1.323611   1.000000
   19       -1.030540   1.000000
   20       -0.946241   1.000000
   21       -0.556550   1.000000
   22       -0.028136   1.000000
   23        0.036948   1.000000
   24        0.346733   1.000000
   25        0.786478   1.000000
   26        1.237950   1.000000
   27        1.301711   1.000000
   28        1.425936   1.000000
   29        1.543599   1.000000
   30        1.734040   1.000000
   31        2.074324   1.000000
   32        2.259080   1.000000
   33        2.440520   1.000000
   34        2.625949   1.000000
   35        2.650490   1.000000
   36        2.905041   1.000000
   37        3.076692   1.000000
   38        3.145597   1.000000
   39        3.457056   1.000000
   40        3.604284   1.000000
   41        3.655959   1.000000
   42        4.059434   1.000000
   43        4.107459   1.000000
   44        4.323031   1.000000
   45        4.445975   1.000000
   46        4.542090   1.000000
   47        4.811580   1.000000
   48        4.951998   1.000000
   49        4.953150   1.000000
   50        5.560380   1.000000
   51        5.573591   1.000000
   52        5.801810   1.000000
   53        5.825076   1.000000
   54        6.022732   1.000000
   55        6.273977   1.000000
   56        6.314701   1.000000
   57        6.513940   1.000000
   58        6.882181   1.000000
   59        7.147340   1.000000
   60        7.589304   1.000000
   61        7.817958   1.000000
   62        8.303267   0.999999
   63        8.815972  -0.042260
   64       10.661908   0.000000
   65       10.818564   0.000000
   66       11.070326   0.000000
   67       11.154243   0.000000
   68       11.819797   0.000000
   69       11.909787   0.000000
   70       12.532807   0.000000
   71       12.557411   0.000000
   72       12.727203   0.000000
   73       13.051203   0.000000
   74       13.069892   0.000000
   75       13.391155   0.000000
   76       13.516909   0.000000
   77       13.705897   0.000000
   78       13.746474   0.000000
   79       13.943842   0.000000
   80       14.030741   0.000000
 
  0.3333333E+00  0.1666667E+00  0.3742002E-15  0.4166667E-01
    1      -10.411419   1.000000
    2      -10.202014   1.000000
    3      -10.003557   1.000000
    4       -8.718916   1.000000
    5       -8.522360   1.000000
    6       -8.259535   1.000000
    7       -7.973764   1.000000
    8       -7.815411   1.000000
    9       -7.719790   1.000000
   10       -7.590645   1.000000
   11       -7.526441   1.000000
   12       -7.467399   1.000000
   13       -2.889751   1.000000
   14       -2.394072   1.000000
   15       -2.145197   1.000000
   16       -2.027037   1.000000
   17       -1.515498   1.000000
   18       -1.391764   1.000000
   19       -1.127210   1.000000
   20       -1.006405   1.000000
   21       -0.831225   1.000000
   22       -0.036408   1.000000
   23        0.048188   1.000000
   24        0.166343   1.000000
   25        0.821907   1.000000
   26        1.277327   1.000000
   27        1.319404   1.000000
   28        1.565275   1.000000
   29        1.786923   1.000000
   30        1.892467   1.000000
   31        2.155623   1.000000
   32        2.285269   1.000000
   33        2.403736   1.000000
   34        2.564965   1.000000
   35        2.663898   1.000000
   36        2.886681   1.000000
   37        3.063328   1.000000
   38        3.191996   1.000000
   39        3.463316   1.000000
   40        3.536550   1.000000
   41        3.703195   1.000000
   42        3.956293   1.000000
   43        4.029381   1.000000
   44        4.360860   1.000000
   45        4.521973   1.000000
   46        4.760406   1.000000
   47        4.884132   1.000000
   48        5.054025   1.000000
   49        5.110966   1.000000
   50        5.422082   1.000000
   51        5.535943   1.000000
   52        5.710757   1.000000
   53        5.782108   1.000000
   54        6.019739   1.000000
   55        6.166125   1.000000
   56        6.225119   1.000000
   57        6.380891   1.000000
   58        6.612962   1.000000
   59        7.305007   1.000000
   60        7.481843   1.000000
   61        7.847077   1.000000
   62        8.445862   0.998237
   63        8.670676   0.799529
   64       10.868687   0.000000
   65       10.920491   0.000000
   66       11.072202   0.000000
   67       11.255306   0.000000
   68       11.703845   0.000000
   69       12.044621   0.000000
   70       12.398052   0.000000
   71       12.647313   0.000000
   72       12.694578   0.000000
   73       13.087784   0.000000
   74       13.202168   0.000000
   75       13.492971   0.000000
   76       13.587046   0.000000
   77       13.692914   0.000000
   78       13.764614   0.000000
   79       13.860187   0.000000
   80       13.915139   0.000000
 
  0.3333333E+00  0.3333333E+00  0.3742002E-15  0.6944444E-02
    1      -10.298422   1.000000
    2      -10.298422   1.000000
    3      -10.051695   1.000000
    4       -8.560388   1.000000
    5       -8.469325   1.000000
    6       -8.469325   1.000000
    7       -7.908759   1.000000
    8       -7.789299   1.000000
    9       -7.789299   1.000000
   10       -7.586649   1.000000
   11       -7.498883   1.000000
   12       -7.498883   1.000000
   13       -2.703754   1.000000
   14       -2.253328   1.000000
   15       -2.253328   1.000000
   16       -2.241926   1.000000
   17       -1.440851   1.000000
   18       -1.440851   1.000000
   19       -1.029439   1.000000
   20       -1.029439   1.000000
   21       -1.004139   1.000000
   22        0.003233   1.000000
   23        0.003233   1.000000
   24        0.091278   1.000000
   25        0.771005   1.000000
   26        1.326390   1.000000
   27        1.326390   1.000000
   28        1.639818   1.000000
   29        1.957761   1.000000
   30        1.957761   1.000000
   31        2.237179   1.000000
   32        2.237179   1.000000
   33        2.261815   1.000000
   34        2.748348   1.000000
   35        2.755834   1.000000
   36        2.755834   1.000000
   37        2.894588   1.000000
   38        3.360609   1.000000
   39        3.360609   1.000000
   40        3.402587   1.000000
   41        3.790464   1.000000
   42        3.790464   1.000000
   43        3.928242   1.000000
   44        4.528442   1.000000
   45        4.528443   1.000000
   46        4.939595   1.000000
   47        4.949562   1.000000
   48        5.140047   1.000000
   49        5.140047   1.000000
   50        5.460419   1.000000
   51        5.630888   1.000000
   52        5.630888   1.000000
   53        5.936161   1.000000
   54        5.936161   1.000000
   55        6.007106   1.000000
   56        6.178993   1.000000
   57        6.178993   1.000000
   58        6.352082   1.000000
   59        7.509088   1.000000
   60        7.509088   1.000000
   61        7.801859   1.000000
   62        8.559556   1.017665
   63        8.559556   1.017665
   64       10.893535   0.000000
   65       10.893535   0.000000
   66       11.201469   0.000000
   67       11.201469   0.000000
   68       11.735276   0.000000
   69       12.178672   0.000000
   70       12.178672   0.000000
   71       12.608023   0.000000
   72       12.884472   0.000000
   73       13.124869   0.000000
   74       13.124869   0.000000
   75       13.548986   0.000000
   76       13.608517   0.000000
   77       13.781775   0.000000
   78       13.781775   0.000000
   79       13.883001   0.000000
   80       13.883001   0.000000
 
  0.3742002E-15  0.3742002E-15  0.1250000E+00  0.6944444E-02
    1      -10.579183   1.000000
    2       -9.824488   1.000000
    3       -9.824488   1.000000
    4       -8.875407   1.000000
    5       -8.875407   1.000000
    6       -8.441431   1.000000
    7       -7.817583   1.000000
    8       -7.817583   1.000000
    9       -7.649512   1.000000
   10       -7.573117   1.000000
   11       -7.573117   1.000000
   12       -7.493834   1.000000
   13       -3.405851   1.000000
   14       -2.191875   1.000000
   15       -2.191875   1.000000
   16       -2.185404   1.000000
   17       -1.166214   1.000000
   18       -0.971139   1.000000
   19       -0.971139   1.000000
   20       -0.614968   1.000000
   21       -0.087930   1.000000
   22       -0.087930   1.000000
   23        0.183371   1.000000
   24        0.613140   1.000000
   25        0.636237   1.000000
   26        0.636237   1.000000
   27        0.975773   1.000000
   28        1.566900   1.000000
   29        1.566901   1.000000
   30        1.744674   1.000000
   31        1.925372   1.000000
   32        2.317991   1.000000
   33        2.317991   1.000000
   34        2.584090   1.000000
   35        2.780704   1.000000
   36        2.780704   1.000000
   37        2.993363   1.000000
   38        2.993363   1.000000
   39        3.137159   1.000000
   40        3.490052   1.000000
   41        3.490052   1.000000
   42        4.230497   1.000000
   43        4.230497   1.000000
   44        4.293479   1.000000
   45        4.384969   1.000000
   46        4.384969   1.000000
   47        4.797656   1.000000
   48        4.826086   1.000000
   49        5.358965   1.000000
   50        5.380080   1.000000
   51        5.380080   1.000000
   52        5.569139   1.000000
   53        5.999181   1.000000
   54        5.999181   1.000000
   55        6.108696   1.000000
   56        6.543215   1.000000
   57        6.543215   1.000000
   58        7.267331   1.000000
   59        7.267331   1.000000
   60        7.803462   1.000000
   61        7.803462   1.000000
   62        8.248350   1.000000
   63        8.903474   0.004935
   64       10.478001   0.000000
   65       10.478001   0.000000
   66       11.305496   0.000000
   67       11.305496   0.000000
   68       11.990254   0.000000
   69       11.990254   0.000000
   70       12.194787   0.000000
   71       12.390724   0.000000
   72       12.904851   0.000000
   73       12.962891   0.000000
   74       12.962891   0.000000
   75       13.366951   0.000000
   76       13.626152   0.000000
   77       13.633086   0.000000
   78       13.633086   0.000000
   79       13.991166   0.000000
   80       13.991166   0.000000
 
  0.1666667E+00  0.1256217E-14  0.1250000E+00  0.4166667E-01
    1      -10.543817   1.000000
    2       -9.896612   1.000000
    3       -9.850809   1.000000
    4       -8.843284   1.000000
    5       -8.800685   1.000000
    6       -8.400655   1.000000
    7       -7.882508   1.000000
    8       -7.840746   1.000000
    9       -7.752771   1.000000
   10       -7.580987   1.000000
   11       -7.488986   1.000000
   12       -7.475697   1.000000
   13       -3.310033   1.000000
   14       -2.237146   1.000000
   15       -2.114047   1.000000
   16       -2.085727   1.000000
   17       -1.245165   1.000000
   18       -1.086461   1.000000
   19       -0.984184   1.000000
   20       -0.763997   1.000000
   21       -0.315180   1.000000
   22       -0.035804   1.000000
   23        0.189905   1.000000
   24        0.511881   1.000000
   25        0.607514   1.000000
   26        0.880106   1.000000
   27        1.118660   1.000000
   28        1.462106   1.000000
   29        1.511438   1.000000
   30        1.864691   1.000000
   31        1.952459   1.000000
   32        2.230409   1.000000
   33        2.403894   1.000000
   34        2.541543   1.000000
   35        2.767121   1.000000
   36        2.868639   1.000000
   37        2.965926   1.000000
   38        3.046950   1.000000
   39        3.289017   1.000000
   40        3.521616   1.000000
   41        3.601802   1.000000
   42        4.068960   1.000000
   43        4.213525   1.000000
   44        4.313949   1.000000
   45        4.372238   1.000000
   46        4.532733   1.000000
   47        4.710845   1.000000
   48        4.850144   1.000000
   49        5.161169   1.000000
   50        5.397349   1.000000
   51        5.542846   1.000000
   52        5.585915   1.000000
   53        5.954801   1.000000
   54        6.046454   1.000000
   55        6.183735   1.000000
   56        6.435814   1.000000
   57        6.542118   1.000000
   58        7.147113   1.000000
   59        7.188443   1.000000
   60        7.678104   1.000000
   61        7.783394   1.000000
   62        8.309620   0.999999
   63        8.862390  -0.003870
   64       10.581911   0.000000
   65       10.651298   0.000000
   66       11.260710   0.000000
   67       11.293356   0.000000
   68       11.808500   0.000000
   69       12.043121   0.000000
   70       12.282867   0.000000
   71       12.571363   0.000000
   72       12.838590   0.000000
   73       12.915279   0.000000
   74       13.136019   0.000000
   75       13.155565   0.000000
   76       13.391737   0.000000
   77       13.758744   0.000000
   78       13.799497   0.000000
   79       13.960688   0.000000
   80       14.173096   0.000000
 
  0.3333333E+00  0.3602319E-15  0.1250000E+00  0.4166667E-01
    1      -10.444567   1.000000
    2      -10.060662   1.000000
    3       -9.896674   1.000000
    4       -8.799417   1.000000
    5       -8.605221   1.000000
    6       -8.284178   1.000000
    7       -8.083163   1.000000
    8       -7.956517   1.000000
    9       -7.788023   1.000000
   10       -7.586482   1.000000
   11       -7.446750   1.000000
   12       -7.431695   1.000000
   13       -3.045319   1.000000
   14       -2.281226   1.000000
   15       -1.967280   1.000000
   16       -1.945722   1.000000
   17       -1.522056   1.000000
   18       -1.212971   1.000000
   19       -1.062175   1.000000
   20       -0.946108   1.000000
   21       -0.653958   1.000000
   22        0.061845   1.000000
   23        0.209971   1.000000
   24        0.309788   1.000000
   25        0.681736   1.000000
   26        1.116377   1.000000
   27        1.226607   1.000000
   28        1.302711   1.000000
   29        1.553822   1.000000
   30        1.887301   1.000000
   31        2.158177   1.000000
   32        2.206253   1.000000
   33        2.419789   1.000000
   34        2.514695   1.000000
   35        2.695912   1.000000
   36        2.935583   1.000000
   37        3.026452   1.000000
   38        3.160897   1.000000
   39        3.424579   1.000000
   40        3.630338   1.000000
   41        3.743018   1.000000
   42        3.999932   1.000000
   43        4.084755   1.000000
   44        4.324071   1.000000
   45        4.435601   1.000000
   46        4.634807   1.000000
   47        4.783466   1.000000
   48        4.941181   1.000000
   49        5.112798   1.000000
   50        5.440279   1.000000
   51        5.489033   1.000000
   52        5.626896   1.000000
   53        5.766838   1.000000
   54        5.928300   1.000000
   55        6.300491   1.000000
   56        6.349632   1.000000
   57        6.529387   1.000000
   58        6.958384   1.000000
   59        7.005488   1.000000
   60        7.433538   1.000000
   61        7.801015   1.000000
   62        8.446116   0.998222
   63        8.766145  -0.006190
   64       10.800458   0.000000
   65       10.981373   0.000000
   66       11.142558   0.000000
   67       11.272483   0.000000
   68       11.732447   0.000000
   69       12.120051   0.000000
   70       12.344188   0.000000
   71       12.506118   0.000000
   72       12.666326   0.000000
   73       13.023720   0.000000
   74       13.188230   0.000000
   75       13.409000   0.000000
   76       13.464330   0.000000
   77       13.620861   0.000000
   78       13.681888   0.000000
   79       13.937832   0.000000
   80       14.079410   0.000000
 
  0.5000000E+00  0.3375528E-15  0.1250000E+00  0.2083333E-01
    1      -10.343297   1.000000
    2      -10.191050   1.000000
    3       -9.917004   1.000000
    4       -8.784468   1.000000
    5       -8.373064   1.000000
    6       -8.321819   1.000000
    7       -8.156982   1.000000
    8       -8.077846   1.000000
    9       -7.793939   1.000000
   10       -7.587789   1.000000
   11       -7.430173   1.000000
   12       -7.419041   1.000000
   13       -2.799320   1.000000
   14       -2.396503   1.000000
   15       -1.995685   1.000000
   16       -1.873466   1.000000
   17       -1.397350   1.000000
   18       -1.392760   1.000000
   19       -1.219927   1.000000
   20       -0.914551   1.000000
   21       -0.842109   1.000000
   22        0.080988   1.000000
   23        0.196874   1.000000
   24        0.251568   1.000000
   25        0.800405   1.000000
   26        1.115550   1.000000
   27        1.143807   1.000000
   28        1.399303   1.000000
   29        1.592665   1.000000
   30        1.775630   1.000000
   31        2.153860   1.000000
   32        2.308698   1.000000
   33        2.519702   1.000000
   34        2.601414   1.000000
   35        2.628842   1.000000
   36        2.986546   1.000000
   37        3.037968   1.000000
   38        3.105585   1.000000
   39        3.376559   1.000000
   40        3.720481   1.000000
   41        3.846905   1.000000
   42        3.969984   1.000000
   43        4.117981   1.000000
   44        4.212778   1.000000
   45        4.488076   1.000000
   46        4.740328   1.000000
   47        4.841319   1.000000
   48        5.125726   1.000000
   49        5.129136   1.000000
   50        5.396028   1.000000
   51        5.557694   1.000000
   52        5.601687   1.000000
   53        5.690185   1.000000
   54        5.699218   1.000000
   55        6.155738   1.000000
   56        6.425152   1.000000
   57        6.452061   1.000000
   58        6.880517   1.000000
   59        7.055959   1.000000
   60        7.265517   1.000000
   61        7.828957   1.000000
   62        8.545081   1.006905
   63        8.690182   0.614112
   64       10.957962   0.000000
   65       11.018654   0.000000
   66       11.169345   0.000000
   67       11.248540   0.000000
   68       11.747711   0.000000
   69       12.166967   0.000000
   70       12.247139   0.000000
   71       12.467354   0.000000
   72       12.682174   0.000000
   73       13.007390   0.000000
   74       13.307522   0.000000
   75       13.336927   0.000000
   76       13.557984   0.000000
   77       13.638842   0.000000
   78       13.765705   0.000000
   79       13.771321   0.000000
   80       13.999738   0.000000
 
  0.1666667E+00  0.1666667E+00  0.1250000E+00  0.2083333E-01