 running on   16 total cores
 distrk:  each k-point on   16 cores,    1 groups
 distr:  one band on    4 cores,    4 groups
 using from now: INCAR     
 vasp.5.4.4.18Apr17-6-g9f103f2a35 (build Nov 01 2019 12:17:22) complex          
  
 POSCAR found type information on POSCAR  Si N 
 POSCAR found :  2 types and      28 ions
 WARNING: type information on POSCAR and POTCAR are incompatible
 POTCAR overwrites the type information in POSCAR
 typ   1 type information:  Si N 
 WARNING: type information on POSCAR and POTCAR are incompatible
 POTCAR overwrites the type information in POSCAR
 typ   2 type information:  N  Si
 LDA part: xc-table for Pade appr. of Perdew
 generate k-points for:    6    6    8
 POSCAR, INCAR and KPOINTS ok, starting setup
 FFT: planning ...
 WAVECAR not read
 entering main loop
       N       E                     dE             d eps       ncg     rms          rms(c)
DAV:   1     0.486883759243E+03    0.48688E+03   -0.50735E+04  7040   0.114E+03
DAV:   2    -0.176674288335E+03   -0.66356E+03   -0.63616E+03  8808   0.251E+02
DAV:   3    -0.225020148643E+03   -0.48346E+02   -0.47953E+02  8456   0.728E+01
DAV:   4    -0.225983047938E+03   -0.96290E+00   -0.95843E+00  8712   0.108E+01
DAV:   5    -0.226003734440E+03   -0.20687E-01   -0.20657E-01  8536   0.150E+00    0.402E+01
RMM:   6    -0.199355105580E+03    0.26649E+02   -0.10967E+02  7050   0.275E+01    0.184E+01
RMM:   7    -0.198592844518E+03    0.76226E+00   -0.58445E+00  7099   0.596E+00    0.973E+00
RMM:   8    -0.198382283995E+03    0.21056E+00   -0.10625E+00  7040   0.260E+00    0.173E+00
RMM:   9    -0.198366550711E+03    0.15733E-01   -0.82408E-02  7073   0.734E-01    0.707E-01
RMM:  10    -0.198360046190E+03    0.65045E-02   -0.80608E-02  7040   0.681E-01    0.465E-01
RMM:  11    -0.198358263973E+03    0.17822E-02   -0.81637E-03  7040   0.231E-01    0.166E-01
RMM:  12    -0.198358278290E+03   -0.14317E-04   -0.30748E-03  7040   0.146E-01    0.884E-02
RMM:  13    -0.198358146135E+03    0.13215E-03   -0.27392E-04  4753   0.494E-02    0.266E-02
RMM:  14    -0.198358134588E+03    0.11547E-04   -0.79217E-05  4255   0.253E-02
   1 F= -.19835813E+03 E0= -.19835631E+03  d E =-.198358E+03
 curvature:   0.00 expect dE= 0.000E+00 dE for cont linesearch  0.000E+00
 trial: gam= 0.00000 g(F)=  0.321E+00 g(S)=  0.000E+00 ort = 0.000E+00 (trialstep = 0.100E+01)
 search vector abs. value=  0.321E+00
 bond charge predicted
       N       E                     dE             d eps       ncg     rms          rms(c)
DAV:   1    -0.198519237685E+03   -0.16109E+00   -0.21147E+01  7744   0.177E+01    0.138E+00
RMM:   2    -0.198540492375E+03   -0.21255E-01   -0.42975E-01  7040   0.216E+00    0.763E-01
RMM:   3    -0.198533563184E+03    0.69292E-02   -0.21767E-02  7090   0.428E-01    0.629E-01
RMM:   4    -0.198529991128E+03    0.35721E-02   -0.72211E-03  7040   0.231E-01    0.386E-01
RMM:   5    -0.198529299629E+03    0.69150E-03   -0.31915E-03  7040   0.149E-01    0.121E-01
RMM:   6    -0.198529324654E+03   -0.25025E-04   -0.22493E-04  4530   0.437E-02
   2 F= -.19852932E+03 E0= -.19852796E+03  d E =-.171190E+00
 trial-energy change:   -0.171190  1 .order   -0.171727   -0.320943   -0.022510
 step:   1.0763(harm=  1.0754)  dis= 0.04926  next Energy=  -198.530183 (dE=-0.172E+00)
 bond charge predicted
       N       E                     dE             d eps       ncg     rms          rms(c)
DAV:   1    -0.198530099654E+03   -0.80002E-03   -0.12502E-01  8384   0.136E+00    0.107E-01
RMM:   2    -0.198530280199E+03   -0.18055E-03   -0.27068E-03  7040   0.170E-01    0.621E-02
RMM:   3    -0.198530201071E+03    0.79129E-04   -0.12539E-04  4140   0.335E-02
   3 F= -.19853020E+03 E0= -.19852893E+03  d E =-.172066E+00
 curvature:  -0.54 expect dE=-0.110E+00 dE for cont linesearch -0.357E-05
 trial: gam= 0.63337 g(F)=  0.205E+00 g(S)=  0.000E+00 ort = 0.146E-02 (trialstep = 0.972E+00)
 search vector abs. value=  0.335E+00
 bond charge predicted
       N       E                     dE             d eps       ncg     rms          rms(c)
DAV:   1    -0.198620003986E+03   -0.89724E-01   -0.19124E+01  7040   0.167E+01    0.114E+00
RMM:   2    -0.198652408636E+03   -0.32405E-01   -0.43372E-01  7040   0.217E+00    0.700E-01
RMM:   3    -0.198646159708E+03    0.62489E-02   -0.17681E-02  7175   0.386E-01    0.538E-01
RMM:   4    -0.198643115181E+03    0.30445E-02   -0.64448E-03  7040   0.218E-01    0.324E-01
RMM:   5    -0.198642161157E+03    0.95402E-03   -0.36429E-03  7040   0.159E-01    0.874E-02
RMM:   6    -0.198642146043E+03    0.15115E-04   -0.18691E-04  4387   0.383E-02
   4 F= -.19864215E+03 E0= -.19864068E+03  d E =-.111945E+00
 trial-energy change:   -0.111945  1 .order   -0.112832   -0.199839   -0.025826
 step:   1.1212(harm=  1.1159)  dis= 0.07302  next Energy=  -198.644129 (dE=-0.114E+00)
 bond charge predicted
       N       E                     dE             d eps       ncg     rms          rms(c)
DAV:   1    -0.198643571140E+03   -0.14100E-02   -0.45565E-01  7712   0.257E+00    0.170E-01
RMM:   2    -0.198644352791E+03   -0.78165E-03   -0.99952E-03  7040   0.329E-01    0.104E-01
RMM:   3    -0.198644209337E+03    0.14345E-03   -0.40482E-04  5277   0.590E-02    0.782E-02
RMM:   4    -0.198644128215E+03    0.81122E-04   -0.16800E-04  4217   0.390E-02
   5 F= -.19864413E+03 E0= -.19864266E+03  d E =-.113927E+00
 curvature:  -0.91 expect dE=-0.982E-01 dE for cont linesearch -0.441E-05
 trial: gam= 0.50289 g(F)=  0.108E+00 g(S)=  0.000E+00 ort = 0.128E-02 (trialstep = 0.100E+01)
 search vector abs. value=  0.194E+00
 bond charge predicted
       N       E                     dE             d eps       ncg     rms          rms(c)
DAV:   1    -0.198673335646E+03   -0.29126E-01   -0.13836E+01  7040   0.142E+01    0.112E+00
RMM:   2    -0.198691795907E+03   -0.18460E-01   -0.31035E-01  7040   0.186E+00    0.526E-01
RMM:   3    -0.198687442729E+03    0.43532E-02   -0.13793E-02  7161   0.325E-01    0.384E-01
RMM:   4    -0.198684915492E+03    0.25272E-02   -0.38428E-03  7040   0.170E-01    0.209E-01
RMM:   5    -0.198684405000E+03    0.51049E-03   -0.23928E-03  7039   0.134E-01    0.518E-02
RMM:   6    -0.198684399346E+03    0.56540E-05   -0.76299E-05  4243   0.262E-02
   6 F= -.19868440E+03 E0= -.19868241E+03  d E =-.402711E-01
 trial-energy change:   -0.040271  1 .order   -0.040289   -0.108851    0.028274
 step:   0.7951(harm=  0.7951)  dis= 0.03311  next Energy=  -198.687332 (dE=-0.432E-01)
 bond charge predicted
       N       E                     dE             d eps       ncg     rms          rms(c)
DAV:   1    -0.198686920490E+03   -0.25155E-02   -0.58778E-01  7248   0.293E+00    0.233E-01
RMM:   2    -0.198688010809E+03   -0.10903E-02   -0.13135E-02  7040   0.374E-01    0.140E-01
RMM:   3    -0.198687414160E+03    0.59665E-03   -0.79813E-04  6165   0.719E-02    0.790E-02
RMM:   4    -0.198687302706E+03    0.11145E-03   -0.16606E-04  4086   0.397E-02    0.412E-02
RMM:   5    -0.198687286753E+03    0.15953E-04   -0.12928E-04  3846   0.343E-02
   7 F= -.19868729E+03 E0= -.19868537E+03  d E =-.431585E-01
 curvature:  -0.71 expect dE=-0.313E-01 dE for cont linesearch -0.169E-06
 trial: gam= 0.39889 g(F)=  0.440E-01 g(S)=  0.000E+00 ort =-0.215E-03 (trialstep = 0.960E+00)
 search vector abs. value=  0.748E-01
 bond charge predicted
       N       E                     dE             d eps       ncg     rms          rms(c)
DAV:   1    -0.198703393590E+03   -0.16091E-01   -0.29647E+00  7056   0.674E+00    0.613E-01
RMM:   2    -0.198707796432E+03   -0.44028E-02   -0.68691E-02  7040   0.898E-01    0.316E-01
RMM:   3    -0.198706484446E+03    0.13120E-02   -0.38338E-03  7064   0.166E-01    0.219E-01
RMM:   4    -0.198706028414E+03    0.45603E-03   -0.11598E-03  7005   0.936E-02    0.124E-01
RMM:   5    -0.198705972808E+03    0.55606E-04   -0.27962E-04  4441   0.511E-02
   8 F= -.19870597E+03 E0= -.19870401E+03  d E =-.186861E-01
 trial-energy change:   -0.018686  1 .order   -0.019018   -0.042209    0.004173
 step:   0.8739(harm=  0.8739)  dis= 0.01073  next Energy=  -198.706493 (dE=-0.192E-01)
 bond charge predicted
       N       E                     dE             d eps       ncg     rms          rms(c)
DAV:   1    -0.198706196628E+03   -0.16821E-03   -0.24541E-02  7760   0.613E-01    0.548E-02
RMM:   2    -0.198706227533E+03   -0.30905E-04   -0.56643E-04  5670   0.822E-02
   9 F= -.19870623E+03 E0= -.19870425E+03  d E =-.189408E-01
 curvature:  -0.74 expect dE=-0.132E-01 dE for cont linesearch -0.441E-06
 trial: gam= 0.41294 g(F)=  0.177E-01 g(S)=  0.000E+00 ort =-0.211E-03 (trialstep = 0.943E+00)
 search vector abs. value=  0.303E-01
 bond charge predicted
       N       E                     dE             d eps       ncg     rms          rms(c)
DAV:   1    -0.198709164442E+03   -0.29678E-02   -0.29005E+00  7056   0.669E+00    0.537E-01
RMM:   2    -0.198712791477E+03   -0.36270E-02   -0.57107E-02  7040   0.784E-01    0.206E-01
RMM:   3    -0.198712016459E+03    0.77502E-03   -0.29221E-03  7080   0.154E-01    0.138E-01
RMM:   4    -0.198711607342E+03    0.40912E-03   -0.74474E-04  6554   0.728E-02    0.772E-02
RMM:   5    -0.198711524140E+03    0.83202E-04   -0.36911E-04  5457   0.533E-02
  10 F= -.19871152E+03 E0= -.19870959E+03  d E =-.529661E-02
 trial-energy change:   -0.005297  1 .order   -0.005605   -0.016635    0.005425
 step:   0.7111(harm=  0.7111)  dis= 0.00545  next Energy=  -198.712500 (dE=-0.627E-02)
 bond charge predicted
       N       E                     dE             d eps       ncg     rms          rms(c)
DAV:   1    -0.198712132837E+03   -0.52550E-03   -0.17596E-01  7184   0.165E+00    0.131E-01
RMM:   2    -0.198712346922E+03   -0.21408E-03   -0.34817E-03  7040   0.194E-01    0.504E-02
RMM:   3    -0.198712289111E+03    0.57811E-04   -0.14993E-04  4284   0.378E-02
  11 F= -.19871229E+03 E0= -.19871036E+03  d E =-.606158E-02
 curvature:  -0.61 expect dE=-0.371E-02 dE for cont linesearch -0.149E-04
 trial: gam= 0.37656 g(F)=  0.607E-02 g(S)=  0.000E+00 ort =-0.859E-03 (trialstep = 0.897E+00)
 search vector abs. value=  0.972E-02
 bond charge predicted
       N       E                     dE             d eps       ncg     rms          rms(c)
DAV:   1    -0.198714926194E+03   -0.25793E-02   -0.47286E-01  7040   0.269E+00    0.161E-01
RMM:   2    -0.198715598934E+03   -0.67274E-03   -0.85030E-03  7040   0.309E-01    0.949E-02
RMM:   3    -0.198715512778E+03    0.86156E-04   -0.40278E-04  5146   0.600E-02
  12 F= -.19871551E+03 E0= -.19871355E+03  d E =-.322367E-02
 trial-energy change:   -0.003224  1 .order   -0.003293   -0.005152   -0.001434
 step:   1.2424(harm=  1.2424)  dis= 0.00550  next Energy=  -198.715859 (dE=-0.357E-02)
 bond charge predicted
       N       E                     dE             d eps       ncg     rms          rms(c)
DAV:   1    -0.198715610166E+03   -0.11232E-04   -0.68179E-02  7768   0.102E+00    0.795E-02
RMM:   2    -0.198715666023E+03   -0.55857E-04   -0.11349E-03  7019   0.113E-01    0.546E-02
RMM:   3    -0.198715644161E+03    0.21862E-04   -0.73013E-05  4191   0.284E-02
  13 F= -.19871564E+03 E0= -.19871368E+03  d E =-.335505E-02
 curvature:  -1.05 expect dE=-0.532E-02 dE for cont linesearch -0.807E-05
 trial: gam= 0.83973 g(F)=  0.506E-02 g(S)=  0.000E+00 ort =-0.273E-03 (trialstep = 0.819E+00)
 search vector abs. value=  0.115E-01
 bond charge predicted
       N       E                     dE             d eps       ncg     rms          rms(c)
DAV:   1    -0.198717380934E+03   -0.17149E-02   -0.68028E-01  7040   0.320E+00    0.175E-01
RMM:   2    -0.198718133493E+03   -0.75256E-03   -0.10762E-02  7040   0.333E-01    0.872E-02
RMM:   3    -0.198718001099E+03    0.13239E-03   -0.57351E-04  5517   0.699E-02    0.533E-02
RMM:   4    -0.198717943030E+03    0.58069E-04   -0.23160E-04  4329   0.459E-02
  14 F= -.19871794E+03 E0= -.19871597E+03  d E =-.229887E-02
 trial-energy change:   -0.002299  1 .order   -0.002384   -0.003960   -0.000808
 step:   1.0293(harm=  1.0293)  dis= 0.00727  next Energy=  -198.718131 (dE=-0.249E-02)
 bond charge predicted
       N       E                     dE             d eps       ncg     rms          rms(c)
DAV:   1    -0.198717986164E+03    0.14935E-04   -0.44870E-02  7976   0.819E-01    0.461E-02
RMM:   2    -0.198718040659E+03   -0.54495E-04   -0.74258E-04  6007   0.880E-02
  15 F= -.19871804E+03 E0= -.19871607E+03  d E =-.239650E-02
 curvature:  -1.22 expect dE=-0.213E-02 dE for cont linesearch -0.464E-05
 trial: gam= 0.30437 g(F)=  0.175E-02 g(S)=  0.000E+00 ort =-0.209E-03 (trialstep = 0.861E+00)
 search vector abs. value=  0.268E-02
 bond charge predicted
       N       E                     dE             d eps       ncg     rms          rms(c)
DAV:   1    -0.198718756529E+03   -0.77036E-03   -0.13391E-01  7152   0.142E+00    0.102E-01
RMM:   2    -0.198718942771E+03   -0.18624E-03   -0.27319E-03  7040   0.172E-01    0.486E-02
RMM:   3    -0.198718898038E+03    0.44732E-04   -0.98241E-05  4212   0.329E-02
  16 F= -.19871890E+03 E0= -.19871693E+03  d E =-.857379E-03
 trial-energy change:   -0.000857  1 .order   -0.000887   -0.001451   -0.000322
 step:   1.1073(harm=  1.1073)  dis= 0.00284  next Energy=  -198.718973 (dE=-0.933E-03)
 bond charge predicted
       N       E                     dE             d eps       ncg     rms          rms(c)
DAV:   1    -0.198718893806E+03    0.48965E-04   -0.10292E-02  7768   0.392E-01    0.351E-02
RMM:   2    -0.198718895129E+03   -0.13235E-05   -0.16258E-04  4179   0.461E-02
  17 F= -.19871890E+03 E0= -.19871693E+03  d E =-.854470E-03
 curvature:  -0.88 expect dE=-0.234E-02 dE for cont linesearch -0.469E-05
 trial: gam= 1.58633 g(F)=  0.266E-02 g(S)=  0.000E+00 ort =-0.120E-03 (trialstep = 0.271E+00)
 search vector abs. value=  0.903E-02
 reached required accuracy - stopping structural energy minimisation
