 vasp.5.4.4.18Apr17-6-g9f103f2a35 (build Nov 01 2019 12:17:22) complex          
  
 executed on             LinuxIFC date 2023.05.19  18:21:55
 running on   16 total cores
 distrk:  each k-point on   16 cores,    1 groups
 distr:  one band on NCORES_PER_BAND=   4 cores,    4 groups


--------------------------------------------------------------------------------------------------------


 INCAR:
 POTCAR:    PAW_PBE N 08Apr2002                   
 POTCAR:    PAW_PBE Si 05Jan2001                  
 POTCAR:    PAW_PBE N 08Apr2002                   
   VRHFIN =N: s2p3                                                              
   LEXCH  = PE                                                                  
   EATOM  =   264.5486 eV,   19.4438 Ry                                         
                                                                                
   TITEL  = PAW_PBE N 08Apr2002                                                 
   LULTRA =        F    use ultrasoft PP ?                                      
   IUNSCR =        1    unscreen: 0-lin 1-nonlin 2-no                           
   RPACOR =    1.200    partial core radius                                     
   POMASS =   14.001; ZVAL   =    5.000    mass and valenz                      
   RCORE  =    1.500    outmost cutoff radius                                   
   RWIGS  =    1.400; RWIGS  =    0.741    wigner-seitz radius (au A)           
   ENMAX  =  400.000; ENMIN  =  300.000 eV                                      
   ICORE  =        2    local potential                                         
   LCOR   =        T    correct aug charges                                     
   LPAW   =        T    paw PP                                                  
   EAUG   =  627.112                                                            
   DEXC   =    0.000                                                            
   RMAX   =    1.529    core radius for proj-oper                               
   RAUG   =    1.300    factor for augmentation sphere                          
   RDEP   =    1.514    radius for radial grids                                 
   RDEPT  =    1.338    core radius for aug-charge                              
                                                                                
   Atomic configuration                                                         
    4 entries                                                                   
     n  l   j            E        occ.                                          
     1  0  0.50      -384.7179   2.0000                                         
     2  0  0.50       -18.5828   2.0000                                         
     2  1  0.50        -7.0898   3.0000                                         
     3  2  1.50        -6.8029   0.0000                                         
   Description                                                                  
     l       E           TYP  RCUT    TYP  RCUT                                 
     0    -18.5828119     23  1.200                                             
     0    -13.5018863     23  1.200                                             
     1     -7.0897853     23  1.500                                             
     1      9.5240782     23  1.500                                             
     2     -6.8029130      7  1.500                                             
  local pseudopotential read in
  partial core-charges read in
  partial kinetic energy density read in
  atomic valenz-charges read in
  non local Contribution for L=           0  read in
    real space projection operators read in
  non local Contribution for L=           0  read in
    real space projection operators read in
  non local Contribution for L=           1  read in
    real space projection operators read in
  non local Contribution for L=           1  read in
    real space projection operators read in
    PAW grid and wavefunctions read in
 
   number of l-projection  operators is LMAX  =           4
   number of lm-projection operators is LMMAX =           8
 
 POTCAR:    PAW_PBE Si 05Jan2001                  
   VRHFIN =Si: s2p2                                                             
   LEXCH  = PE                                                                  
   EATOM  =   103.0669 eV,    7.5752 Ry                                         
                                                                                
   TITEL  = PAW_PBE Si 05Jan2001                                                
   LULTRA =        F    use ultrasoft PP ?                                      
   IUNSCR =        1    unscreen: 0-lin 1-nonlin 2-no                           
   RPACOR =    1.500    partial core radius                                     
   POMASS =   28.085; ZVAL   =    4.000    mass and valenz                      
   RCORE  =    1.900    outmost cutoff radius                                   
   RWIGS  =    2.480; RWIGS  =    1.312    wigner-seitz radius (au A)           
   ENMAX  =  245.345; ENMIN  =  184.009 eV                                      
   ICORE  =        2    local potential                                         
   LCOR   =        T    correct aug charges                                     
   LPAW   =        T    paw PP                                                  
   EAUG   =  322.069                                                            
   DEXC   =    0.000                                                            
   RMAX   =    1.950    core radius for proj-oper                               
   RAUG   =    1.300    factor for augmentation sphere                          
   RDEP   =    1.993    radius for radial grids                                 
   RDEPT  =    1.837    core radius for aug-charge                              
                                                                                
   Atomic configuration                                                         
    6 entries                                                                   
     n  l   j            E        occ.                                          
     1  0  0.50     -1785.8828   2.0000                                         
     2  0  0.50      -139.4969   2.0000                                         
     2  1  1.50       -95.5546   6.0000                                         
     3  0  0.50       -10.8127   2.0000                                         
     3  1  0.50        -4.0811   2.0000                                         
     3  2  1.50        -4.0817   0.0000                                         
   Description                                                                  
     l       E           TYP  RCUT    TYP  RCUT                                 
     0    -10.8127223     23  1.900                                             
     0     -7.6451159     23  1.900                                             
     1     -4.0811372     23  1.900                                             
     1      2.4879257     23  1.900                                             
     2     -4.0817478      7  1.900                                             
  local pseudopotential read in
  partial core-charges read in
  partial kinetic energy density read in
  atomic valenz-charges read in
  non local Contribution for L=           0  read in
    real space projection operators read in
  non local Contribution for L=           0  read in
    real space projection operators read in
  non local Contribution for L=           1  read in
    real space projection operators read in
  non local Contribution for L=           1  read in
    real space projection operators read in
    PAW grid and wavefunctions read in
 
   number of l-projection  operators is LMAX  =           4
   number of lm-projection operators is LMMAX =           8
 
 Optimization of the real space projectors (new method)

 maximal supplied QI-value         = 25.13
 optimisation between [QCUT,QGAM] = [ 10.05, 20.36] = [ 28.30,116.06] Ry 
 Optimized for a Real-space Cutoff    1.70 Angstroem

   l    n(q)    QCUT    max X(q) W(low)/X(q) W(high)/X(q)  e(spline) 
   0     10    10.053    79.467    0.61E-04    0.98E-04    0.61E-06
   0     10    10.053    66.151    0.60E-04    0.98E-04    0.61E-06
   1     10    10.053     8.350    0.17E-03    0.71E-03    0.45E-05
   1     10    10.053     5.531    0.18E-03    0.77E-03    0.49E-05
 Optimization of the real space projectors (new method)

 maximal supplied QI-value         = 19.84
 optimisation between [QCUT,QGAM] = [ 10.12, 20.44] = [ 28.68,116.96] Ry 
 Optimized for a Real-space Cutoff    1.38 Angstroem

   l    n(q)    QCUT    max X(q) W(low)/X(q) W(high)/X(q)  e(spline) 
   0      8    10.119   159.560    0.58E-04    0.11E-03    0.54E-07
   0      8    10.119   115.863    0.56E-04    0.11E-03    0.54E-07
   1      8    10.119    88.339    0.22E-03    0.17E-03    0.19E-06
   1      8    10.119    48.592    0.22E-03    0.17E-03    0.18E-06
  PAW_PBE N 08Apr2002                   :
 energy of atom  1       EATOM= -264.5486
 kinetic energy error for atom=    0.0736 (will be added to EATOM!!)
  PAW_PBE Si 05Jan2001                  :
 energy of atom  2       EATOM= -103.0669
 kinetic energy error for atom=    0.0012 (will be added to EATOM!!)
 
 
 POSCAR: Si12 N16                                
  positions in direct lattice
  No initial velocities read in
 exchange correlation table for  LEXCH =        8
   RHO(1)=    0.500       N(1)  =     2000
   RHO(2)=  100.500       N(2)  =     4000
 


--------------------------------------------------------------------------------------------------------


 ion  position               nearest neighbor table
   1  0.008  0.647  0.213-  14 1.68  23 1.70  25 1.72
   2  0.639  0.992  0.213-  16 1.68  22 1.70  28 1.72
   3  0.914  0.322  0.992-  22 1.69  25 1.71  18 1.72
   4  0.647  0.008  0.713-  22 1.68  16 1.70  26 1.72
   5  0.086  0.407  0.492-  13 1.69  18 1.71  25 1.72
   6  0.322  0.914  0.492-  14 1.69  26 1.71  28 1.72
   7  0.353  0.361  0.213-  13 1.68  15 1.70  21 1.72
   8  0.593  0.678  0.492-  16 1.69  27 1.71  21 1.72
   9  0.992  0.639  0.713-  23 1.68  14 1.70  18 1.72
  10  0.361  0.353  0.713-  15 1.68  13 1.70  27 1.72
  11  0.678  0.593  0.992-  23 1.69  21 1.71  27 1.72
  12  0.407  0.086  0.992-  15 1.69  28 1.71  26 1.72
  13  0.213  0.300  0.467-   7 1.68   5 1.69  10 1.70  19 2.22  21 2.84  18 2.91  15 2.94  15 2.94
                            27 2.95  25 3.09
  14  0.087  0.787  0.467-   1 1.68   6 1.69   9 1.70  19 2.22  25 2.84  26 2.91  23 2.94  23 2.94
                            18 2.95  28 3.09
  15  0.300  0.213  0.967-  10 1.68  12 1.69   7 1.70  17 2.22  27 2.84  28 2.91  13 2.94  13 2.94
                            21 2.95  26 3.09
  16  0.700  0.913  0.467-   2 1.68   8 1.69   4 1.70  19 2.22  28 2.84  27 2.91  22 2.94  22 2.94
                            26 2.95  21 3.09
  17  0.000  0.000  0.957-  22 2.22  23 2.22  15 2.22  19 2.65  19 2.65
  18  0.067  0.484  0.783-   5 1.71   3 1.72   9 1.72  24 2.21  25 2.82  25 2.82  23 2.84  13 2.91
                            14 2.95  22 3.09
  19  0.000  0.000  0.457-  14 2.22  16 2.22  13 2.22  17 2.65  17 2.65
  20  0.667  0.333  0.476-  21 2.21  28 2.21  25 2.21
  21  0.582  0.516  0.283-  11 1.71   8 1.72   7 1.72  20 2.21  27 2.82  27 2.82  13 2.84  23 2.91
                            15 2.95  16 3.09
  22  0.787  0.087  0.967-   4 1.68   3 1.69   2 1.70  17 2.22  26 2.84  25 2.91  16 2.94  16 2.94
                            28 2.95  18 3.09
  23  0.913  0.700  0.967-   9 1.68  11 1.69   1 1.70  17 2.22  18 2.84  21 2.91  14 2.94  14 2.94
                            25 2.95  27 3.09
  24  0.333  0.667  0.976-  27 2.21  18 2.21  26 2.21
  25  0.933  0.418  0.283-   3 1.71   5 1.72   1 1.72  20 2.21  18 2.82  18 2.82  14 2.84  22 2.91
                            23 2.95  13 3.09
  26  0.418  0.933  0.783-   6 1.71  12 1.72   4 1.72  24 2.21  28 2.82  28 2.82  22 2.84  14 2.91
                            16 2.95  15 3.09
  27  0.516  0.582  0.783-   8 1.71  11 1.72  10 1.72  24 2.21  21 2.82  21 2.82  15 2.84  16 2.91
                            13 2.95  23 3.09
  28  0.484  0.067  0.283-  12 1.71   6 1.72   2 1.72  20 2.21  26 2.82  26 2.82  16 2.84  15 2.91
                            22 2.95  14 3.09
 
  LATTYP: Found a hexagonal cell.
 ALAT       =     8.2867421211
 C/A-ratio  =     0.6407499831
  
  Lattice vectors:
  
 A1 = (   4.1433710605,  -7.1765291915,   0.0000000000)
 A2 = (   4.1433710605,   7.1765291915,   0.0000000000)
 A3 = (   0.0000000000,   0.0000000000,   5.3097298743)


Analysis of symmetry for initial positions (statically):
=====================================================================
 Subroutine PRICEL returns:
 Original cell was already a primitive cell.
 

 Routine SETGRP: Setting up the symmetry group for a 
 hexagonal supercell.


 Subroutine GETGRP returns: Found  6 space group operations
 (whereof  3 operations were pure point group operations)
 out of a pool of 24 trial point group operations.


The static configuration has the point symmetry C_3 .
 The point group associated with its full space group is C_3v.


Analysis of symmetry for dynamics (positions and initial velocities):
=====================================================================
 Subroutine PRICEL returns:
 Original cell was already a primitive cell.
 

 Routine SETGRP: Setting up the symmetry group for a 
 hexagonal supercell.


 Subroutine GETGRP returns: Found  6 space group operations
 (whereof  3 operations were pure point group operations)
 out of a pool of 24 trial point group operations.


The dynamic configuration has the point symmetry C_3 .
 The point group associated with its full space group is C_3v.


 Subroutine INISYM returns: Found  6 space group operations
 (whereof  3 operations are pure point group operations),
 and found     1 'primitive' translations

 
 
 KPOINTS: Automatic mesh                          

Automatic generation of k-mesh.
 generate k-points for:    6    6    8
Space group operators:
 irot       det(A)        alpha          n_x          n_y          n_z        tau_x        tau_y        tau_z
    1     1.000000     0.000001     1.000000     0.000000     0.000000     0.000000     0.000000     0.000000
    2     1.000000   120.000000     0.000000     0.000000    -1.000000     0.000000     0.000000     0.000000
    3     1.000000   120.000000     0.000000     0.000000     1.000000     0.000000     0.000000     0.000000
    4    -1.000000   180.000000    -0.000000     1.000000     0.000000     0.000000     0.000000     0.500000
    5    -1.000000   180.000000     0.866025     0.500000     0.000000     0.000000     0.000000     0.500000
    6    -1.000000   180.000000     0.866025    -0.500000     0.000000     0.000000     0.000000     0.500000
 
 Subroutine IBZKPT returns following result:
 ===========================================
 
 Found     44 irreducible k-points:
 
 Following reciprocal coordinates:
            Coordinates               Weight
  0.000000  0.000000  0.000000      1.000000
  0.166667  0.000000  0.000000      6.000000
  0.333333  0.000000  0.000000      6.000000
  0.500000  0.000000  0.000000      3.000000
  0.166667  0.166667  0.000000      6.000000
  0.333333  0.166667  0.000000     12.000000
  0.333333  0.333333  0.000000      2.000000
  0.000000  0.000000  0.125000      2.000000
  0.166667  0.000000  0.125000     12.000000
  0.333333  0.000000  0.125000     12.000000
  0.500000  0.000000  0.125000      6.000000
  0.166667  0.166667  0.125000      6.000000
  0.333333  0.166667  0.125000     12.000000
  0.333333  0.333333  0.125000      2.000000
 -0.166667  0.333333  0.125000      6.000000
 -0.333333  0.500000  0.125000     12.000000
 -0.333333 -0.333333  0.125000      2.000000
  0.000000  0.000000  0.250000      2.000000
  0.166667  0.000000  0.250000     12.000000
  0.333333  0.000000  0.250000     12.000000
  0.500000  0.000000  0.250000      6.000000
  0.166667  0.166667  0.250000      6.000000
  0.333333  0.166667  0.250000     12.000000
  0.333333  0.333333  0.250000      2.000000
 -0.166667  0.333333  0.250000      6.000000
 -0.333333  0.500000  0.250000     12.000000
 -0.333333 -0.333333  0.250000      2.000000
  0.000000  0.000000  0.375000      2.000000
  0.166667  0.000000  0.375000     12.000000
  0.333333  0.000000  0.375000     12.000000
  0.500000  0.000000  0.375000      6.000000
  0.166667  0.166667  0.375000      6.000000
  0.333333  0.166667  0.375000     12.000000
  0.333333  0.333333  0.375000      2.000000
 -0.166667  0.333333  0.375000      6.000000
 -0.333333  0.500000  0.375000     12.000000
 -0.333333 -0.333333  0.375000      2.000000
  0.000000  0.000000  0.500000      1.000000
  0.166667  0.000000  0.500000      6.000000
  0.333333  0.000000  0.500000      6.000000
  0.500000  0.000000  0.500000      3.000000
  0.166667  0.166667  0.500000      6.000000
  0.333333  0.166667  0.500000     12.000000
  0.333333  0.333333  0.500000      2.000000
 
 Following cartesian coordinates:
            Coordinates               Weight
  0.000000  0.000000  0.000000      1.000000
  0.020112 -0.011612  0.000000      6.000000
  0.040225 -0.023224  0.000000      6.000000
  0.060337 -0.034836  0.000000      3.000000
  0.040225  0.000000  0.000000      6.000000
  0.060337 -0.011612  0.000000     12.000000
  0.080450  0.000000  0.000000      2.000000
  0.000000  0.000000  0.023542      2.000000
  0.020112 -0.011612  0.023542     12.000000
  0.040225 -0.023224  0.023542     12.000000
  0.060337 -0.034836  0.023542      6.000000
  0.040225  0.000000  0.023542      6.000000
  0.060337 -0.011612  0.023542     12.000000
  0.080450  0.000000  0.023542      2.000000
  0.020112  0.034836  0.023542      6.000000
  0.020112  0.058060  0.023542     12.000000
 -0.080450  0.000000  0.023542      2.000000
  0.000000  0.000000  0.047083      2.000000
  0.020112 -0.011612  0.047083     12.000000
  0.040225 -0.023224  0.047083     12.000000
  0.060337 -0.034836  0.047083      6.000000
  0.040225  0.000000  0.047083      6.000000
  0.060337 -0.011612  0.047083     12.000000
  0.080450  0.000000  0.047083      2.000000
  0.020112  0.034836  0.047083      6.000000
  0.020112  0.058060  0.047083     12.000000
 -0.080450  0.000000  0.047083      2.000000
  0.000000  0.000000  0.070625      2.000000
  0.020112 -0.011612  0.070625     12.000000
  0.040225 -0.023224  0.070625     12.000000
  0.060337 -0.034836  0.070625      6.000000
  0.040225  0.000000  0.070625      6.000000
  0.060337 -0.011612  0.070625     12.000000
  0.080450  0.000000  0.070625      2.000000
  0.020112  0.034836  0.070625      6.000000
  0.020112  0.058060  0.070625     12.000000
 -0.080450  0.000000  0.070625      2.000000
  0.000000  0.000000  0.094167      1.000000
  0.020112 -0.011612  0.094167      6.000000
  0.040225 -0.023224  0.094167      6.000000
  0.060337 -0.034836  0.094167      3.000000
  0.040225  0.000000  0.094167      6.000000
  0.060337 -0.011612  0.094167     12.000000
  0.080450  0.000000  0.094167      2.000000
 


--------------------------------------------------------------------------------------------------------




 Dimension of arrays:
   k-points           NKPTS =     44   k-points in BZ     NKDIM =     44   number of bands    NBANDS=     80
   number of dos      NEDOS =    301   number of ions     NIONS =     28
   non local maximal  LDIM  =      4   non local SUM 2l+1 LMDIM =      8
   total plane-waves  NPLWV = 104976
   max r-space proj   IRMAX =   6866   max aug-charges    IRDMAX=  11313
   dimension x,y,z NGX =    54 NGY =   54 NGZ =   36
   dimension x,y,z NGXF=   108 NGYF=  108 NGZF=   72
   support grid    NGXF=   108 NGYF=  108 NGZF=   72
   ions per type =              12  16
   NGX,Y,Z   is equivalent  to a cutoff of  10.83, 10.83, 11.27 a.u.
   NGXF,Y,Z  is equivalent  to a cutoff of  21.67, 21.67, 22.54 a.u.

 SYSTEM =  unknown system                          
 POSCAR =  Si12 N16                                

 Startparameter for this run:
   NWRITE =      2    write-flag & timer
   PREC   = accura    normal or accurate (medium, high low for compatibility)
   ISTART =      0    job   : 0-new  1-cont  2-samecut
   ICHARG =      2    charge: 1-file 2-atom 10-const
   ISPIN  =      1    spin polarized calculation?
   LNONCOLLINEAR =      F non collinear calculations
   LSORBIT =      F    spin-orbit coupling
   INIWAV =      1    electr: 0-lowe 1-rand  2-diag
   LASPH  =      F    aspherical Exc in radial PAW
   METAGGA=      F    non-selfconsistent MetaGGA calc.

 Electronic Relaxation 1
   ENCUT  =  400.0 eV  29.40 Ry    5.42 a.u.  13.51 13.51  8.66*2*pi/ulx,y,z
   ENINI  =  400.0     initial cutoff
   ENAUG  =  627.1 eV  augmentation charge cutoff
   NELM   =     60;   NELMIN=  2; NELMDL= -5     # of ELM steps 
   EDIFF  = 0.1E-03   stopping-criterion for ELM
   LREAL  =      T    real-space projection
   NLSPLINE    = F    spline interpolate recip. space projectors
   LCOMPAT=      F    compatible to vasp.4.4
   GGA_COMPAT  = T    GGA compatible to vasp.4.4-vasp.4.6
   LMAXPAW     = -100 max onsite density
   LMAXMIX     =    2 max onsite mixed and CHGCAR
   VOSKOWN=      0    Vosko Wilk Nusair interpolation
   ROPT   =   -0.00025  -0.00025
 Ionic relaxation
   EDIFFG = 0.1E-02   stopping-criterion for IOM
   NSW    =    100    number of steps for IOM
   NBLOCK =      1;   KBLOCK =    100    inner block; outer block 
   IBRION =      2    ionic relax: 0-MD 1-quasi-New 2-CG
   NFREE  =      1    steps in history (QN), initial steepest desc. (CG)
   ISIF   =      2    stress and relaxation
   IWAVPR =     11    prediction:  0-non 1-charg 2-wave 3-comb
   ISYM   =      2    0-nonsym 1-usesym 2-fastsym
   LCORR  =      T    Harris-Foulkes like correction to forces

   POTIM  = 0.5000    time-step for ionic-motion
   TEIN   =    0.0    initial temperature
   TEBEG  =    0.0;   TEEND  =   0.0 temperature during run
   SMASS  =  -3.00    Nose mass-parameter (am)
   estimated Nose-frequenzy (Omega)   =  0.10E-29 period in steps =****** mass=  -0.157E-26a.u.
   SCALEE = 1.0000    scale energy and forces
   NPACO  =    256;   APACO  = 16.0  distance and # of slots for P.C.
   PSTRESS=    0.0 pullay stress

  Mass of Ions in am
   POMASS =  14.00 28.09
  Ionic Valenz
   ZVAL   =   5.00  4.00
  Atomic Wigner-Seitz radii
   RWIGS  =  -1.00 -1.00
  virtual crystal weights 
   VCA    =   1.00  1.00
   NELECT =     124.0000    total number of electrons
   NUPDOWN=      -1.0000    fix difference up-down

 DOS related values:
   EMIN   =  10.00;   EMAX   =-10.00  energy-range for DOS
   EFERMI =   0.00
   ISMEAR =     2;   SIGMA  =   0.10  broadening in eV -4-tet -1-fermi 0-gaus

 Electronic relaxation 2 (details)
   IALGO  =     68    algorithm
   LDIAG  =      T    sub-space diagonalisation (order eigenvalues)
   LSUBROT=      F    optimize rotation matrix (better conditioning)
   TURBO    =      0    0=normal 1=particle mesh
   IRESTART =      0    0=no restart 2=restart with 2 vectors
   NREBOOT  =      0    no. of reboots
   NMIN     =      0    reboot dimension
   EREF     =   0.00    reference energy to select bands
   IMIX   =      4    mixing-type and parameters
     AMIX     =   0.40;   BMIX     =  1.00
     AMIX_MAG =   1.60;   BMIX_MAG =  1.00
     AMIN     =   0.10
     WC   =   100.;   INIMIX=   1;  MIXPRE=   1;  MAXMIX= -45

 Intra band minimization:
   WEIMIN = 0.0010     energy-eigenvalue tresh-hold
   EBREAK =  0.31E-06  absolut break condition
   DEPER  =   0.30     relativ break condition  

   TIME   =   0.40     timestep for ELM

  volume/ion in A,a.u.               =      11.28        76.10
  Fermi-wavevector in a.u.,A,eV,Ry     =   1.198832  2.265465 19.554283  1.437199
  Thomas-Fermi vector in A             =   2.334711
 
 Write flags
   LWAVE        =      F    write WAVECAR
   LDOWNSAMPLE  =      F    k-point downsampling of WAVECAR
   LCHARG       =      F    write CHGCAR
   LVTOT        =      F    write LOCPOT, total local potential
   LVHAR        =      F    write LOCPOT, Hartree potential only
   LELF         =      F    write electronic localiz. function (ELF)
   LORBIT       =      0    0 simple, 1 ext, 2 COOP (PROOUT), +10 PAW based schemes


 Dipole corrections
   LMONO  =      F    monopole corrections only (constant potential shift)
   LDIPOL =      F    correct potential (dipole corrections)
   IDIPOL =      0    1-x, 2-y, 3-z, 4-all directions 
   EPSILON=  1.0000000 bulk dielectric constant

 Exchange correlation treatment:
   GGA     =    --    GGA type
   LEXCH   =     8    internal setting for exchange type
   VOSKOWN=      0    Vosko Wilk Nusair interpolation
   LHFCALC =     F    Hartree Fock is set to
   LHFONE  =     F    Hartree Fock one center treatment
   AEXX    =    0.0000 exact exchange contribution

 Linear response parameters
   LEPSILON=     F    determine dielectric tensor
   LRPA    =     F    only Hartree local field effects (RPA)
   LNABLA  =     F    use nabla operator in PAW spheres
   LVEL    =     F    velocity operator in full k-point grid
   LINTERFAST=   F  fast interpolation
   KINTER  =     0    interpolate to denser k-point grid
   CSHIFT  =0.1000    complex shift for real part using Kramers Kronig
   OMEGAMAX=  -1.0    maximum frequency
   DEG_THRESHOLD= 0.2000000E-02 threshold for treating states as degnerate
   RTIME   =   -0.100 relaxation time in fs
  (WPLASMAI=    0.000 imaginary part of plasma frequency in eV, 0.658/RTIME)
   DFIELD  = 0.0000000 0.0000000 0.0000000 field for delta impulse in time
 
 Orbital magnetization related:
   ORBITALMAG=     F  switch on orbital magnetization
   LCHIMAG   =     F  perturbation theory with respect to B field
   DQ        =  0.001000  dq finite difference perturbation B field
   LLRAUG    =     F  two centre corrections for induced B field



--------------------------------------------------------------------------------------------------------


 conjugate gradient relaxation of ions
 charge density and potential will be updated during run
 non-spin polarized calculation
 RMM-DIIS sequential band-by-band and
  variant of blocked Davidson during initial phase
 perform sub-space diagonalisation
    before iterative eigenvector-optimisation
 modified Broyden-mixing scheme, WC =      100.0
 initial mixing is a Kerker type mixing with AMIX =  0.4000 and BMIX =      1.0000
 Hartree-type preconditioning will be used
 using additional bands           18
 real space projection scheme for non local part
 use partial core corrections
 calculate Harris-corrections to forces 
   (improved forces if not selfconsistent)
 use gradient corrections 
 use of overlap-Matrix (Vanderbilt PP)
 Methfessel and Paxton  Order N= 2 SIGMA  =   0.10


--------------------------------------------------------------------------------------------------------


  energy-cutoff  :      400.00
  volume of cell :      315.77
      direct lattice vectors                 reciprocal lattice vectors
     4.143371061 -7.176529191  0.000000000     0.120674686 -0.069671562  0.000000000
     4.143371061  7.176529191  0.000000000     0.120674686  0.069671562  0.000000000
     0.000000000  0.000000000  5.309729874     0.000000000  0.000000000  0.188333498

  length of vectors
     8.286742121  8.286742121  5.309729874     0.139343124  0.139343124  0.188333498


 
 k-points in units of 2pi/SCALE and weight: Automatic mesh                          
   0.00000000 -0.00000000  0.00000000       0.003
   0.02011245 -0.01161193  0.00000000       0.021
   0.04022490 -0.02322385  0.00000000       0.021
   0.06033734 -0.03483578  0.00000000       0.010
   0.04022490  0.00000000  0.00000000       0.021
   0.06033734 -0.01161193  0.00000000       0.042
   0.08044979 -0.00000000  0.00000000       0.007
   0.00000000 -0.00000000  0.02354169       0.007
   0.02011245 -0.01161193  0.02354169       0.042
   0.04022490 -0.02322385  0.02354169       0.042
   0.06033734 -0.03483578  0.02354169       0.021
   0.04022490  0.00000000  0.02354169       0.021
   0.06033734 -0.01161193  0.02354169       0.042
   0.08044979 -0.00000000  0.02354169       0.007
   0.02011245  0.03483578  0.02354169       0.021
   0.02011245  0.05805964  0.02354169       0.042
  -0.08044979  0.00000000  0.02354169       0.007
   0.00000000 -0.00000000  0.04708337       0.007
   0.02011245 -0.01161193  0.04708337       0.042
   0.04022490 -0.02322385  0.04708337       0.042
   0.06033734 -0.03483578  0.04708337       0.021
   0.04022490  0.00000000  0.04708337       0.021
   0.06033734 -0.01161193  0.04708337       0.042
   0.08044979 -0.00000000  0.04708337       0.007
   0.02011245  0.03483578  0.04708337       0.021
   0.02011245  0.05805964  0.04708337       0.042
  -0.08044979  0.00000000  0.04708337       0.007
   0.00000000 -0.00000000  0.07062506       0.007
   0.02011245 -0.01161193  0.07062506       0.042
   0.04022490 -0.02322385  0.07062506       0.042
   0.06033734 -0.03483578  0.07062506       0.021
   0.04022490  0.00000000  0.07062506       0.021
   0.06033734 -0.01161193  0.07062506       0.042
   0.08044979 -0.00000000  0.07062506       0.007
   0.02011245  0.03483578  0.07062506       0.021
   0.02011245  0.05805964  0.07062506       0.042
  -0.08044979  0.00000000  0.07062506       0.007
   0.00000000 -0.00000000  0.09416675       0.003
   0.02011245 -0.01161193  0.09416675       0.021
   0.04022490 -0.02322385  0.09416675       0.021
   0.06033734 -0.03483578  0.09416675       0.010
   0.04022490  0.00000000  0.09416675       0.021
   0.06033734 -0.01161193  0.09416675       0.042
   0.08044979 -0.00000000  0.09416675       0.007
 
 k-points in reciprocal lattice and weights: Automatic mesh                          
   0.00000000  0.00000000  0.00000000       0.003
   0.16666667  0.00000000  0.00000000       0.021
   0.33333333  0.00000000  0.00000000       0.021
   0.50000000  0.00000000  0.00000000       0.010
   0.16666667  0.16666667  0.00000000       0.021
   0.33333333  0.16666667  0.00000000       0.042
   0.33333333  0.33333333  0.00000000       0.007
   0.00000000  0.00000000  0.12500000       0.007
   0.16666667  0.00000000  0.12500000       0.042
   0.33333333  0.00000000  0.12500000       0.042
   0.50000000  0.00000000  0.12500000       0.021
   0.16666667  0.16666667  0.12500000       0.021
   0.33333333  0.16666667  0.12500000       0.042
   0.33333333  0.33333333  0.12500000       0.007
  -0.16666667  0.33333333  0.12500000       0.021
  -0.33333333  0.50000000  0.12500000       0.042
  -0.33333333 -0.33333333  0.12500000       0.007
   0.00000000  0.00000000  0.25000000       0.007
   0.16666667  0.00000000  0.25000000       0.042
   0.33333333  0.00000000  0.25000000       0.042
   0.50000000  0.00000000  0.25000000       0.021
   0.16666667  0.16666667  0.25000000       0.021
   0.33333333  0.16666667  0.25000000       0.042
   0.33333333  0.33333333  0.25000000       0.007
  -0.16666667  0.33333333  0.25000000       0.021
  -0.33333333  0.50000000  0.25000000       0.042
  -0.33333333 -0.33333333  0.25000000       0.007
   0.00000000  0.00000000  0.37500000       0.007
   0.16666667  0.00000000  0.37500000       0.042
   0.33333333  0.00000000  0.37500000       0.042
   0.50000000  0.00000000  0.37500000       0.021
   0.16666667  0.16666667  0.37500000       0.021
   0.33333333  0.16666667  0.37500000       0.042
   0.33333333  0.33333333  0.37500000       0.007
  -0.16666667  0.33333333  0.37500000       0.021
  -0.33333333  0.50000000  0.37500000       0.042
  -0.33333333 -0.33333333  0.37500000       0.007
   0.00000000  0.00000000  0.50000000       0.003
   0.16666667  0.00000000  0.50000000       0.021
   0.33333333  0.00000000  0.50000000       0.021
   0.50000000  0.00000000  0.50000000       0.010
   0.16666667  0.16666667  0.50000000       0.021
   0.33333333  0.16666667  0.50000000       0.042
   0.33333333  0.33333333  0.50000000       0.007
 
 position of ions in fractional coordinates (direct lattice) 
   0.00847736  0.64712623  0.21326215
   0.63864887  0.99152264  0.21326215
   0.91417805  0.32157747  0.99187268
   0.64712623  0.00847736  0.71326215
   0.08582195  0.40739942  0.49187268
   0.32157747  0.91417805  0.49187268
   0.35287377  0.36135113  0.21326215
   0.59260058  0.67842253  0.49187268
   0.99152264  0.63864887  0.71326215
   0.36135113  0.35287377  0.71326215
   0.67842253  0.59260058  0.99187268
   0.40739942  0.08582195  0.99187268
   0.21311138  0.30040483  0.46674092
   0.08729345  0.78688862  0.46674092
   0.30040483  0.21311138  0.96674092
   0.69959517  0.91270655  0.46674092
   0.00000000  0.00000000  0.95692726
   0.06686359  0.48449764  0.78259872
   0.00000000  0.00000000  0.45692726
   0.66666667  0.33333333  0.47577702
   0.58236595  0.51550236  0.28259872
   0.78688862  0.08729345  0.96674092
   0.91270655  0.69959517  0.96674092
   0.33333333  0.66666667  0.97577702
   0.93313641  0.41763405  0.28259872
   0.41763405  0.93313641  0.78259872
   0.51550236  0.58236595  0.78259872
   0.48449764  0.06686359  0.28259872
 
 position of ions in cartesian coordinates  (Angst):
   2.71640895  4.58328227  1.13236441
   6.75440547  2.53240890  1.13236441
   5.12019368 -4.25281539  5.26657599
   2.71640895 -4.58328227  3.78722935
   2.04359912  2.30781010  2.61171105
   5.12019368  4.25281539  2.61171105
   2.95929877  0.06083802  1.13236441
   5.26632039  0.61590370  2.61171105
   6.75440547 -2.53240890  3.78722935
   2.95929877 -0.06083802  3.78722935
   5.26632039 -0.61590370  5.26657599
   2.04359912 -2.30781010  5.26657599
   2.12768820  0.62646397  2.47826818
   3.62206068  5.02066518  2.47826818
   2.12768820 -0.62646397  5.13313312
   6.68036431  1.52940004  2.47826818
   0.00000000  0.00000000  5.08102526
   2.28449414  2.99716292  4.15538783
   0.00000000  0.00000000  2.42616033
   4.14337106 -2.39217640  2.52624744
   4.54887582 -0.47984851  1.50052289
   3.62206068 -5.02066518  5.13313312
   6.68036431 -1.52940004  5.13313312
   4.14337106  2.39217640  5.18111237
   5.59674321 -3.69951777  1.50052289
   5.59674321  3.69951777  4.15538783
   4.54887582  0.47984851  4.15538783
   2.28449414 -2.99716292  1.50052289
 


--------------------------------------------------------------------------------------------------------


 k-point  1 :   0.0000 0.0000 0.0000  plane waves:    5723
 k-point  2 :   0.1667 0.0000 0.0000  plane waves:    5731
 k-point  3 :   0.3333 0.0000 0.0000  plane waves:    5758
 k-point  4 :   0.5000 0.0000 0.0000  plane waves:    5754
 k-point  5 :   0.1667 0.1667 0.0000  plane waves:    5737
 k-point  6 :   0.3333 0.1667 0.0000  plane waves:    5748
 k-point  7 :   0.3333 0.3333 0.0000  plane waves:    5742
 k-point  8 :   0.0000 0.0000 0.1250  plane waves:    5759
 k-point  9 :   0.1667 0.0000 0.1250  plane waves:    5742
 k-point 10 :   0.3333 0.0000 0.1250  plane waves:    5738
 k-point 11 :   0.5000 0.0000 0.1250  plane waves:    5744
 k-point 12 :   0.1667 0.1667 0.1250  plane waves:    5742
 k-point 13 :   0.3333 0.1667 0.1250  plane waves:    5751
 k-point 14 :   0.3333 0.3333 0.1250  plane waves:    5742
 k-point 15 :  -0.1667 0.3333 0.1250  plane waves:    5742
 k-point 16 :  -0.3333 0.5000 0.1250  plane waves:    5751
 k-point 17 :  -0.3333-0.3333 0.1250  plane waves:    5742
 k-point 18 :   0.0000 0.0000 0.2500  plane waves:    5771
 k-point 19 :   0.1667 0.0000 0.2500  plane waves:    5756
 k-point 20 :   0.3333 0.0000 0.2500  plane waves:    5742
 k-point 21 :   0.5000 0.0000 0.2500  plane waves:    5724
 k-point 22 :   0.1667 0.1667 0.2500  plane waves:    5746
 k-point 23 :   0.3333 0.1667 0.2500  plane waves:    5724
 k-point 24 :   0.3333 0.3333 0.2500  plane waves:    5739
 k-point 25 :  -0.1667 0.3333 0.2500  plane waves:    5746
 k-point 26 :  -0.3333 0.5000 0.2500  plane waves:    5724
 k-point 27 :  -0.3333-0.3333 0.2500  plane waves:    5739
 k-point 28 :   0.0000 0.0000 0.3750  plane waves:    5760
 k-point 29 :   0.1667 0.0000 0.3750  plane waves:    5764
 k-point 30 :   0.3333 0.0000 0.3750  plane waves:    5729
 k-point 31 :   0.5000 0.0000 0.3750  plane waves:    5704
 k-point 32 :   0.1667 0.1667 0.3750  plane waves:    5740
 k-point 33 :   0.3333 0.1667 0.3750  plane waves:    5716
 k-point 34 :   0.3333 0.3333 0.3750  plane waves:    5727
 k-point 35 :  -0.1667 0.3333 0.3750  plane waves:    5740
 k-point 36 :  -0.3333 0.5000 0.3750  plane waves:    5716
 k-point 37 :  -0.3333-0.3333 0.3750  plane waves:    5727
 k-point 38 :   0.0000 0.0000 0.5000  plane waves:    5718
 k-point 39 :   0.1667 0.0000 0.5000  plane waves:    5756
 k-point 40 :   0.3333 0.0000 0.5000  plane waves:    5734
 k-point 41 :   0.5000 0.0000 0.5000  plane waves:    5712
 k-point 42 :   0.1667 0.1667 0.5000  plane waves:    5734
 k-point 43 :   0.3333 0.1667 0.5000  plane waves:    5730
 k-point 44 :   0.3333 0.3333 0.5000  plane waves:    5724

 maximum and minimum number of plane-waves per node :      1453     1413

 maximum number of plane-waves:      5771
 maximum index in each direction: 
   IXMAX=   13   IYMAX=   13   IZMAX=    8
   IXMIN=  -14   IYMIN=  -14   IZMIN=   -9


 real space projection operators:
  total allocation   :       8516.38 KBytes
  max/ min on nodes  :       2217.50       2039.88


 parallel 3D FFT for wavefunctions:
    minimum data exchange during FFTs selected (reduces bandwidth)
 parallel 3D FFT for charge:
    minimum data exchange during FFTs selected (reduces bandwidth)


 total amount of memory used by VASP MPI-rank0    64123. kBytes
=======================================================================

   base      :      30000. kBytes
   nonlr-proj:       5984. kBytes
   fftplans  :       2677. kBytes
   grid      :       4209. kBytes
   one-center:         21. kBytes
   wavefun   :      21232. kBytes
 
     INWAV:  cpu time    0.0000: real time    0.0000
 Broyden mixing: mesh for mixing (old mesh)
   NGX = 27   NGY = 27   NGZ = 17
  (NGX  =108   NGY  =108   NGZ  = 72)
  gives a total of  12393 points

 initial charge density was supplied:
 charge density of overlapping atoms calculated
 number of electron     124.0000000 magnetization 
 keeping initial charge density in first step


--------------------------------------------------------------------------------------------------------


 Maximum index for non-local projection operator         1865
 Maximum index for augmentation-charges          905 (set IRDMAX)


--------------------------------------------------------------------------------------------------------


 First call to EWALD:  gamma=   0.260
 Maximum number of real-space cells 3x 3x 3
 Maximum number of reciprocal cells 3x 3x 2

    FEWALD:  cpu time    0.0020: real time    0.0021


--------------------------------------- Iteration      1(   1)  ---------------------------------------


    POTLOK:  cpu time    0.0437: real time    0.0581
    SETDIJ:  cpu time    0.0045: real time    0.0045
     EDDAV:  cpu time    7.5497: real time    7.5499
       DOS:  cpu time    0.0031: real time    0.0031
    --------------------------------------------
      LOOP:  cpu time    7.6009: real time    7.6156

 eigenvalue-minimisations  :  7040
 total energy-change (2. order) : 0.4868838E+03  (-0.5073482E+04)
 number of electron     124.0000000 magnetization 
 augmentation part      124.0000000 magnetization 

 Free energy of the ion-electron system (eV)
  ---------------------------------------------------
  alpha Z        PSCENC =       154.42294858
  Ewald energy   TEWEN  =     -4372.19636470
  -Hartree energ DENC   =     -1029.69414081
  -exchange      EXHF   =         0.00000000
  -V(xc)+E(xc)   XCENC  =       105.38087926
  PAW double counting   =      3869.17357318    -3601.97287308
  entropy T*S    EENTRO =         0.00046440
  eigenvalues    EBANDS =       539.01730379
  atomic energy  EATOM  =      4822.75196862
  Solvation  Ediel_sol  =         0.00000000
  ---------------------------------------------------
  free energy    TOTEN  =       486.88375924 eV

  energy without entropy =      486.88329484  energy(sigma->0) =      486.88364314


--------------------------------------------------------------------------------------------------------




--------------------------------------- Iteration      1(   2)  ---------------------------------------


     EDDAV:  cpu time    7.9565: real time    7.9581
       DOS:  cpu time    0.0036: real time    0.0036
    --------------------------------------------
      LOOP:  cpu time    7.9601: real time    7.9617

 eigenvalue-minimisations  :  8808
 total energy-change (2. order) :-0.6635580E+03  (-0.6361624E+03)
 number of electron     124.0000000 magnetization 
 augmentation part      124.0000000 magnetization 

 Free energy of the ion-electron system (eV)
  ---------------------------------------------------
  alpha Z        PSCENC =       154.42294858
  Ewald energy   TEWEN  =     -4372.19636470
  -Hartree energ DENC   =     -1029.69414081
  -exchange      EXHF   =         0.00000000
  -V(xc)+E(xc)   XCENC  =       105.38087926
  PAW double counting   =      3869.17357318    -3601.97287308
  entropy T*S    EENTRO =        -0.00144291
  eigenvalues    EBANDS =      -124.53883648
  atomic energy  EATOM  =      4822.75196862
  Solvation  Ediel_sol  =         0.00000000
  ---------------------------------------------------
  free energy    TOTEN  =      -176.67428833 eV

  energy without entropy =     -176.67284543  energy(sigma->0) =     -176.67392761


--------------------------------------------------------------------------------------------------------




--------------------------------------- Iteration      1(   3)  ---------------------------------------


     EDDAV:  cpu time    7.1961: real time    7.1977
       DOS:  cpu time    0.0038: real time    0.0038
    --------------------------------------------
      LOOP:  cpu time    7.2000: real time    7.2015

 eigenvalue-minimisations  :  8456
 total energy-change (2. order) :-0.4834586E+02  (-0.4795272E+02)
 number of electron     124.0000000 magnetization 
 augmentation part      124.0000000 magnetization 

 Free energy of the ion-electron system (eV)
  ---------------------------------------------------
  alpha Z        PSCENC =       154.42294858
  Ewald energy   TEWEN  =     -4372.19636470
  -Hartree energ DENC   =     -1029.69414081
  -exchange      EXHF   =         0.00000000
  -V(xc)+E(xc)   XCENC  =       105.38087926
  PAW double counting   =      3869.17357318    -3601.97287308
  entropy T*S    EENTRO =        -0.02043945
  eigenvalues    EBANDS =      -172.86570025
  atomic energy  EATOM  =      4822.75196862
  Solvation  Ediel_sol  =         0.00000000
  ---------------------------------------------------
  free energy    TOTEN  =      -225.02014864 eV

  energy without entropy =     -224.99970920  energy(sigma->0) =     -225.01503878


--------------------------------------------------------------------------------------------------------




--------------------------------------- Iteration      1(   4)  ---------------------------------------


     EDDAV:  cpu time    7.0809: real time    7.0820
       DOS:  cpu time    0.0038: real time    0.0038
    --------------------------------------------
      LOOP:  cpu time    7.0846: real time    7.0857

 eigenvalue-minimisations  :  8712
 total energy-change (2. order) :-0.9628993E+00  (-0.9584288E+00)
 number of electron     124.0000000 magnetization 
 augmentation part      124.0000000 magnetization 

 Free energy of the ion-electron system (eV)
  ---------------------------------------------------
  alpha Z        PSCENC =       154.42294858
  Ewald energy   TEWEN  =     -4372.19636470
  -Hartree energ DENC   =     -1029.69414081
  -exchange      EXHF   =         0.00000000
  -V(xc)+E(xc)   XCENC  =       105.38087926
  PAW double counting   =      3869.17357318    -3601.97287308
  entropy T*S    EENTRO =        -0.02340490
  eigenvalues    EBANDS =      -173.82563410
  atomic energy  EATOM  =      4822.75196862
  Solvation  Ediel_sol  =         0.00000000
  ---------------------------------------------------
  free energy    TOTEN  =      -225.98304794 eV

  energy without entropy =     -225.95964304  energy(sigma->0) =     -225.97719671


--------------------------------------------------------------------------------------------------------




--------------------------------------- Iteration      1(   5)  ---------------------------------------


     EDDAV:  cpu time    6.9221: real time    6.9253
       DOS:  cpu time    0.0040: real time    0.0040
    CHARGE:  cpu time    0.3075: real time    0.3075
    MIXING:  cpu time    0.0012: real time    0.0012
    --------------------------------------------
      LOOP:  cpu time    7.2348: real time    7.2380

 eigenvalue-minimisations  :  8536
 total energy-change (2. order) :-0.2068650E-01  (-0.2065690E-01)
 number of electron     123.9999974 magnetization 
 augmentation part        1.0051914 magnetization 

 Broyden mixing:
  rms(total) = 0.40221E+01    rms(broyden)= 0.40211E+01
  rms(prec ) = 0.55608E+01
  weight for this iteration     100.00

 Free energy of the ion-electron system (eV)
  ---------------------------------------------------
  alpha Z        PSCENC =       154.42294858
  Ewald energy   TEWEN  =     -4372.19636470
  -Hartree energ DENC   =     -1029.69414081
  -exchange      EXHF   =         0.00000000
  -V(xc)+E(xc)   XCENC  =       105.38087926
  PAW double counting   =      3869.17357318    -3601.97287308
  entropy T*S    EENTRO =        -0.02353461
  eigenvalues    EBANDS =      -173.84619088
  atomic energy  EATOM  =      4822.75196862
  Solvation  Ediel_sol  =         0.00000000
  ---------------------------------------------------
  free energy    TOTEN  =      -226.00373444 eV

  energy without entropy =     -225.98019983  energy(sigma->0) =     -225.99785079


--------------------------------------------------------------------------------------------------------




--------------------------------------- Iteration      1(   6)  ---------------------------------------


    POTLOK:  cpu time    0.0368: real time    0.0384
    SETDIJ:  cpu time    0.0042: real time    0.0042
    EDDIAG:  cpu time    0.8932: real time    0.8933
  RMM-DIIS:  cpu time    3.9016: real time    3.9016
    ORTHCH:  cpu time    0.0877: real time    0.0877
       DOS:  cpu time    0.0038: real time    0.0038
    CHARGE:  cpu time    0.3022: real time    0.3022
    MIXING:  cpu time    0.0010: real time    0.0011
    --------------------------------------------
      LOOP:  cpu time    5.2305: real time    5.2322

 eigenvalue-minimisations  :  7050
 total energy-change (2. order) : 0.2664863E+02  (-0.1096664E+02)
 number of electron     123.9999983 magnetization 
 augmentation part       -0.3982684 magnetization 

 Broyden mixing:
  rms(total) = 0.18441E+01    rms(broyden)= 0.18435E+01
  rms(prec ) = 0.20712E+01
  weight for this iteration     100.00

 eigenvalues of (default mixing * dielectric matrix)
  average eigenvalue GAMMA=   1.2215
  1.2215

 Free energy of the ion-electron system (eV)
  ---------------------------------------------------
  alpha Z        PSCENC =       154.42294858
  Ewald energy   TEWEN  =     -4372.19636470
  -Hartree energ DENC   =     -1223.67561854
  -exchange      EXHF   =         0.00000000
  -V(xc)+E(xc)   XCENC  =       119.27312533
  PAW double counting   =      9299.82132747    -9035.80563724
  entropy T*S    EENTRO =        -0.00303657
  eigenvalues    EBANDS =        36.05618146
  atomic energy  EATOM  =      4822.75196862
  Solvation  Ediel_sol  =         0.00000000
  ---------------------------------------------------
  free energy    TOTEN  =      -199.35510558 eV

  energy without entropy =     -199.35206901  energy(sigma->0) =     -199.35434644


--------------------------------------------------------------------------------------------------------




--------------------------------------- Iteration      1(   7)  ---------------------------------------


    POTLOK:  cpu time    0.0357: real time    0.0386
    SETDIJ:  cpu time    0.0042: real time    0.0042
    EDDIAG:  cpu time    0.8844: real time    0.8844
  RMM-DIIS:  cpu time    3.9322: real time    3.9325
    ORTHCH:  cpu time    0.0884: real time    0.0884
       DOS:  cpu time    0.0038: real time    0.0038
    CHARGE:  cpu time    0.3082: real time    0.3082
    MIXING:  cpu time    0.0013: real time    0.0013
    --------------------------------------------
      LOOP:  cpu time    5.2582: real time    5.2614

 eigenvalue-minimisations  :  7099
 total energy-change (2. order) : 0.7622611E+00  (-0.5844519E+00)
 number of electron     123.9999984 magnetization 
 augmentation part       -0.5758524 magnetization 

 Broyden mixing:
  rms(total) = 0.97340E+00    rms(broyden)= 0.97328E+00
  rms(prec ) = 0.10895E+01
  weight for this iteration     100.00

 eigenvalues of (default mixing * dielectric matrix)
  average eigenvalue GAMMA=   1.6718
  1.1650  2.1785

 Free energy of the ion-electron system (eV)
  ---------------------------------------------------
  alpha Z        PSCENC =       154.42294858
  Ewald energy   TEWEN  =     -4372.19636470
  -Hartree energ DENC   =     -1253.42705778
  -exchange      EXHF   =         0.00000000
  -V(xc)+E(xc)   XCENC  =       122.33310832
  PAW double counting   =     14918.41094195   -14655.93149952
  entropy T*S    EENTRO =        -0.00674796
  eigenvalues    EBANDS =        65.04985796
  atomic energy  EATOM  =      4822.75196862
  Solvation  Ediel_sol  =         0.00000000
  ---------------------------------------------------
  free energy    TOTEN  =      -198.59284452 eV

  energy without entropy =     -198.58609656  energy(sigma->0) =     -198.59115753


--------------------------------------------------------------------------------------------------------




--------------------------------------- Iteration      1(   8)  ---------------------------------------


    POTLOK:  cpu time    0.0351: real time    0.0376
    SETDIJ:  cpu time    0.0042: real time    0.0042
    EDDIAG:  cpu time    0.8852: real time    0.8853
  RMM-DIIS:  cpu time    3.8461: real time    3.8461
    ORTHCH:  cpu time    0.0889: real time    0.0889
       DOS:  cpu time    0.0036: real time    0.0036
    CHARGE:  cpu time    0.3141: real time    0.3141
    MIXING:  cpu time    0.0010: real time    0.0010
    --------------------------------------------
      LOOP:  cpu time    5.1783: real time    5.1809

 eigenvalue-minimisations  :  7040
 total energy-change (2. order) : 0.2105605E+00  (-0.1062504E+00)
 number of electron     123.9999984 magnetization 
 augmentation part       -0.5069078 magnetization 

 Broyden mixing:
  rms(total) = 0.17327E+00    rms(broyden)= 0.17327E+00
  rms(prec ) = 0.27822E+00
  weight for this iteration     100.00

 eigenvalues of (default mixing * dielectric matrix)
  average eigenvalue GAMMA=   1.4413
  2.3334  1.0937  0.8967

 Free energy of the ion-electron system (eV)
  ---------------------------------------------------
  alpha Z        PSCENC =       154.42294858
  Ewald energy   TEWEN  =     -4372.19636470
  -Hartree energ DENC   =     -1255.26248130
  -exchange      EXHF   =         0.00000000
  -V(xc)+E(xc)   XCENC  =       123.56041831
  PAW double counting   =     20903.30276177   -20642.02229921
  entropy T*S    EENTRO =        -0.00239259
  eigenvalues    EBANDS =        67.06315652
  atomic energy  EATOM  =      4822.75196862
  Solvation  Ediel_sol  =         0.00000000
  ---------------------------------------------------
  free energy    TOTEN  =      -198.38228400 eV

  energy without entropy =     -198.37989141  energy(sigma->0) =     -198.38168585


--------------------------------------------------------------------------------------------------------




--------------------------------------- Iteration      1(   9)  ---------------------------------------


    POTLOK:  cpu time    0.0349: real time    0.0395
    SETDIJ:  cpu time    0.0041: real time    0.0041
    EDDIAG:  cpu time    0.8913: real time    0.8913
  RMM-DIIS:  cpu time    3.8471: real time    3.8474
    ORTHCH:  cpu time    0.0881: real time    0.0881
       DOS:  cpu time    0.0038: real time    0.0038
    CHARGE:  cpu time    0.3152: real time    0.3152
    MIXING:  cpu time    0.0012: real time    0.0012
    --------------------------------------------
      LOOP:  cpu time    5.1858: real time    5.1907

 eigenvalue-minimisations  :  7073
 total energy-change (2. order) : 0.1573328E-01  (-0.8240843E-02)
 number of electron     123.9999984 magnetization 
 augmentation part       -0.5003695 magnetization 

 Broyden mixing:
  rms(total) = 0.70741E-01    rms(broyden)= 0.70733E-01
  rms(prec ) = 0.12786E+00
  weight for this iteration     100.00

 eigenvalues of (default mixing * dielectric matrix)
  average eigenvalue GAMMA=   1.3635
  2.3817  1.2117  1.2117  0.6490

 Free energy of the ion-electron system (eV)
  ---------------------------------------------------
  alpha Z        PSCENC =       154.42294858
  Ewald energy   TEWEN  =     -4372.19636470
  -Hartree energ DENC   =     -1259.44080947
  -exchange      EXHF   =         0.00000000
  -V(xc)+E(xc)   XCENC  =       124.05013266
  PAW double counting   =     22029.48685293   -21768.40809718
  entropy T*S    EENTRO =        -0.00736192
  eigenvalues    EBANDS =        70.97417976
  atomic energy  EATOM  =      4822.75196862
  Solvation  Ediel_sol  =         0.00000000
  ---------------------------------------------------
  free energy    TOTEN  =      -198.36655071 eV

  energy without entropy =     -198.35918879  energy(sigma->0) =     -198.36471023


--------------------------------------------------------------------------------------------------------




--------------------------------------- Iteration      1(  10)  ---------------------------------------


    POTLOK:  cpu time    0.0359: real time    0.0388
    SETDIJ:  cpu time    0.0043: real time    0.0043
    EDDIAG:  cpu time    0.8882: real time    0.8882
  RMM-DIIS:  cpu time    3.7995: real time    3.7998
    ORTHCH:  cpu time    0.0874: real time    0.0874
       DOS:  cpu time    0.0035: real time    0.0035
    CHARGE:  cpu time    0.3171: real time    0.3171
    MIXING:  cpu time    0.0012: real time    0.0012
    --------------------------------------------
      LOOP:  cpu time    5.1371: real time    5.1402

 eigenvalue-minimisations  :  7040
 total energy-change (2. order) : 0.6504521E-02  (-0.8060792E-02)
 number of electron     123.9999984 magnetization 
 augmentation part       -0.5392565 magnetization 

 Broyden mixing:
  rms(total) = 0.46507E-01    rms(broyden)= 0.46479E-01
  rms(prec ) = 0.76006E-01
  weight for this iteration     100.00

 eigenvalues of (default mixing * dielectric matrix)
  average eigenvalue GAMMA=   1.4503
  2.2813  2.2813  1.0620  1.0620  0.5648

 Free energy of the ion-electron system (eV)
  ---------------------------------------------------
  alpha Z        PSCENC =       154.42294858
  Ewald energy   TEWEN  =     -4372.19636470
  -Hartree energ DENC   =     -1264.65489831
  -exchange      EXHF   =         0.00000000
  -V(xc)+E(xc)   XCENC  =       124.38781797
  PAW double counting   =     22166.50917546   -21905.44595951
  entropy T*S    EENTRO =        -0.00645792
  eigenvalues    EBANDS =        75.87172362
  atomic energy  EATOM  =      4822.75196862
  Solvation  Ediel_sol  =         0.00000000
  ---------------------------------------------------
  free energy    TOTEN  =      -198.36004619 eV

  energy without entropy =     -198.35358827  energy(sigma->0) =     -198.35843171


--------------------------------------------------------------------------------------------------------




--------------------------------------- Iteration      1(  11)  ---------------------------------------


    POTLOK:  cpu time    0.0353: real time    0.0358
    SETDIJ:  cpu time    0.0045: real time    0.0045
    EDDIAG:  cpu time    0.8879: real time    0.8879
  RMM-DIIS:  cpu time    3.8110: real time    3.8111
    ORTHCH:  cpu time    0.0886: real time    0.0886
       DOS:  cpu time    0.0038: real time    0.0038
    CHARGE:  cpu time    0.3038: real time    0.3038
    MIXING:  cpu time    0.0012: real time    0.0012
    --------------------------------------------
      LOOP:  cpu time    5.1359: real time    5.1367

 eigenvalue-minimisations  :  7040
 total energy-change (2. order) : 0.1782217E-02  (-0.8163729E-03)
 number of electron     123.9999984 magnetization 
 augmentation part       -0.5326094 magnetization 

 Broyden mixing:
  rms(total) = 0.16567E-01    rms(broyden)= 0.16566E-01
  rms(prec ) = 0.27120E-01
  weight for this iteration     100.00

 eigenvalues of (default mixing * dielectric matrix)
  average eigenvalue GAMMA=   1.4780
  2.3500  2.3500  1.3815  1.1190  1.1190  0.5485

 Free energy of the ion-electron system (eV)
  ---------------------------------------------------
  alpha Z        PSCENC =       154.42294858
  Ewald energy   TEWEN  =     -4372.19636470
  -Hartree energ DENC   =     -1263.30448715
  -exchange      EXHF   =         0.00000000
  -V(xc)+E(xc)   XCENC  =       124.30152575
  PAW double counting   =     22030.95581428   -21769.84807335
  entropy T*S    EENTRO =        -0.00731659
  eigenvalues    EBANDS =        74.56572059
  atomic energy  EATOM  =      4822.75196862
  Solvation  Ediel_sol  =         0.00000000
  ---------------------------------------------------
  free energy    TOTEN  =      -198.35826397 eV

  energy without entropy =     -198.35094738  energy(sigma->0) =     -198.35643482


--------------------------------------------------------------------------------------------------------




--------------------------------------- Iteration      1(  12)  ---------------------------------------


    POTLOK:  cpu time    0.0367: real time    0.0397
    SETDIJ:  cpu time    0.0043: real time    0.0043
    EDDIAG:  cpu time    0.8795: real time    0.8796
  RMM-DIIS:  cpu time    3.7792: real time    3.7793
    ORTHCH:  cpu time    0.0876: real time    0.0876
       DOS:  cpu time    0.0039: real time    0.0039
    CHARGE:  cpu time    0.3029: real time    0.3029
    MIXING:  cpu time    0.0013: real time    0.0013
    --------------------------------------------
      LOOP:  cpu time    5.0956: real time    5.0987

 eigenvalue-minimisations  :  7040
 total energy-change (2. order) :-0.1431687E-04  (-0.3074772E-03)
 number of electron     123.9999984 magnetization 
 augmentation part       -0.5276706 magnetization 

 Broyden mixing:
  rms(total) = 0.88406E-02    rms(broyden)= 0.88382E-02
  rms(prec ) = 0.19470E-01
  weight for this iteration     100.00

 eigenvalues of (default mixing * dielectric matrix)
  average eigenvalue GAMMA=   1.5205
  2.5601  2.5601  1.9602  1.0486  1.0486  0.9285  0.5372

 Free energy of the ion-electron system (eV)
  ---------------------------------------------------
  alpha Z        PSCENC =       154.42294858
  Ewald energy   TEWEN  =     -4372.19636470
  -Hartree energ DENC   =     -1262.79333033
  -exchange      EXHF   =         0.00000000
  -V(xc)+E(xc)   XCENC  =       124.28414304
  PAW double counting   =     22023.70892821   -21762.60406530
  entropy T*S    EENTRO =        -0.00714202
  eigenvalues    EBANDS =        74.07463561
  atomic energy  EATOM  =      4822.75196862
  Solvation  Ediel_sol  =         0.00000000
  ---------------------------------------------------
  free energy    TOTEN  =      -198.35827829 eV

  energy without entropy =     -198.35113627  energy(sigma->0) =     -198.35649278


--------------------------------------------------------------------------------------------------------




--------------------------------------- Iteration      1(  13)  ---------------------------------------


    POTLOK:  cpu time    0.0347: real time    0.0365
    SETDIJ:  cpu time    0.0042: real time    0.0042
    EDDIAG:  cpu time    0.8896: real time    0.8897
  RMM-DIIS:  cpu time    2.7606: real time    2.7607
    ORTHCH:  cpu time    0.0862: real time    0.0862
       DOS:  cpu time    0.0039: real time    0.0039
    CHARGE:  cpu time    0.3047: real time    0.3047
    MIXING:  cpu time    0.0012: real time    0.0012
    --------------------------------------------
      LOOP:  cpu time    4.0850: real time    4.0869

 eigenvalue-minimisations  :  4753
 total energy-change (2. order) : 0.1321541E-03  (-0.2739210E-04)
 number of electron     123.9999984 magnetization 
 augmentation part       -0.5273671 magnetization 

 Broyden mixing:
  rms(total) = 0.26612E-02    rms(broyden)= 0.26598E-02
  rms(prec ) = 0.39475E-02
  weight for this iteration     100.00

 eigenvalues of (default mixing * dielectric matrix)
  average eigenvalue GAMMA=   1.4883
  2.6674  2.4530  1.8738  1.2484  1.0994  1.0994  0.9275  0.5370

 Free energy of the ion-electron system (eV)
  ---------------------------------------------------
  alpha Z        PSCENC =       154.42294858
  Ewald energy   TEWEN  =     -4372.19636470
  -Hartree energ DENC   =     -1263.02454259
  -exchange      EXHF   =         0.00000000
  -V(xc)+E(xc)   XCENC  =       124.30625105
  PAW double counting   =     21988.57596459   -21727.47042213
  entropy T*S    EENTRO =        -0.00730040
  eigenvalues    EBANDS =        74.28335085
  atomic energy  EATOM  =      4822.75196862
  Solvation  Ediel_sol  =         0.00000000
  ---------------------------------------------------
  free energy    TOTEN  =      -198.35814614 eV

  energy without entropy =     -198.35084573  energy(sigma->0) =     -198.35632103


--------------------------------------------------------------------------------------------------------




--------------------------------------- Iteration      1(  14)  ---------------------------------------


    POTLOK:  cpu time    0.0336: real time    0.0360
    SETDIJ:  cpu time    0.0043: real time    0.0043
    EDDIAG:  cpu time    0.8876: real time    0.8878
  RMM-DIIS:  cpu time    2.4984: real time    2.4990
    ORTHCH:  cpu time    0.0870: real time    0.0870
       DOS:  cpu time    0.0037: real time    0.0037
    --------------------------------------------
      LOOP:  cpu time    3.5146: real time    3.5177

 eigenvalue-minimisations  :  4255
 total energy-change (2. order) : 0.1154739E-04  (-0.7921697E-05)
 number of electron     123.9999984 magnetization 
 augmentation part       -0.5273671 magnetization 

 Free energy of the ion-electron system (eV)
  ---------------------------------------------------
  alpha Z        PSCENC =       154.42294858
  Ewald energy   TEWEN  =     -4372.19636470
  -Hartree energ DENC   =     -1263.17418238
  -exchange      EXHF   =         0.00000000
  -V(xc)+E(xc)   XCENC  =       124.31558730
  PAW double counting   =     21991.15703119   -21730.05200561
  entropy T*S    EENTRO =        -0.00728540
  eigenvalues    EBANDS =        74.42416781
  atomic energy  EATOM  =      4822.75196862
  Solvation  Ediel_sol  =         0.00000000
  ---------------------------------------------------
  free energy    TOTEN  =      -198.35813459 eV

  energy without entropy =     -198.35084919  energy(sigma->0) =     -198.35631324


--------------------------------------------------------------------------------------------------------




 average (electrostatic) potential at core
  the test charge radii are     0.7089  0.9892
  (the norm of the test charge is              1.0000)
       1 -60.3886       2 -60.3886       3 -60.4180       4 -60.3886       5 -60.4180
       6 -60.4180       7 -60.3886       8 -60.4180       9 -60.3886      10 -60.3886
      11 -60.4180      12 -60.4180      13 -81.2508      14 -81.2508      15 -81.2508
      16 -81.2508      17 -80.1215      18 -81.1341      19 -80.1215      20 -79.4853
      21 -81.1341      22 -81.2508      23 -81.2508      24 -79.4853      25 -81.1341
      26 -81.1341      27 -81.1341      28 -81.1341
 
 
 
 E-fermi :   8.7564     XC(G=0): -10.9236     alpha+bet :-15.4547


 k-point     1 :       0.0000    0.0000    0.0000
  band No.  band energies     occupation 
      1     -10.7876      2.00000
      2     -10.0279      2.00000
      3     -10.0279      2.00000
      4      -9.1149      2.00000
      5      -9.1149      2.00000
      6      -8.3665      2.00000
      7      -7.8986      2.00000
      8      -7.8675      2.00000
      9      -7.8675      2.00000
     10      -7.8189      2.00000
     11      -7.7400      2.00000
     12      -7.7400      2.00000
     13      -3.5207      2.00000
     14      -2.5173      2.00000
     15      -2.5173      2.00000
     16      -2.1878      2.00000
     17      -1.3366      2.00000
     18      -1.2084      2.00000
     19      -1.2084      2.00000
     20      -0.5156      2.00000
     21      -0.2848      2.00000
     22      -0.2848      2.00000
     23      -0.0417      2.00000
     24       0.4691      2.00000
     25       0.4691      2.00000
     26       0.7668      2.00000
     27       0.7832      2.00000
     28       1.3638      2.00000
     29       1.4572      2.00000
     30       1.4572      2.00000
     31       1.8775      2.00000
     32       2.2703      2.00000
     33       2.2703      2.00000
     34       2.5643      2.00000
     35       2.5707      2.00000
     36       2.5707      2.00000
     37       2.9299      2.00000
     38       2.9565      2.00000
     39       2.9565      2.00000
     40       3.3723      2.00000
     41       3.3723      2.00000
     42       4.1063      2.00000
     43       4.1063      2.00000
     44       4.1370      2.00000
     45       4.2034      2.00000
     46       4.2034      2.00000
     47       4.8042      2.00000
     48       4.9360      2.00000
     49       5.2779      2.00000
     50       5.4274      2.00000
     51       5.4274      2.00000
     52       5.6637      2.00000
     53       5.8128      2.00000
     54       6.0534      2.00000
     55       6.0534      2.00000
     56       6.4744      2.00000
     57       6.4744      2.00000
     58       7.1746      2.00000
     59       7.1746      2.00000
     60       7.7360      2.00000
     61       7.7360      2.00000
     62       8.3145      2.00000
     63       9.0366      0.00141
     64      10.4163      0.00000
     65      10.4163      0.00000
     66      11.3764      0.00000
     67      11.3764      0.00000
     68      11.8931      0.00000
     69      11.8931      0.00000
     70      12.4295      0.00000
     71      12.5239      0.00000
     72      12.8389      0.00000
     73      13.0373      0.00000
     74      13.0376      0.00000
     75      13.3675      0.00000
     76      13.7583      0.00000
     77      13.7668      0.00000
     78      13.9119      0.00000
     79      14.1277      0.00000
     80      14.1378      0.00000

 k-point     2 :       0.1667    0.0000    0.0000
  band No.  band energies     occupation 
      1     -10.7522      2.00000
      2     -10.1015      2.00000
      3     -10.0559      2.00000
      4      -9.0790      2.00000
      5      -9.0356      2.00000
      6      -8.3308      2.00000
      7      -8.0445      2.00000
      8      -7.8900      2.00000
      9      -7.8466      2.00000
     10      -7.8075      2.00000
     11      -7.7399      2.00000
     12      -7.7033      2.00000
     13      -3.4278      2.00000
     14      -2.5237      2.00000
     15      -2.4277      2.00000
     16      -2.1261      2.00000
     17      -1.4385      2.00000
     18      -1.2679      2.00000
     19      -1.2101      2.00000
     20      -0.8445      2.00000
     21      -0.5203      2.00000
     22      -0.1516      2.00000
     23      -0.0543      2.00000
     24       0.3874      2.00000
     25       0.6087      2.00000
     26       0.9101      2.00000
     27       0.9877      2.00000
     28       1.3854      2.00000
     29       1.4061      2.00000
     30       1.4308      2.00000
     31       1.8845      2.00000
     32       2.2079      2.00000
     33       2.3398      2.00000
     34       2.4581      2.00000
     35       2.5972      2.00000
     36       2.6421      2.00000
     37       2.9442      2.00000
     38       2.9500      2.00000
     39       3.1572      2.00000
     40       3.4019      2.00000
     41       3.4261      2.00000
     42       3.9765      2.00000
     43       4.0537      2.00000
     44       4.1287      2.00000
     45       4.2628      2.00000
     46       4.3263      2.00000
     47       4.7966      2.00000
     48       4.8374      2.00000
     49       4.9653      2.00000
     50       5.4615      2.00000
     51       5.5684      2.00000
     52       5.6849      2.00000
     53       5.8174      2.00000
     54       6.0858      2.00000
     55       6.2091      2.00000
     56       6.3962      2.00000
     57       6.4757      2.00000
     58       7.0638      2.00000
     59       7.1151      2.00000
     60       7.6268      2.00000
     61       7.7212      2.00000
     62       8.3562      2.00000
     63       8.9572      0.00986
     64      10.5477      0.00000
     65      10.6129      0.00000
     66      11.3052      0.00000
     67      11.3367      0.00000
     68      11.8464      0.00000
     69      12.0187      0.00000
     70      12.5249      0.00000
     71      12.5451      0.00000
     72      12.8409      0.00000
     73      12.9597      0.00000
     74      13.1216      0.00000
     75      13.3784      0.00000
     76      13.5687      0.00000
     77      13.8640      0.00000
     78      13.8861      0.00000
     79      14.1055      0.00000
     80      14.2086      0.00000

 k-point     3 :       0.3333    0.0000    0.0000
  band No.  band energies     occupation 
      1     -10.6527      2.00000
      2     -10.2679      2.00000
      3     -10.1040      2.00000
      4      -9.0239      2.00000
      5      -8.8308      2.00000
      6      -8.2867      2.00000
      7      -8.2334      2.00000
      8      -7.9597      2.00000
      9      -7.8530      2.00000
     10      -7.7864      2.00000
     11      -7.7403      2.00000
     12      -7.6775      2.00000
     13      -3.1648      2.00000
     14      -2.5484      2.00000
     15      -2.2271      2.00000
     16      -2.0313      2.00000
     17      -1.7070      2.00000
     18      -1.3650      2.00000
     19      -1.2636      2.00000
     20      -1.1503      2.00000
     21      -0.8784      2.00000
     22      -0.1147      2.00000
     23      -0.0034      2.00000
     24       0.1719      2.00000
     25       0.7512      2.00000
     26       1.1011      2.00000
     27       1.2307      2.00000
     28       1.3041      2.00000
     29       1.5297      2.00000
     30       1.6010      2.00000
     31       2.0242      2.00000
     32       2.1038      2.00000
     33       2.2889      2.00000
     34       2.3657      2.00000
     35       2.5158      2.00000
     36       2.7334      2.00000
     37       2.9562      2.00000
     38       2.9635      2.00000
     39       3.3625      2.00000
     40       3.4527      2.00000
     41       3.5396      2.00000
     42       3.8748      2.00000
     43       3.9634      2.00000
     44       4.1800      2.00000
     45       4.2964      2.00000
     46       4.5504      2.00000
     47       4.6942      2.00000
     48       4.8343      2.00000
     49       4.9314      2.00000
     50       5.3691      2.00000
     51       5.5270      2.00000
     52       5.7208      2.00000
     53       5.7448      2.00000
     54       6.0132      2.00000
     55       6.2669      2.00000
     56       6.3401      2.00000
     57       6.5230      2.00000
     58       6.8597      2.00000
     59       7.0571      2.00000
     60       7.4239      2.00000
     61       7.7681      2.00000
     62       8.4578      1.99936
     63       8.8015      0.18020
     64      10.8039      0.00000
     65      11.0593      0.00000
     66      11.1679      0.00000
     67      11.2880      0.00000
     68      11.8003      0.00000
     69      12.2166      0.00000
     70      12.4507      0.00000
     71      12.5656      0.00000
     72      12.6774      0.00000
     73      13.1336      0.00000
     74      13.3394      0.00000
     75      13.4174      0.00000
     76      13.6273      0.00000
     77      13.6747      0.00000
     78      13.7301      0.00000
     79      13.9187      0.00000
     80      14.1032      0.00000

 k-point     4 :       0.5000    0.0000    0.0000
  band No.  band energies     occupation 
      1     -10.5505      2.00000
      2     -10.4001      2.00000
      3     -10.1252      2.00000
      4      -9.0022      2.00000
      5      -8.5683      2.00000
      6      -8.5587      2.00000
      7      -8.1411      2.00000
      8      -8.0377      2.00000
      9      -7.8562      2.00000
     10      -7.7745      2.00000
     11      -7.7413      2.00000
     12      -7.6750      2.00000
     13      -2.8968      2.00000
     14      -2.6484      2.00000
     15      -2.2363      2.00000
     16      -1.9819      2.00000
     17      -1.6057      2.00000
     18      -1.5942      2.00000
     19      -1.3575      2.00000
     20      -1.1690      2.00000
     21      -1.0411      2.00000
     22      -0.1500      2.00000
     23       0.0598      2.00000
     24       0.0614      2.00000
     25       0.8267      2.00000
     26       1.0955      2.00000
     27       1.1726      2.00000
     28       1.5150      2.00000
     29       1.6600      2.00000
     30       1.7085      2.00000
     31       1.9210      2.00000
     32       2.1361      2.00000
     33       2.2798      2.00000
     34       2.3705      2.00000
     35       2.4861      2.00000
     36       2.7806      2.00000
     37       2.8076      2.00000
     38       2.9819      2.00000
     39       3.3186      2.00000
     40       3.5164      2.00000
     41       3.6750      2.00000
     42       3.8806      2.00000
     43       3.9532      2.00000
     44       4.0766      2.00000
     45       4.3357      2.00000
     46       4.6935      2.00000
     47       4.7102      2.00000
     48       4.9544      2.00000
     49       5.0676      2.00000
     50       5.2898      2.00000
     51       5.3577      2.00000
     52       5.6675      2.00000
     53       5.7645      2.00000
     54       5.9018      2.00000
     55       6.2000      2.00000
     56       6.3700      2.00000
     57       6.4172      2.00000
     58       6.7614      2.00000
     59       7.2356      2.00000
     60       7.2528      2.00000
     61       7.8167      2.00000
     62       8.5470      1.99042
     63       8.6944      1.99041
     64      10.9634      0.00000
     65      11.0776      0.00000
     66      11.2570      0.00000
     67      11.4220      0.00000
     68      11.6487      0.00000
     69      12.3658      0.00000
     70      12.3828      0.00000
     71      12.4546      0.00000
     72      12.7183      0.00000
     73      13.1607      0.00000
     74      13.3647      0.00000
     75      13.4099      0.00000
     76      13.5813      0.00000
     77      13.6337      0.00000
     78      13.7866      0.00000
     79      13.9436      0.00000
     80      14.2957      0.00000

 k-point     5 :       0.1667    0.1667    0.0000
  band No.  band energies     occupation 
      1     -10.6843      2.00000
      2     -10.2069      2.00000
      3     -10.1091      2.00000
      4      -8.9972      2.00000
      5      -8.9312      2.00000
      6      -8.2627      2.00000
      7      -8.2198      2.00000
      8      -7.9188      2.00000
      9      -7.8649      2.00000
     10      -7.7919      2.00000
     11      -7.7387      2.00000
     12      -7.6832      2.00000
     13      -3.2475      2.00000
     14      -2.5124      2.00000
     15      -2.3071      2.00000
     16      -2.0491      2.00000
     17      -1.5884      2.00000
     18      -1.4326      2.00000
     19      -1.2047      2.00000
     20      -1.1173      2.00000
     21      -0.7339      2.00000
     22      -0.1264      2.00000
     23      -0.0695      2.00000
     24       0.2748      2.00000
     25       0.6728      2.00000
     26       1.1338      2.00000
     27       1.1606      2.00000
     28       1.3318      2.00000
     29       1.4502      2.00000
     30       1.5481      2.00000
     31       1.9982      2.00000
     32       2.1305      2.00000
     33       2.2952      2.00000
     34       2.4669      2.00000
     35       2.4980      2.00000
     36       2.6915      2.00000
     37       2.9735      2.00000
     38       2.9736      2.00000
     39       3.3192      2.00000
     40       3.4256      2.00000
     41       3.4557      2.00000
     42       3.9181      2.00000
     43       3.9830      2.00000
     44       4.1786      2.00000
     45       4.3695      2.00000
     46       4.3981      2.00000
     47       4.7108      2.00000
     48       4.8160      2.00000
     49       4.9311      2.00000
     50       5.4664      2.00000
     51       5.5290      2.00000
     52       5.7059      2.00000
     53       5.7720      2.00000
     54       6.0878      2.00000
     55       6.2430      2.00000
     56       6.2864      2.00000
     57       6.5505      2.00000
     58       6.8553      2.00000
     59       7.0862      2.00000
     60       7.5081      2.00000
     61       7.7346      2.00000
     62       8.4260      1.99987
     63       8.8435     -0.09744
     64      10.7571      0.00000
     65      10.9137      0.00000
     66      11.1929      0.00000
     67      11.2717      0.00000
     68      11.9603      0.00000
     69      12.0132      0.00000
     70      12.4823      0.00000
     71      12.6065      0.00000
     72      12.8058      0.00000
     73      13.1633      0.00000
     74      13.1782      0.00000
     75      13.3745      0.00000
     76      13.5430      0.00000
     77      13.7121      0.00000
     78      13.7794      0.00000
     79      13.9821      0.00000
     80      14.0990      0.00000

 k-point     6 :       0.3333    0.1667    0.0000
  band No.  band energies     occupation 
      1     -10.5658      2.00000
      2     -10.3577      2.00000
      3     -10.1603      2.00000
      4      -8.9283      2.00000
      5      -8.7319      2.00000
      6      -8.4702      2.00000
      7      -8.1532      2.00000
      8      -7.9850      2.00000
      9      -7.8842      2.00000
     10      -7.7753      2.00000
     11      -7.7343      2.00000
     12      -7.6847      2.00000
     13      -2.9338      2.00000
     14      -2.5276      2.00000
     15      -2.2678      2.00000
     16      -2.0896      2.00000
     17      -1.6607      2.00000
     18      -1.5230      2.00000
     19      -1.3144      2.00000
     20      -1.1850      2.00000
     21      -1.0063      2.00000
     22      -0.1240      2.00000
     23      -0.0236      2.00000
     24       0.0904      2.00000
     25       0.7569      2.00000
     26       1.1398      2.00000
     27       1.2033      2.00000
     28       1.4957      2.00000
     29       1.6697      2.00000
     30       1.7177      2.00000
     31       2.0031      2.00000
     32       2.1390      2.00000
     33       2.2156      2.00000
     34       2.4203      2.00000
     35       2.4953      2.00000
     36       2.6750      2.00000
     37       2.8529      2.00000
     38       3.0703      2.00000
     39       3.3229      2.00000
     40       3.3911      2.00000
     41       3.5703      2.00000
     42       3.8392      2.00000
     43       3.8628      2.00000
     44       4.2390      2.00000
     45       4.3927      2.00000
     46       4.6570      2.00000
     47       4.8087      2.00000
     48       4.9442      2.00000
[...]
     33       2.2656      2.00000
     34       2.3073      2.00000
     35       2.4861      2.00000
     36       2.6988      2.00000
     37       2.7207      2.00000
     38       3.1252      2.00000
     39       3.1511      2.00000
     40       3.3776      2.00000
     41       3.6049      2.00000
     42       3.6079      2.00000
     43       3.7376      2.00000
     44       3.8212      2.00000
     45       4.1962      2.00000
     46       4.4538      2.00000
     47       4.5475      2.00000
     48       4.8324      2.00000
     49       4.9327      2.00000
     50       5.0645      2.00000
     51       5.5502      2.00000
     52       5.5529      2.00000
     53       6.1840      2.00000
     54       6.2256      2.00000
     55       6.3859      2.00000
     56       6.5046      2.00000
     57       7.1588      2.00000
     58       7.1805      2.00000
     59       7.3132      2.00000
     60       7.3517      2.00000
     61       8.5688      2.05216
     62       8.5953      2.09745
     63       8.8929      0.00913
     64       8.8955      0.00947
     65      11.2441      0.00000
     66      11.3395      0.00000
     67      11.5173      0.00000
     68      11.5715      0.00000
     69      12.3760      0.00000
     70      12.4725      0.00000
     71      12.6521      0.00000
     72      12.8593      0.00000
     73      13.1255      0.00000
     74      13.2673      0.00000
     75      13.3543      0.00000
     76      13.4666      0.00000
     77      13.6794      0.00000
     78      13.7204      0.00000
     79      13.7430      0.00000
     80      13.8642      0.00000

 k-point    43 :       0.3333    0.1667    0.5000
  band No.  band energies     occupation 
      1      -9.6805      2.00000
      2      -9.6797      2.00000
      3      -9.2918      2.00000
      4      -9.2817      2.00000
      5      -9.2184      2.00000
      6      -9.1982      2.00000
      7      -8.0925      2.00000
      8      -8.0610      2.00000
      9      -8.0034      2.00000
     10      -7.9817      2.00000
     11      -7.4617      2.00000
     12      -7.4603      2.00000
     13      -2.1091      2.00000
     14      -2.0484      2.00000
     15      -1.6474      2.00000
     16      -1.5928      2.00000
     17      -1.2865      2.00000
     18      -1.1942      2.00000
     19      -0.6516      2.00000
     20      -0.6248      2.00000
     21      -0.0943      2.00000
     22      -0.0731      2.00000
     23       0.5027      2.00000
     24       0.7720      2.00000
     25       0.8390      2.00000
     26       1.0390      2.00000
     27       1.1139      2.00000
     28       1.1465      2.00000
     29       1.4163      2.00000
     30       1.5236      2.00000
     31       1.9083      2.00000
     32       1.9535      2.00000
     33       2.1005      2.00000
     34       2.2116      2.00000
     35       2.3746      2.00000
     36       2.4187      2.00000
     37       2.6965      2.00000
     38       3.1620      2.00000
     39       3.3753      2.00000
     40       3.5616      2.00000
     41       3.6892      2.00000
     42       3.7532      2.00000
     43       3.7991      2.00000
     44       3.8994      2.00000
     45       4.2844      2.00000
     46       4.5448      2.00000
     47       4.8402      2.00000
     48       5.0384      2.00000
     49       5.2391      2.00000
     50       5.3076      2.00000
     51       5.5046      2.00000
     52       5.5924      2.00000
     53       5.8844      2.00000
     54       5.9777      2.00000
     55       6.3612      2.00000
     56       6.4316      2.00000
     57       6.8955      2.00000
     58       6.9151      2.00000
     59       7.2175      2.00000
     60       7.2457      2.00000
     61       8.6964      1.09843
     62       8.7091      0.83014
     63       8.8340     -0.05086
     64       8.8495     -0.02414
     65      11.1373      0.00000
     66      11.2121      0.00000
     67      11.5039      0.00000
     68      11.5714      0.00000
     69      12.0424      0.00000
     70      12.2815      0.00000
     71      12.6632      0.00000
     72      12.7839      0.00000
     73      13.1707      0.00000
     74      13.3432      0.00000
     75      13.3982      0.00000
     76      13.5642      0.00000
     77      13.5993      0.00000
     78      13.7494      0.00000
     79      13.8810      0.00000
     80      13.9510      0.00000

 k-point    44 :       0.3333    0.3333    0.5000
  band No.  band energies     occupation 
      1      -9.6626      2.00000
      2      -9.6626      2.00000
      3      -9.2790      2.00000
      4      -9.2790      2.00000
      5      -9.2668      2.00000
      6      -9.2270      2.00000
      7      -8.0684      2.00000
      8      -8.0134      2.00000
      9      -8.0134      2.00000
     10      -7.9934      2.00000
     11      -7.4742      2.00000
     12      -7.4742      2.00000
     13      -1.9951      2.00000
     14      -1.7743      2.00000
     15      -1.7147      2.00000
     16      -1.7147      2.00000
     17      -1.3899      2.00000
     18      -1.3899      2.00000
     19      -0.5779      2.00000
     20      -0.5074      2.00000
     21      -0.1779      2.00000
     22      -0.1779      2.00000
     23       0.6074      2.00000
     24       0.6074      2.00000
     25       0.9691      2.00000
     26       0.9691      2.00000
     27       1.1381      2.00000
     28       1.1407      2.00000
     29       1.5127      2.00000
     30       1.5127      2.00000
     31       1.9586      2.00000
     32       1.9586      2.00000
     33       2.0650      2.00000
     34       2.2320      2.00000
     35       2.2320      2.00000
     36       2.2506      2.00000
     37       2.6042      2.00000
     38       3.3762      2.00000
     39       3.3762      2.00000
     40       3.5249      2.00000
     41       3.7875      2.00000
     42       3.7875      2.00000
     43       3.9584      2.00000
     44       4.1621      2.00000
     45       4.1621      2.00000
     46       4.2924      2.00000
     47       5.0899      2.00000
     48       5.0899      2.00000
     49       5.2874      2.00000
     50       5.3830      2.00000
     51       5.3830      2.00000
     52       5.6083      2.00000
     53       5.8911      2.00000
     54       5.8911      2.00000
     55       6.4074      2.00000
     56       6.4074      2.00000
     57       6.8520      2.00000
     58       6.8520      2.00000
     59       7.1301      2.00000
     60       7.1330      2.00000
     61       8.7357      0.33203
     62       8.7482      0.15590
     63       8.8242     -0.06970
     64       8.8242     -0.06970
     65      11.1833      0.00000
     66      11.1833      0.00000
     67      11.5048      0.00000
     68      11.5048      0.00000
     69      11.8270      0.00000
     70      12.2186      0.00000
     71      12.6922      0.00000
     72      12.6922      0.00000
     73      13.3102      0.00000
     74      13.4010      0.00000
     75      13.4010      0.00000
     76      13.6314      0.00000
     77      13.6314      0.00000
     78      13.9003      0.00000
     79      13.9003      0.00000
     80      13.9427      0.00000


--------------------------------------------------------------------------------------------------------


 soft charge-density along one line, spin component           1
         0         1         2         3         4         5         6         7         8         9
 total charge-density along one line
 
 pseudopotential strength for first ion, spin component:           1
 12.328  14.774  -0.001  -0.001   0.001  -0.005  -0.003   0.003
 14.774  17.706  -0.002  -0.001   0.001  -0.006  -0.004   0.003
 -0.001  -0.002  -5.725   0.011  -0.014  -7.595   0.018  -0.022
 -0.001  -0.001   0.011  -5.737  -0.010   0.018  -7.614  -0.016
  0.001   0.001  -0.014  -0.010  -5.724  -0.022  -0.016  -7.593
 -0.005  -0.006  -7.595   0.018  -0.022  -9.350   0.027  -0.035
 -0.003  -0.004   0.018  -7.614  -0.016   0.027  -9.380  -0.025
  0.003   0.003  -0.022  -0.016  -7.593  -0.035  -0.025  -9.347
 total augmentation occupancy for first ion, spin component:           1
  8.086  -3.849   0.276   0.203  -0.179  -0.077  -0.060   0.055
 -3.849   1.966  -0.232  -0.165   0.150   0.050   0.038  -0.036
  0.276  -0.232   2.257  -0.113   0.145  -0.368   0.054  -0.067
  0.203  -0.165  -0.113   2.418   0.115   0.054  -0.425  -0.047
 -0.179   0.150   0.145   0.115   2.261  -0.067  -0.048  -0.366
 -0.077   0.050  -0.368   0.054  -0.067   0.072  -0.014   0.019
 -0.060   0.038   0.054  -0.425  -0.048  -0.014   0.087   0.012
  0.055  -0.036  -0.067  -0.047  -0.366   0.019   0.012   0.070


------------------------ aborting loop because EDIFF is reached ----------------------------------------


    CHARGE:  cpu time    0.3445: real time    0.3445
    FORLOC:  cpu time    0.0089: real time    0.0089
    FORNL :  cpu time    1.9767: real time    1.9764
    STRESS:  cpu time    5.9676: real time    5.9671
    FORCOR:  cpu time    0.0426: real time    0.0426
    FORHAR:  cpu time    0.0156: real time    0.0156
    MIXING:  cpu time    0.0009: real time    0.0009
    OFIELD:  cpu time    0.0000: real time    0.0000

  FORCE on cell =-STRESS in cart. coord.  units (eV):
  Direction    XX          YY          ZZ          XY          YZ          ZX
  --------------------------------------------------------------------------------------
  Alpha Z   154.42295   154.42295   154.42295
  Ewald   -1735.25748 -1735.25748  -938.84227     0.00000     0.00000     0.00000
  Hartree   291.32892   291.32892   657.47824     0.00000     0.00000    -0.00000
  E(xc)    -483.96213  -483.96212  -482.14494     0.00000     0.00000     0.00000
  Local    -308.34012  -308.33941 -1411.42672     0.00000     0.00000    -0.00000
  n-local   452.43121   452.59372   449.56621     0.08070    -0.00338     0.20604
  augment   -76.87114   -76.87174   -76.00059    -0.00000     0.00000     0.00000
  Kinetic  1751.00533  1751.88318  1683.34716    -0.14479     0.34633    -0.29958
  Fock        0.00000     0.00000     0.00000     0.00000     0.00000     0.00000
  -------------------------------------------------------------------------------------
  Total      45.27778    45.27778    36.40003     0.00000     0.00000    -0.00000
  in kB     229.73386   229.73386   184.68927     0.00000     0.00000    -0.00000
  external pressure =      214.72 kB  Pullay stress =        0.00 kB


 VOLUME and BASIS-vectors are now :
 -----------------------------------------------------------------------------
  energy-cutoff  :      400.00
  volume of cell :      315.77
      direct lattice vectors                 reciprocal lattice vectors
     4.143371061 -7.176529191  0.000000000     0.120674686 -0.069671562  0.000000000
     4.143371061  7.176529191  0.000000000     0.120674686  0.069671562  0.000000000
     0.000000000  0.000000000  5.309729874     0.000000000  0.000000000  0.188333498

  length of vectors
     8.286742121  8.286742121  5.309729874     0.139343124  0.139343124  0.188333498


 FORCES acting on ions
    electron-ion (+dipol)            ewald-force                    non-local-force                 convergence-correction
 -----------------------------------------------------------------------------------------------
   -.398E+02 -.121E+02 0.967E+01   0.435E+02 0.613E+01 -.136E+02   -.374E+01 0.593E+01 0.390E+01   -.347E-02 -.942E-02 -.185E-01
   0.945E+01 0.405E+02 0.967E+01   -.164E+02 -.407E+02 -.136E+02   0.700E+01 0.274E+00 0.390E+01   -.642E-02 0.771E-02 -.185E-01
   0.171E+02 0.210E+02 0.123E+02   -.184E+02 -.176E+02 -.153E+02   0.130E+01 -.345E+01 0.297E+01   -.178E-01 -.645E-03 0.125E-02
   -.398E+02 0.121E+02 0.967E+01   0.435E+02 -.613E+01 -.136E+02   -.374E+01 -.593E+01 0.390E+01   -.347E-02 0.942E-02 -.185E-01
   0.966E+01 0.254E+02 0.123E+02   -.603E+01 -.248E+02 -.153E+02   -.364E+01 -.599E+00 0.297E+01   0.832E-02 -.157E-01 0.125E-02
   0.171E+02 -.210E+02 0.123E+02   -.184E+02 0.176E+02 -.153E+02   0.130E+01 0.345E+01 0.297E+01   -.178E-01 0.645E-03 0.125E-02
   0.303E+02 -.284E+02 0.967E+01   -.271E+02 0.346E+02 -.136E+02   -.326E+01 -.620E+01 0.390E+01   0.989E-02 0.170E-02 -.185E-01
   -.268E+02 -.431E+01 0.123E+02   0.245E+02 0.717E+01 -.153E+02   0.234E+01 -.285E+01 0.297E+01   0.944E-02 0.151E-01 0.125E-02
   0.945E+01 -.405E+02 0.967E+01   -.164E+02 0.407E+02 -.136E+02   0.700E+01 -.274E+00 0.390E+01   -.642E-02 -.771E-02 -.185E-01
   0.303E+02 0.284E+02 0.967E+01   -.271E+02 -.346E+02 -.136E+02   -.326E+01 0.620E+01 0.390E+01   0.989E-02 -.170E-02 -.185E-01
   -.268E+02 0.431E+01 0.123E+02   0.245E+02 -.717E+01 -.153E+02   0.234E+01 0.285E+01 0.297E+01   0.944E-02 -.151E-01 0.125E-02
   0.966E+01 -.254E+02 0.123E+02   -.603E+01 0.248E+02 -.153E+02   -.364E+01 0.599E+00 0.297E+01   0.832E-02 0.157E-01 0.125E-02
   0.837E+02 0.150E+02 0.470E+01   -.838E+02 -.158E+02 -.511E+01   0.106E+00 0.769E+00 0.467E+00   -.350E-02 0.103E-02 0.220E-02
   -.288E+02 -.800E+02 0.470E+01   0.282E+02 0.804E+02 -.511E+01   0.613E+00 -.477E+00 0.467E+00   0.264E-02 0.252E-02 0.220E-02
   0.837E+02 -.150E+02 0.470E+01   -.838E+02 0.158E+02 -.511E+01   0.106E+00 -.769E+00 0.467E+00   -.350E-02 -.103E-02 0.220E-02
   -.548E+02 0.650E+02 0.470E+01   0.555E+02 -.647E+02 -.511E+01   -.719E+00 -.292E+00 0.467E+00   0.857E-03 -.355E-02 0.220E-02
   0.117E-05 -.563E-07 0.179E+01   0.284E-13 -.299E-11 -.132E+01   -.389E-17 -.616E-18 -.528E+00   0.848E-08 0.440E-08 0.148E-02
   -.278E+02 0.468E+02 -.239E+02   0.319E+02 -.475E+02 0.251E+02   -.405E+01 0.668E+00 -.122E+01   0.570E-03 -.231E-04 -.184E-02
   0.117E-05 0.563E-07 0.179E+01   0.275E-13 0.296E-11 -.132E+01   -.853E-17 -.402E-17 -.528E+00   0.848E-08 -.440E-08 0.148E-02
   -.746E-06 0.539E-07 -.349E+02   -.172E-11 -.411E-11 0.280E+02   -.125E-16 -.347E-18 0.691E+01   0.936E-07 -.364E-08 -.174E-02
   -.267E+02 0.475E+02 -.239E+02   0.252E+02 -.514E+02 0.251E+02   0.144E+01 0.384E+01 -.122E+01   -.265E-03 -.505E-03 -.184E-02
   -.288E+02 0.800E+02 0.470E+01   0.282E+02 -.804E+02 -.511E+01   0.613E+00 0.477E+00 0.467E+00   0.264E-02 -.252E-02 0.220E-02
   -.548E+02 -.650E+02 0.470E+01   0.555E+02 0.647E+02 -.511E+01   -.719E+00 0.292E+00 0.467E+00   0.857E-03 0.355E-02 0.220E-02
   -.746E-06 -.539E-07 -.349E+02   0.451E-12 0.310E-11 0.280E+02   -.281E-17 0.197E-17 0.691E+01   0.936E-07 0.364E-08 -.174E-02
   0.545E+02 -.688E+00 -.239E+02   -.571E+02 0.390E+01 0.251E+02   0.260E+01 -.317E+01 -.122E+01   -.305E-03 0.482E-03 -.184E-02
   0.545E+02 0.688E+00 -.239E+02   -.571E+02 -.390E+01 0.251E+02   0.260E+01 0.317E+01 -.122E+01   -.305E-03 -.482E-03 -.184E-02
   -.267E+02 -.475E+02 -.239E+02   0.252E+02 0.514E+02 0.251E+02   0.144E+01 -.384E+01 -.122E+01   -.265E-03 0.505E-03 -.184E-02
   -.278E+02 -.468E+02 -.239E+02   0.319E+02 0.475E+02 0.251E+02   -.405E+01 -.668E+00 -.122E+01   0.570E-03 0.231E-04 -.184E-02
 -----------------------------------------------------------------------------------------------
   0.118E-05 -.358E-11 -.493E+02   -.391E-13 0.639E-13 0.462E-13   -.888E-15 0.111E-14 0.494E+02   -.181E-06 0.294E-11 -.102E+00
 
 
 POSITION                                       TOTAL-FORCE (eV/Angst)
 -----------------------------------------------------------------------------------
      2.72505      4.54550      1.08739        -0.021898     -0.016248     -0.012004
      6.71736      2.54382      1.08739        -0.003122      0.027089     -0.012004
      5.10197     -4.22927      5.26709        -0.026623     -0.015211     -0.016424
      2.72505     -4.54550      3.74225        -0.021898      0.016248     -0.012004
      2.07310      2.30380      2.61223         0.000138     -0.030662     -0.016424
      5.10197      4.22927      2.61223        -0.026623      0.015211     -0.016424
      2.98770      0.08721      1.08739         0.025021     -0.010840     -0.012004
      5.25504      0.64346      2.61223         0.026485      0.015451     -0.016424
      6.71736     -2.54382      3.74225        -0.003122     -0.027089     -0.012004
      2.98770     -0.08721      3.74225         0.025021      0.010840     -0.012004
      5.25504     -0.64346      5.26709         0.026485     -0.015451     -0.016424
      2.07310     -2.30380      5.26709         0.000138      0.030662     -0.016424
      2.13116      0.61946      2.44401        -0.008888      0.023299      0.055508
      3.61426      5.02116      2.44401         0.024622     -0.003953      0.055508
      2.13116     -0.61946      5.09888        -0.008888     -0.023299      0.055508
      6.68470      1.53591      2.44401        -0.015734     -0.019347      0.055508
      0.00000      0.00000      5.03391         0.000000      0.000000     -0.053273
      2.32347      2.96137      4.18966         0.045151      0.012913     -0.000719
      0.00000      0.00000      2.37904         0.000000      0.000000     -0.053273
      4.14337     -2.39218      2.70670         0.000000      0.000000     -0.025810
      4.56038     -0.53150      1.53479        -0.033759     -0.032646     -0.000719
      3.61426     -5.02116      5.09888         0.024622      0.003953      0.055508
      6.68470     -1.53591      5.09888        -0.015734      0.019347      0.055508
      4.14337      2.39218      0.05183         0.000000      0.000000     -0.025810
      5.54626     -3.68366      1.53479        -0.011392      0.045559     -0.000719
      5.54626      3.68366      4.18966        -0.011392     -0.045559     -0.000719
      4.56038      0.53150      4.18966        -0.033759      0.032646     -0.000719
      2.32347     -2.96137      1.53479         0.045151     -0.012913     -0.000719
 -----------------------------------------------------------------------------------
    total drift:                                0.000001     -0.000000     -0.005702


--------------------------------------------------------------------------------------------------------



  FREE ENERGIE OF THE ION-ELECTRON SYSTEM (eV)
  ---------------------------------------------------
  free  energy   TOTEN  =      -198.71889513 eV

  energy  without entropy=     -198.71103059  energy(sigma->0) =     -198.71692899
 
 d Force = 0.3133272E-04[-0.294E-04, 0.921E-04]  d Energy =-0.2909038E-05 0.342E-04
 d Force = 0.5312218E-01[ 0.530E-01, 0.532E-01]  d Ewald  = 0.5312220E-01-0.212E-07


--------------------------------------------------------------------------------------------------------


    POTLOK:  cpu time    0.0383: real time    0.0383


--------------------------------------------------------------------------------------------------------




--------------------------------------------------------------------------------------------------------


  
 reached required accuracy - stopping structural energy minimisation
     LOOP+:  cpu time   19.8161: real time   19.9912
    4ORBIT:  cpu time    0.0000: real time    0.0000

 total amount of memory used by VASP MPI-rank0    64123. kBytes
=======================================================================

   base      :      30000. kBytes
   nonlr-proj:       5984. kBytes
   fftplans  :       2677. kBytes
   grid      :       4209. kBytes
   one-center:         21. kBytes
   wavefun   :      21232. kBytes
 
  
  
 General timing and accounting informations for this job:
 ========================================================
  
                  Total CPU time used (sec):      554.513
                            User time (sec):      553.366
                          System time (sec):        1.147
                         Elapsed time (sec):      556.556
  
                   Maximum memory used (kb):       81176.
                   Average memory used (kb):           0.
  
                          Minor page faults:       150741
                          Major page faults:            0
                 Voluntary context switches:         8977
