<?xml version="1.0" encoding="ISO-8859-1"?>
<modeling>
 <generator>
  <i name="program" type="string">vasp </i>
  <i name="version" type="string">5.4.4.18Apr17-6-g9f103f2a35  </i>
  <i name="subversion" type="string">(build Nov 01 2019 12:17:22) complex            parallel </i>
  <i name="platform" type="string">LinuxIFC </i>
  <i name="date" type="string">2023 05 19 </i>
  <i name="time" type="string">18:21:55 </i>
 </generator>
 <incar>
  <i type="string" name="PREC">accurate</i>
  <i type="string" name="ALGO"> Fast</i>
  <i type="int" name="IBRION">     2</i>
  <i type="int" name="NSW">   100</i>
  <i type="int" name="ISIF">     2</i>
  <i type="string" name="LREAL"> Auto</i>
  <i type="int" name="ISMEAR">     2</i>
  <i name="SIGMA">      0.10000000</i>
  <i type="logical" name="LWAVE"> F  </i>
  <i type="logical" name="LCHARG"> F  </i>
  <v type="int" name="KPOINT_BSE">    -1     0     0     0</v>
 </incar>
 <structure name="primitive_cell" >
  <crystal>
   <varray name="basis" >
    <v>       4.14337106      -7.17652919       0.00000000 </v>
    <v>       4.14337106       7.17652919       0.00000000 </v>
    <v>       0.00000000       0.00000000       5.30972987 </v>
   </varray>
   <i name="volume">    315.76988377 </i>
   <varray name="rec_basis" >
    <v>       0.12067469      -0.06967156       0.00000000 </v>
    <v>       0.12067469       0.06967156       0.00000000 </v>
    <v>       0.00000000       0.00000000       0.18833350 </v>
   </varray>
  </crystal>
  <varray name="positions" >
   <v>       0.00847736      -0.35287377       0.21326215 </v>
   <v>       0.08729345      -0.21311138       0.46674092 </v>
   <v>      -0.08729345      -0.30040483      -0.03325908 </v>
   <v>      -0.06686359       0.41763405       0.28259872 </v>
   <v>      -0.00847736      -0.36135113      -0.28673785 </v>
   <v>      -0.08582195       0.32157747      -0.00812732 </v>
   <v>       0.08582195       0.40739942       0.49187268 </v>
   <v>      -0.32157747      -0.40739942      -0.00812732 </v>
   <v>       0.06686359       0.48449764      -0.21740128 </v>
   <v>       0.32157747      -0.08582195       0.49187268 </v>
   <v>       0.33333333      -0.33333333      -0.02422298 </v>
   <v>      -0.33333333       0.33333333       0.47577702 </v>
   <v>      -0.41763405      -0.48449764       0.28259872 </v>
   <v>       0.00000000       0.00000000       0.45692726 </v>
   <v>       0.00000000       0.00000000      -0.04307274 </v>
   <v>       0.40739942       0.08582195      -0.00812732 </v>
   <v>       0.48449764       0.06686359       0.28259872 </v>
   <v>       0.41763405      -0.06686359      -0.21740128 </v>
   <v>      -0.40739942      -0.32157747       0.49187268 </v>
   <v>       0.21311138       0.30040483       0.46674092 </v>
   <v>      -0.21311138       0.08729345      -0.03325908 </v>
   <v>       0.30040483       0.21311138      -0.03325908 </v>
   <v>      -0.30040483      -0.08729345       0.46674092 </v>
   <v>      -0.48449764      -0.41763405      -0.21740128 </v>
   <v>       0.35287377       0.36135113       0.21326215 </v>
   <v>      -0.36135113      -0.00847736       0.21326215 </v>
   <v>      -0.35287377       0.00847736      -0.28673785 </v>
   <v>       0.36135113       0.35287377      -0.28673785 </v>
  </varray>
 </structure>
 <varray name="primitive_index" >
  <v type="int" >        1 </v>
  <v type="int" >       14 </v>
  <v type="int" >       23 </v>
  <v type="int" >       25 </v>
  <v type="int" >        9 </v>
  <v type="int" >        3 </v>
  <v type="int" >        5 </v>
  <v type="int" >       11 </v>
  <v type="int" >       18 </v>
  <v type="int" >        6 </v>
  <v type="int" >       24 </v>
  <v type="int" >       20 </v>
  <v type="int" >       21 </v>
  <v type="int" >       19 </v>
  <v type="int" >       17 </v>
  <v type="int" >       12 </v>
  <v type="int" >       28 </v>
  <v type="int" >       26 </v>
  <v type="int" >        8 </v>
  <v type="int" >       13 </v>
  <v type="int" >       22 </v>
  <v type="int" >       15 </v>
  <v type="int" >       16 </v>
  <v type="int" >       27 </v>
  <v type="int" >        7 </v>
  <v type="int" >        2 </v>
  <v type="int" >        4 </v>
  <v type="int" >       10 </v>
 </varray>
 <kpoints>
  <generation param="Auto">
   <i name="subdivisionlength">     45.00000000 </i>
   <v type="int" name="divisions">       6        6        8 </v>
   <v name="usershift">      0.00000000       0.00000000       0.00000000 </v>
   <v name="genvec1">      0.16666667       0.00000000       0.00000000 </v>
   <v name="genvec2">      0.00000000       0.16666667       0.00000000 </v>
   <v name="genvec3">      0.00000000       0.00000000       0.12500000 </v>
   <v name="shift">      0.00000000       0.00000000       0.00000000 </v>
  </generation>
  <varray name="kpointlist" >
   <v>       0.00000000       0.00000000       0.00000000 </v>
   <v>       0.16666667       0.00000000       0.00000000 </v>
   <v>       0.33333333       0.00000000       0.00000000 </v>
   <v>       0.50000000       0.00000000       0.00000000 </v>
   <v>       0.16666667       0.16666667       0.00000000 </v>
   <v>       0.33333333       0.16666667       0.00000000 </v>
   <v>       0.33333333       0.33333333       0.00000000 </v>
   <v>       0.00000000       0.00000000       0.12500000 </v>
   <v>       0.16666667       0.00000000       0.12500000 </v>
   <v>       0.33333333       0.00000000       0.12500000 </v>
   <v>       0.50000000       0.00000000       0.12500000 </v>
   <v>       0.16666667       0.16666667       0.12500000 </v>
   <v>       0.33333333       0.16666667       0.12500000 </v>
   <v>       0.33333333       0.33333333       0.12500000 </v>
   <v>      -0.16666667       0.33333333       0.12500000 </v>
   <v>      -0.33333333       0.50000000       0.12500000 </v>
   <v>      -0.33333333      -0.33333333       0.12500000 </v>
   <v>       0.00000000       0.00000000       0.25000000 </v>
   <v>       0.16666667       0.00000000       0.25000000 </v>
   <v>       0.33333333       0.00000000       0.25000000 </v>
   <v>       0.50000000       0.00000000       0.25000000 </v>
   <v>       0.16666667       0.16666667       0.25000000 </v>
   <v>       0.33333333       0.16666667       0.25000000 </v>
   <v>       0.33333333       0.33333333       0.25000000 </v>
   <v>      -0.16666667       0.33333333       0.25000000 </v>
   <v>      -0.33333333       0.50000000       0.25000000 </v>
   <v>      -0.33333333      -0.33333333       0.25000000 </v>
   <v>       0.00000000       0.00000000       0.37500000 </v>
   <v>       0.16666667       0.00000000       0.37500000 </v>
   <v>       0.33333333       0.00000000       0.37500000 </v>
   <v>       0.50000000       0.00000000       0.37500000 </v>
   <v>       0.16666667       0.16666667       0.37500000 </v>
   <v>       0.33333333       0.16666667       0.37500000 </v>
   <v>       0.33333333       0.33333333       0.37500000 </v>
   <v>      -0.16666667       0.33333333       0.37500000 </v>
   <v>      -0.33333333       0.50000000       0.37500000 </v>
   <v>      -0.33333333      -0.33333333       0.37500000 </v>
   <v>       0.00000000       0.00000000       0.50000000 </v>
   <v>       0.16666667       0.00000000       0.50000000 </v>
   <v>       0.33333333       0.00000000       0.50000000 </v>
   <v>       0.50000000       0.00000000       0.50000000 </v>
   <v>       0.16666667       0.16666667       0.50000000 </v>
   <v>       0.33333333       0.16666667       0.50000000 </v>
   <v>       0.33333333       0.33333333       0.50000000 </v>
  </varray>
  <varray name="weights" >
   <v>       0.00347222 </v>
   <v>       0.02083333 </v>
   <v>       0.02083333 </v>
   <v>       0.01041667 </v>
   <v>       0.02083333 </v>
   <v>       0.04166667 </v>
   <v>       0.00694444 </v>
   <v>       0.00694444 </v>
   <v>       0.04166667 </v>
   <v>       0.04166667 </v>
   <v>       0.02083333 </v>
   <v>       0.02083333 </v>
   <v>       0.04166667 </v>
   <v>       0.00694444 </v>
   <v>       0.02083333 </v>
   <v>       0.04166667 </v>
   <v>       0.00694444 </v>
   <v>       0.00694444 </v>
   <v>       0.04166667 </v>
   <v>       0.04166667 </v>
   <v>       0.02083333 </v>
   <v>       0.02083333 </v>
   <v>       0.04166667 </v>
   <v>       0.00694444 </v>
   <v>       0.02083333 </v>
   <v>       0.04166667 </v>
   <v>       0.00694444 </v>
   <v>       0.00694444 </v>
   <v>       0.04166667 </v>
   <v>       0.04166667 </v>
   <v>       0.02083333 </v>
   <v>       0.02083333 </v>
   <v>       0.04166667 </v>
   <v>       0.00694444 </v>
   <v>       0.02083333 </v>
   <v>       0.04166667 </v>
   <v>       0.00694444 </v>
   <v>       0.00347222 </v>
   <v>       0.02083333 </v>
   <v>       0.02083333 </v>
   <v>       0.01041667 </v>
   <v>       0.02083333 </v>
   <v>       0.04166667 </v>
   <v>       0.00694444 </v>
  </varray>
 </kpoints>
 <parameters>
  <separator name="general" >
   <i type="string" name="SYSTEM">unknown system</i>
   <i type="logical" name="LCOMPAT"> F  </i>
  </separator>
  <separator name="electronic" >
   <i type="string" name="PREC">accura</i>
   <i name="ENMAX">    400.00000000</i>
   <i name="ENAUG">    627.11200000</i>
   <i name="EDIFF">      0.00010000</i>
   <i type="int" name="IALGO">    68</i>
   <i type="int" name="IWAVPR">    11</i>
   <i type="int" name="NBANDS">    80</i>
   <i name="NELECT">    124.00000000</i>
   <i type="int" name="TURBO">     0</i>
   <i type="int" name="IRESTART">     0</i>
   <i type="int" name="NREBOOT">     0</i>
   <i type="int" name="NMIN">     0</i>
   <i name="EREF">      0.00000000</i>
   <separator name="electronic smearing" >
    <i type="int" name="ISMEAR">     2</i>
    <i name="SIGMA">      0.10000000</i>
    <i name="KSPACING">      0.50000000</i>
    <i type="logical" name="KGAMMA"> T  </i>
   </separator>
   <separator name="electronic projectors" >
    <i type="logical" name="LREAL"> T  </i>
    <v name="ROPT">     -0.00025000     -0.00025000</v>
    <i type="int" name="LMAXPAW">  -100</i>
    <i type="int" name="LMAXMIX">     2</i>
    <i type="logical" name="NLSPLINE"> F  </i>
   </separator>
   <separator name="electronic startup" >
    <i type="int" name="ISTART">     0</i>
    <i type="int" name="ICHARG">     2</i>
    <i type="int" name="INIWAV">     1</i>
   </separator>
   <separator name="electronic spin" >
    <i type="int" name="ISPIN">     1</i>
    <i type="logical" name="LNONCOLLINEAR"> F  </i>
    <v name="MAGMOM">      1.00000000      1.00000000      1.00000000      1.00000000      1.00000000      1.00000000      1.00000000      1.00000000      1.00000000      1.00000000      1.00000000      1.00000000      1.00000000      1.00000000      1.00000000      1.00000000      1.00000000      1.00000000      1.00000000      1.00000000
      1.00000000      1.00000000      1.00000000      1.00000000      1.00000000      1.00000000      1.00000000      1.00000000</v>
    <i name="NUPDOWN">     -1.00000000</i>
    <i type="logical" name="LSORBIT"> F  </i>
    <v name="SAXIS">      0.00000000      0.00000000      1.00000000</v>
    <i type="logical" name="LSPIRAL"> F  </i>
    <v name="QSPIRAL">      0.00000000      0.00000000      0.00000000</v>
    <i type="logical" name="LZEROZ"> F  </i>
   </separator>
   <separator name="electronic exchange-correlation" >
    <i type="logical" name="LASPH"> F  </i>
    <i type="logical" name="LMETAGGA"> F  </i>
   </separator>
   <separator name="electronic convergence" >
    <i type="int" name="NELM">    60</i>
    <i type="int" name="NELMDL">    -5</i>
    <i type="int" name="NELMIN">     2</i>
    <i name="ENINI">    400.00000000</i>
    <separator name="electronic convergence detail" >
     <i type="logical" name="LDIAG"> T  </i>
     <i type="logical" name="LSUBROT"> F  </i>
     <i name="WEIMIN">      0.00100000</i>
     <i name="EBREAK">      0.00000031</i>
     <i name="DEPER">      0.30000000</i>
     <i type="int" name="NRMM">     4</i>
     <i name="TIME">      0.40000000</i>
    </separator>
   </separator>
   <separator name="electronic mixer" >
    <i name="AMIX">      0.40000000</i>
    <i name="BMIX">      1.00000000</i>
    <i name="AMIN">      0.10000000</i>
    <i name="AMIX_MAG">      1.60000000</i>
    <i name="BMIX_MAG">      1.00000000</i>
    <separator name="electronic mixer details" >
     <i type="int" name="IMIX">     4</i>
     <i type="logical" name="MIXFIRST"> F  </i>
     <i type="int" name="MAXMIX">   -45</i>
     <i name="WC">    100.00000000</i>
     <i type="int" name="INIMIX">     1</i>
     <i type="int" name="MIXPRE">     1</i>
     <i type="int" name="MREMOVE">     5</i>
    </separator>
   </separator>
   <separator name="electronic dipolcorrection" >
    <i type="logical" name="LDIPOL"> F  </i>
    <i type="logical" name="LMONO"> F  </i>
    <i type="int" name="IDIPOL">     0</i>
    <i name="EPSILON">      1.00000000</i>
    <v name="DIPOL">   -100.00000000   -100.00000000   -100.00000000</v>
    <i name="EFIELD">      0.00000000</i>
   </separator>
  </separator>
  <separator name="grids" >
   <i type="int" name="NGX">    54</i>
   <i type="int" name="NGY">    54</i>
   <i type="int" name="NGZ">    36</i>
   <i type="int" name="NGXF">   108</i>
   <i type="int" name="NGYF">   108</i>
   <i type="int" name="NGZF">    72</i>
   <i type="logical" name="ADDGRID"> F  </i>
  </separator>
  <separator name="ionic" >
   <i type="int" name="NSW">   100</i>
   <i type="int" name="IBRION">     2</i>
   <i type="int" name="MDALGO">     0</i>
   <i type="int" name="ISIF">     2</i>
   <i name="PSTRESS">      0.00000000</i>
   <i name="EDIFFG">      0.00100000</i>
   <i type="int" name="NFREE">     1</i>
   <i name="POTIM">      0.50000000</i>
   <i name="SMASS">     -3.00000000</i>
   <i name="SCALEE">      1.00000000</i>
  </separator>
  <separator name="ionic md" >
   <i name="TEBEG">      0.00010000</i>
   <i name="TEEND">      0.00010000</i>
   <i type="int" name="NBLOCK">     1</i>
   <i type="int" name="KBLOCK">   100</i>
   <i type="int" name="NPACO">   256</i>
   <i name="APACO">     16.00000000</i>
  </separator>
  <separator name="symmetry" >
   <i type="int" name="ISYM">     2</i>
   <i name="SYMPREC">      0.00001000</i>
  </separator>
  <separator name="dos" >
   <i type="int" name="LORBIT">     0</i>
   <v name="RWIGS">     -1.00000000     -1.00000000</v>
   <i type="int" name="NEDOS">   301</i>
   <i name="EMIN">     10.00000000</i>
   <i name="EMAX">    -10.00000000</i>
   <i name="EFERMI">      0.00000000</i>
  </separator>
  <separator name="writing" >
   <i type="int" name="NWRITE">     2</i>
   <i type="logical" name="LWAVE"> F  </i>
   <i type="logical" name="LDOWNSAMPLE"> F  </i>
   <i type="logical" name="LCHARG"> F  </i>
   <i type="logical" name="LPARD"> F  </i>
   <i type="logical" name="LVTOT"> F  </i>
   <i type="logical" name="LVHAR"> F  </i>
   <i type="logical" name="LELF"> F  </i>
   <i type="logical" name="LOPTICS"> F  </i>
   <v name="STM">      0.00000000      0.00000000      0.00000000      0.00000000      0.00000000      0.00000000      0.00000000</v>
  </separator>
  <separator name="performance" >
   <i type="int" name="NPAR">     4</i>
   <i type="int" name="NSIM">     4</i>
   <i type="int" name="NBLK">    -1</i>
   <i type="logical" name="LPLANE"> T  </i>
   <i type="logical" name="LSCALAPACK"> F  </i>
   <i type="logical" name="LSCAAWARE"> F  </i>
   <i type="logical" name="LSCALU"> F  </i>
   <i type="logical" name="LASYNC"> F  </i>
   <i type="logical" name="LORBITALREAL"> F  </i>
  </separator>
  <separator name="miscellaneous" >
   <i type="int" name="IDIOT">     3</i>
   <i type="int" name="ISPECIAL">     0</i>
   <i type="logical" name="LMUSIC"> F  </i>
   <v name="POMASS">     14.00100000     28.08500000</v>
   <v name="DARWINR">      0.00000000      0.00000000</v>
   <v name="DARWINV">      1.00000000      1.00000000</v>
   <i type="logical" name="LCORR"> T  </i>
  </separator>
  <i type="logical" name="GGA_COMPAT"> T  </i>
  <i type="logical" name="LBERRY"> F  </i>
  <i type="int" name="ICORELEVEL">     0</i>
  <i type="logical" name="LDAU"> F  </i>
  <i type="int" name="I_CONSTRAINED_M">     0</i>
  <separator name="electronic exchange-correlation" >
   <i type="string" name="GGA">--</i>
   <i type="int" name="VOSKOWN">     0</i>
   <i type="logical" name="LHFCALC"> F  </i>
   <i type="string" name="PRECFOCK"></i>
   <i type="logical" name="LSYMGRAD"> F  </i>
   <i type="logical" name="LHFONE"> F  </i>
   <i type="logical" name="LRHFCALC"> F  </i>
   <i type="logical" name="LTHOMAS"> F  </i>
   <i type="logical" name="LMODELHF"> F  </i>
   <i name="ENCUT4O">     -1.00000000</i>
   <i type="int" name="EXXOEP">     0</i>
   <i type="int" name="FOURORBIT">     0</i>
   <i name="AEXX">      0.00000000</i>
   <i name="HFALPHA">      0.00000000</i>
   <i name="MCALPHA">      0.00000000</i>
   <i name="ALDAX">      1.00000000</i>
   <i name="AGGAX">      1.00000000</i>
   <i name="ALDAC">      1.00000000</i>
   <i name="AGGAC">      1.00000000</i>
   <i type="int" name="NKREDX">     1</i>
   <i type="int" name="NKREDY">     1</i>
   <i type="int" name="NKREDZ">     1</i>
   <i type="logical" name="SHIFTRED"> F  </i>
   <i type="logical" name="ODDONLY"> F  </i>
   <i type="logical" name="EVENONLY"> F  </i>
   <i type="int" name="LMAXFOCK">     0</i>
   <i type="int" name="NMAXFOCKAE">     0</i>
   <i type="logical" name="LFOCKAEDFT"> F  </i>
   <i name="HFSCREEN">      0.00000000</i>
   <i name="HFSCREENC">      0.00000000</i>
   <i type="int" name="NBANDSGWLOW">     0</i>
  </separator>
  <separator name="vdW DFT" >
   <i type="logical" name="LUSE_VDW"> F  </i>
   <i name="Zab_VDW">     -0.84910000</i>
   <i name="PARAM1">      0.12340000</i>
   <i name="PARAM2">      1.00000000</i>
   <i name="PARAM3">      0.00000000</i>
  </separator>
  <separator name="model GW" >
   <i type="int" name="MODEL_GW">     0</i>
   <i name="MODEL_EPS0">      6.76649751</i>
   <i name="MODEL_ALPHA">      1.00000000</i>
  </separator>
  <separator name="linear response parameters" >
   <i type="logical" name="LEPSILON"> F  </i>
   <i type="logical" name="LRPA"> F  </i>
   <i type="logical" name="LNABLA"> F  </i>
   <i type="logical" name="LVEL"> F  </i>
   <i type="int" name="KINTER">     0</i>
   <i name="CSHIFT">      0.10000000</i>
   <i name="OMEGAMAX">     -1.00000000</i>
   <i name="DEG_THRESHOLD">      0.00200000</i>
   <i name="RTIME">     -0.10000000</i>
   <i name="WPLASMAI">      0.00000000</i>
   <v name="DFIELD">      0.00000000      0.00000000      0.00000000</v>
   <v name="WPLASMA">      0.00000000      0.00000000      0.00000000      0.00000000      0.00000000      0.00000000      0.00000000      0.00000000      0.00000000</v>
  </separator>
  <separator name="orbital magnetization" >
   <i type="logical" name="NUCIND"> F  </i>
   <v name="MAGPOS">      0.00000000      0.00000000      0.00000000</v>
   <i type="logical" name="LNICSALL"> T  </i>
   <i type="logical" name="ORBITALMAG"> F  </i>
   <i type="logical" name="LMAGBLOCH"> F  </i>
   <i type="logical" name="LCHIMAG"> F  </i>
   <i type="logical" name="LGAUGE"> T  </i>
   <i type="int" name="MAGATOM">     0</i>
   <v name="MAGDIPOL">      0.00000000      0.00000000      0.00000000</v>
   <v name="AVECCONST">      0.00000000      0.00000000      0.00000000</v>
  </separator>
  <separator name="response functions" >
   <i type="logical" name="LADDER"> F  </i>
   <i type="logical" name="LRPAFORCE"> F  </i>
   <i type="logical" name="LFXC"> F  </i>
   <i type="logical" name="LHARTREE"> T  </i>
   <i type="int" name="IBSE">     0</i>
   <v type="int" name="KPOINT">    -1     0     0     0</v>
   <i type="logical" name="LTCTE"> F  </i>
   <i type="logical" name="LTETE"> F  </i>
   <i type="logical" name="LTRIPLET"> F  </i>
   <i type="logical" name="LFXCEPS"> F  </i>
   <i type="logical" name="LFXHEG"> F  </i>
   <i type="int" name="NATURALO">     2</i>
   <i type="logical" name="L2ORDER"> F  </i>
   <i type="logical" name="LMP2LT"> F  </i>
   <i type="logical" name="LUSEW"> F  </i>
   <i name="ENCUTGW">     -2.00000000</i>
   <i name="ENCUTGWSOFT">     -2.00000000</i>
   <i name="ENCUTLF">     -1.00000000</i>
   <i type="int" name="LMAXMP2">    -1</i>
   <i name="SCISSOR">      0.00000000</i>
   <i type="int" name="NOMEGA">     0</i>
   <i type="int" name="NOMEGAR">     0</i>
   <i type="int" name="NBANDSGW">    -1</i>
   <i type="int" name="NBANDSO">    -1</i>
   <i type="int" name="NBANDSV">    -1</i>
   <i type="int" name="NELM">     1</i>
   <i type="int" name="NELMHF">     1</i>
   <i type="int" name="DIM">     3</i>
   <i type="int" name="ANTIRES">     0</i>
   <i name="OMEGAMAX">    -30.00000000</i>
   <i name="OMEGAMIN">    -30.00000000</i>
   <i name="OMEGATL">   -200.00000000</i>
   <i type="int" name="OMEGAGRID">   140</i>
   <i name="CSHIFT">     -0.10000000</i>
   <i type="logical" name="SELFENERGY"> F  </i>
   <i type="logical" name="LSPECTRAL"> F  </i>
   <i type="logical" name="LSPECTRALGW"> F  </i>
   <i type="logical" name="LSINGLES"> F  </i>
   <i type="logical" name="LFERMIGW"> F  </i>
   <i type="logical" name="ODDONLYGW"> F  </i>
   <i type="logical" name="EVENONLYGW"> F  </i>
   <i type="int" name="NKREDLFX">     1</i>
   <i type="int" name="NKREDLFY">     1</i>
   <i type="int" name="NKREDLFZ">     1</i>
   <i type="int" name="MAXMEM">  2800</i>
   <i type="int" name="TELESCOPE">     0</i>
   <i type="int" name="TAUPAR">     1</i>
   <i type="int" name="OMEGAPAR">    -1</i>
   <i name="LAMBDA">      1.00000000</i>
  </separator>
  <separator name="External order field" >
   <i name="OFIELD_KAPPA">      0.00000000</i>
   <v name="OFIELD_K">      0.00000000      0.00000000      0.00000000</v>
   <i name="OFIELD_Q6_NEAR">      0.00000000</i>
   <i name="OFIELD_Q6_FAR">      0.00000000</i>
   <i name="OFIELD_A">      0.00000000</i>
  </separator>
 </parameters>
 <atominfo>
  <atoms>      28 </atoms>
  <types>       2 </types>
  <array name="atoms" >
   <dimension dim="1">ion</dimension>
   <field type="string">element</field>
   <field type="int">atomtype</field>
   <set>
    <rc><c>N </c><c>   1</c></rc>
    <rc><c>N </c><c>   1</c></rc>
    <rc><c>N </c><c>   1</c></rc>
    <rc><c>N </c><c>   1</c></rc>
    <rc><c>N </c><c>   1</c></rc>
    <rc><c>N </c><c>   1</c></rc>
    <rc><c>N </c><c>   1</c></rc>
    <rc><c>N </c><c>   1</c></rc>
    <rc><c>N </c><c>   1</c></rc>
    <rc><c>N </c><c>   1</c></rc>
    <rc><c>N </c><c>   1</c></rc>
    <rc><c>N </c><c>   1</c></rc>
    <rc><c>Si</c><c>   2</c></rc>
    <rc><c>Si</c><c>   2</c></rc>
    <rc><c>Si</c><c>   2</c></rc>
    <rc><c>Si</c><c>   2</c></rc>
    <rc><c>Si</c><c>   2</c></rc>
    <rc><c>Si</c><c>   2</c></rc>
    <rc><c>Si</c><c>   2</c></rc>
    <rc><c>Si</c><c>   2</c></rc>
    <rc><c>Si</c><c>   2</c></rc>
    <rc><c>Si</c><c>   2</c></rc>
    <rc><c>Si</c><c>   2</c></rc>
    <rc><c>Si</c><c>   2</c></rc>
    <rc><c>Si</c><c>   2</c></rc>
    <rc><c>Si</c><c>   2</c></rc>
    <rc><c>Si</c><c>   2</c></rc>
    <rc><c>Si</c><c>   2</c></rc>
   </set>
  </array>
  <array name="atomtypes" >
   <dimension dim="1">type</dimension>
   <field type="int">atomspertype</field>
   <field type="string">element</field>
   <field>mass</field>
   <field>valence</field>
   <field type="string">pseudopotential</field>
   <set>
    <rc><c>  12</c><c>N </c><c>     14.00100000</c><c>      5.00000000</c><c>  PAW_PBE N 08Apr2002                   </c></rc>
    <rc><c>  16</c><c>Si</c><c>     28.08500000</c><c>      4.00000000</c><c>  PAW_PBE Si 05Jan2001                  </c></rc>
   </set>
  </array>
 </atominfo>
 <structure name="initialpos" >
  <crystal>
   <varray name="basis" >
    <v>       4.14337106      -7.17652919       0.00000000 </v>
    <v>       4.14337106       7.17652919       0.00000000 </v>
    <v>       0.00000000       0.00000000       5.30972987 </v>
   </varray>
   <i name="volume">    315.76988377 </i>
   <varray name="rec_basis" >
    <v>       0.12067469      -0.06967156       0.00000000 </v>
    <v>       0.12067469       0.06967156       0.00000000 </v>
    <v>       0.00000000       0.00000000       0.18833350 </v>
   </varray>
  </crystal>
  <varray name="positions" >
   <v>       0.00847736       0.64712623       0.21326215 </v>
   <v>       0.63864887       0.99152264       0.21326215 </v>
   <v>       0.91417805       0.32157747       0.99187268 </v>
   <v>       0.64712623       0.00847736       0.71326215 </v>
   <v>       0.08582195       0.40739942       0.49187268 </v>
   <v>       0.32157747       0.91417805       0.49187268 </v>
   <v>       0.35287377       0.36135113       0.21326215 </v>
   <v>       0.59260058       0.67842253       0.49187268 </v>
   <v>       0.99152264       0.63864887       0.71326215 </v>
   <v>       0.36135113       0.35287377       0.71326215 </v>
   <v>       0.67842253       0.59260058       0.99187268 </v>
   <v>       0.40739942       0.08582195       0.99187268 </v>
   <v>       0.21311138       0.30040483       0.46674092 </v>
   <v>       0.08729345       0.78688862       0.46674092 </v>
   <v>       0.30040483       0.21311138       0.96674092 </v>
   <v>       0.69959517       0.91270655       0.46674092 </v>
   <v>       0.00000000       0.00000000       0.95692726 </v>
   <v>       0.06686359       0.48449764       0.78259872 </v>
   <v>       0.00000000       0.00000000       0.45692726 </v>
   <v>       0.66666667       0.33333333       0.47577702 </v>
   <v>       0.58236595       0.51550236       0.28259872 </v>
   <v>       0.78688862       0.08729345       0.96674092 </v>
   <v>       0.91270655       0.69959517       0.96674092 </v>
   <v>       0.33333333       0.66666667       0.97577702 </v>
   <v>       0.93313641       0.41763405       0.28259872 </v>
   <v>       0.41763405       0.93313641       0.78259872 </v>
   <v>       0.51550236       0.58236595       0.78259872 </v>
   <v>       0.48449764       0.06686359       0.28259872 </v>
  </varray>
 </structure>
 <calculation>
  <scstep>
   <time name="dav">    7.55    7.55</time>
   <time name="total">    7.60    7.62</time>
   <energy>
    <i name="alphaZ">    154.42294858 </i>
    <i name="ewald">  -4372.19636470 </i>
    <i name="hartreedc">  -1029.69414081 </i>
    <i name="XCdc">    105.38087926 </i>
    <i name="pawpsdc">   3869.17357318 </i>
    <i name="pawaedc">  -3601.97287308 </i>
    <i name="eentropy">      0.00046440 </i>
    <i name="bandstr">    539.01730379 </i>
    <i name="atom">   4822.75196862 </i>
    <i name="e_fr_energy">    486.88375924 </i>
    <i name="e_wo_entrp">    486.88329484 </i>
    <i name="e_0_energy">    486.88364314 </i>
   </energy>
  </scstep>
  <scstep>
   <time name="dav">    7.96    7.96</time>
   <time name="total">    7.96    7.96</time>
   <energy>
    <i name="e_fr_energy">   -176.67428833 </i>
    <i name="e_wo_entrp">   -176.67284543 </i>
    <i name="e_0_energy">   -176.67392761 </i>
   </energy>
  </scstep>
  <scstep>
   <time name="dav">    7.20    7.20</time>
   <time name="total">    7.20    7.20</time>
   <energy>
    <i name="e_fr_energy">   -225.02014864 </i>
    <i name="e_wo_entrp">   -224.99970920 </i>
    <i name="e_0_energy">   -225.01503878 </i>
   </energy>
  </scstep>
  <scstep>
   <time name="dav">    7.08    7.08</time>
   <time name="total">    7.08    7.09</time>
   <energy>
    <i name="e_fr_energy">   -225.98304794 </i>
    <i name="e_wo_entrp">   -225.95964304 </i>
    <i name="e_0_energy">   -225.97719671 </i>
   </energy>
  </scstep>
  <scstep>
   <time name="dav">    6.92    6.93</time>
   <time name="total">    7.23    7.24</time>
   <energy>
    <i name="e_fr_energy">   -226.00373444 </i>
    <i name="e_wo_entrp">   -225.98019983 </i>
    <i name="e_0_energy">   -225.99785079 </i>
   </energy>
  </scstep>
  <scstep>
   <time name="diag">    0.89    0.89</time>
   <time name="diis">    3.90    3.90</time>
   <time name="orth">    0.09    0.09</time>
   <time name="total">    5.23    5.23</time>
   <energy>
    <i name="e_fr_energy">   -199.35510558 </i>
    <i name="e_wo_entrp">   -199.35206901 </i>
    <i name="e_0_energy">   -199.35434644 </i>
   </energy>
  </scstep>
  <scstep>
   <time name="diag">    0.88    0.88</time>
   <time name="diis">    3.93    3.93</time>
   <time name="orth">    0.09    0.09</time>
   <time name="total">    5.26    5.26</time>
   <energy>
    <i name="e_fr_energy">   -198.59284452 </i>
    <i name="e_wo_entrp">   -198.58609656 </i>
    <i name="e_0_energy">   -198.59115753 </i>
   </energy>
  </scstep>
  <scstep>
   <time name="diag">    0.89    0.89</time>
   <time name="diis">    3.85    3.85</time>
   <time name="orth">    0.09    0.09</time>
   <time name="total">    5.18    5.18</time>
   <energy>
    <i name="e_fr_energy">   -198.38228400 </i>
    <i name="e_wo_entrp">   -198.37989141 </i>
    <i name="e_0_energy">   -198.38168585 </i>
   </energy>
  </scstep>
  <scstep>
   <time name="diag">    0.89    0.89</time>
   <time name="diis">    3.85    3.85</time>
   <time name="orth">    0.09    0.09</time>
   <time name="total">    5.19    5.19</time>
   <energy>
    <i name="e_fr_energy">   -198.36655071 </i>
    <i name="e_wo_entrp">   -198.35918879 </i>
    <i name="e_0_energy">   -198.36471023 </i>
   </energy>
  </scstep>
  <scstep>
   <time name="diag">    0.89    0.89</time>
   <time name="diis">    3.80    3.80</time>
   <time name="orth">    0.09    0.09</time>
   <time name="total">    5.14    5.14</time>
   <energy>
    <i name="e_fr_energy">   -198.36004619 </i>
    <i name="e_wo_entrp">   -198.35358827 </i>
    <i name="e_0_energy">   -198.35843171 </i>
   </energy>
  </scstep>
  <scstep>
   <time name="diag">    0.89    0.89</time>
   <time name="diis">    3.81    3.81</time>
   <time name="orth">    0.09    0.09</time>
   <time name="total">    5.14    5.14</time>
   <energy>
    <i name="e_fr_energy">   -198.35826397 </i>
    <i name="e_wo_entrp">   -198.35094738 </i>
    <i name="e_0_energy">   -198.35643482 </i>
   </energy>
  </scstep>
  <scstep>
   <time name="diag">    0.88    0.88</time>
   <time name="diis">    3.78    3.78</time>
   <time name="orth">    0.09    0.09</time>
   <time name="total">    5.10    5.10</time>
   <energy>
    <i name="e_fr_energy">   -198.35827829 </i>
    <i name="e_wo_entrp">   -198.35113627 </i>
    <i name="e_0_energy">   -198.35649278 </i>
   </energy>
  </scstep>
  <scstep>
   <time name="diag">    0.89    0.89</time>
   <time name="diis">    2.76    2.76</time>
   <time name="orth">    0.09    0.09</time>
   <time name="total">    4.09    4.09</time>
   <energy>
    <i name="e_fr_energy">   -198.35814614 </i>
    <i name="e_wo_entrp">   -198.35084573 </i>
    <i name="e_0_energy">   -198.35632103 </i>
   </energy>
  </scstep>
  <scstep>
   <time name="diag">    0.89    0.89</time>
   <time name="diis">    2.50    2.50</time>
   <time name="orth">    0.09    0.09</time>
   <time name="total">    3.51    3.52</time>
   <energy>
    <i name="alphaZ">    154.42294858 </i>
    <i name="ewald">  -4372.19636470 </i>
    <i name="hartreedc">  -1263.17418238 </i>
    <i name="XCdc">    124.31558730 </i>
    <i name="pawpsdc">  21991.15703119 </i>
    <i name="pawaedc"> -21730.05200561 </i>
    <i name="eentropy">     -0.00728540 </i>
    <i name="bandstr">     74.42416781 </i>
    <i name="atom">   4822.75196862 </i>
    <i name="e_fr_energy">   -198.35813459 </i>
    <i name="e_wo_entrp">   -198.35084919 </i>
    <i name="e_0_energy">   -198.35631324 </i>
   </energy>
  </scstep>
  <structure>
   <crystal>
    <varray name="basis" >
     <v>       4.14337106      -7.17652919       0.00000000 </v>
     <v>       4.14337106       7.17652919       0.00000000 </v>
     <v>       0.00000000       0.00000000       5.30972987 </v>
    </varray>
    <i name="volume">    315.76988377 </i>
    <varray name="rec_basis" >
     <v>       0.12067469      -0.06967156       0.00000000 </v>
     <v>       0.12067469       0.06967156       0.00000000 </v>
     <v>       0.00000000       0.00000000       0.18833350 </v>
    </varray>
   </crystal>
   <varray name="positions" >
    <v>       0.00847736       0.64712623       0.21326215 </v>
    <v>       0.63864887       0.99152264       0.21326215 </v>
    <v>       0.91417805       0.32157747       0.99187268 </v>
    <v>       0.64712623       0.00847736       0.71326215 </v>
    <v>       0.08582195       0.40739942       0.49187268 </v>
    <v>       0.32157747       0.91417805       0.49187268 </v>
    <v>       0.35287377       0.36135113       0.21326215 </v>
    <v>       0.59260058       0.67842253       0.49187268 </v>
    <v>       0.99152264       0.63864887       0.71326215 </v>
    <v>       0.36135113       0.35287377       0.71326215 </v>
    <v>       0.67842253       0.59260058       0.99187268 </v>
    <v>       0.40739942       0.08582195       0.99187268 </v>
    <v>       0.21311138       0.30040483       0.46674092 </v>
    <v>       0.08729345       0.78688862       0.46674092 </v>
    <v>       0.30040483       0.21311138       0.96674092 </v>
    <v>       0.69959517       0.91270655       0.46674092 </v>
    <v>       0.00000000       0.00000000       0.95692726 </v>
    <v>       0.06686359       0.48449764       0.78259872 </v>
    <v>       0.00000000       0.00000000       0.45692726 </v>
    <v>       0.66666667       0.33333333       0.47577702 </v>
    <v>       0.58236595       0.51550236       0.28259872 </v>
    <v>       0.78688862       0.08729345       0.96674092 </v>
    <v>       0.91270655       0.69959517       0.96674092 </v>
    <v>       0.33333333       0.66666667       0.97577702 </v>
    <v>       0.93313641       0.41763405       0.28259872 </v>
    <v>       0.41763405       0.93313641       0.78259872 </v>
    <v>       0.51550236       0.58236595       0.78259872 </v>
    <v>       0.48449764       0.06686359       0.28259872 </v>
   </varray>
  </structure>
  <varray name="forces" >
   <v>       0.26704008      -0.23858969      -0.31855322 </v>
   <v>      -0.34014477      -0.11196865      -0.31855322 </v>
   <v>      -0.13555051       0.14205106      -0.21918979 </v>
   <v>       0.26704008       0.23858969      -0.31855322 </v>
   <v>       0.19079508      -0.04636465      -0.21918979 </v>
   <v>      -0.13555051      -0.14205106      -0.21918979 </v>
   <v>       0.07310469       0.35055834      -0.31855322 </v>
   <v>      -0.05524457       0.18841571      -0.21918979 </v>
   <v>      -0.34014477       0.11196865      -0.31855322 </v>
   <v>       0.07310469      -0.35055834      -0.31855322 </v>
   <v>      -0.05524457      -0.18841571      -0.21918979 </v>
   <v>       0.19079508       0.04636465      -0.21918979 </v>
   <v>      -0.48853013      -0.14966437      -0.01789259 </v>
   <v>       0.11465192       0.49791169      -0.01789259 </v>
   <v>      -0.48853013       0.14966437      -0.01789259 </v>
   <v>       0.37387822      -0.34824732      -0.01789259 </v>
   <v>       0.00000000       0.00000000      -0.04278682 </v>
   <v>       0.18681281      -0.36223746       0.25365793 </v>
   <v>       0.00000000       0.00000000      -0.04278682 </v>
   <v>       0.00000000       0.00000000       0.94871985 </v>
   <v>       0.22030044      -0.34290337       0.25365793 </v>
   <v>       0.11465192      -0.49791169      -0.01789259 </v>
   <v>       0.37387822       0.34824732      -0.01789259 </v>
   <v>       0.00000000       0.00000000       0.94871985 </v>
   <v>      -0.40711325      -0.01933410       0.25365793 </v>
   <v>      -0.40711325       0.01933410       0.25365793 </v>
   <v>       0.22030044       0.34290337       0.25365793 </v>
   <v>       0.18681281       0.36223746       0.25365793 </v>
  </varray>
  <varray name="stress" >
   <v>     268.57143850       0.00000000       0.00000000 </v>
   <v>       0.00000000     268.57143850       0.00000000 </v>
   <v>       0.00000000       0.00000000     241.33538267 </v>
  </varray>
  <energy>
   <i name="e_fr_energy">   -198.35813459 </i>
   <i name="e_wo_entrp">   -198.35631324 </i>
   <i name="e_0_energy">     -0.00728540 </i>
  </energy>
  <time name="totalsc">   89.97   90.03</time>
 </calculation>
 <calculation>
  <scstep>
   <time name="dav">    6.32    6.32</time>
   <time name="total">    6.85    6.85</time>
   <energy>
    <i name="alphaZ">    154.42294858 </i>
    <i name="ewald">  -4400.25583540 </i>
    <i name="hartreedc">  -1245.24449729 </i>
    <i name="XCdc">    123.83582505 </i>
    <i name="pawpsdc">  21990.53537530 </i>
    <i name="pawaedc"> -21729.43022623 </i>
    <i name="eentropy">     -0.00200618 </i>
    <i name="bandstr">     84.86720986 </i>
    <i name="atom">   4822.75196862 </i>
    <i name="e_fr_energy">   -198.51923769 </i>
    <i name="e_wo_entrp">   -198.51723151 </i>
    <i name="e_0_energy">   -198.51873614 </i>
   </energy>
  </scstep>
  <scstep>
   <time name="diag">    0.89    0.89</time>
   <time name="diis">    3.76    3.76</time>
   <time name="orth">    0.09    0.09</time>
   <time name="total">    5.09    5.09</time>
   <energy>
    <i name="e_fr_energy">   -198.54049237 </i>
    <i name="e_wo_entrp">   -198.53307690 </i>
    <i name="e_0_energy">   -198.53863851 </i>
   </energy>
  </scstep>
  <scstep>
   <time name="diag">    0.89    0.89</time>
   <time name="diis">    3.83    3.83</time>
   <time name="orth">    0.09    0.09</time>
   <time name="total">    5.17    5.17</time>
   <energy>
    <i name="e_fr_energy">   -198.53356318 </i>
    <i name="e_wo_entrp">   -198.52963293 </i>
    <i name="e_0_energy">   -198.53258062 </i>
   </energy>
  </scstep>
  <scstep>
   <time name="diag">    0.89    0.89</time>
   <time name="diis">    3.75    3.74</time>
   <time name="orth">    0.09    0.09</time>
   <time name="total">    5.07    5.08</time>
   <energy>
    <i name="e_fr_energy">   -198.52999113 </i>
    <i name="e_wo_entrp">   -198.52395522 </i>
    <i name="e_0_energy">   -198.52848215 </i>
   </energy>
  </scstep>
  <scstep>
   <time name="diag">    0.89    0.89</time>
   <time name="diis">    3.75    3.74</time>
   <time name="orth">    0.09    0.15</time>
   <time name="total">    5.07    5.14</time>
   <energy>
    <i name="e_fr_energy">   -198.52929963 </i>
    <i name="e_wo_entrp">   -198.52400927 </i>
    <i name="e_0_energy">   -198.52797704 </i>
   </energy>
  </scstep>
  <scstep>
   <time name="diag">    0.88    0.88</time>
   <time name="diis">    2.66    2.66</time>
   <time name="orth">    0.09    0.09</time>
   <time name="total">    3.66    3.67</time>
   <energy>
    <i name="alphaZ">    154.42294858 </i>
    <i name="ewald">  -4400.25583540 </i>
    <i name="hartreedc">  -1241.97210230 </i>
    <i name="XCdc">    123.58947105 </i>
    <i name="pawpsdc">  21474.99013593 </i>
    <i name="pawaedc"> -21213.73893677 </i>
    <i name="eentropy">     -0.00544892 </i>
    <i name="bandstr">     81.68847455 </i>
    <i name="atom">   4822.75196862 </i>
    <i name="e_fr_energy">   -198.52932465 </i>
    <i name="e_wo_entrp">   -198.52387574 </i>
    <i name="e_0_energy">   -198.52796243 </i>
   </energy>
  </scstep>
  <structure>
   <crystal>
    <varray name="basis" >
     <v>       4.14337106      -7.17652919       0.00000000 </v>
     <v>       4.14337106       7.17652919       0.00000000 </v>
     <v>       0.00000000       0.00000000       5.30972987 </v>
    </varray>
    <i name="volume">    315.76988377 </i>
    <varray name="rec_basis" >
     <v>       0.12067469      -0.06967156       0.00000000 </v>
     <v>       0.12067469       0.06967156       0.00000000 </v>
     <v>       0.00000000       0.00000000       0.18833350 </v>
    </varray>
   </crystal>
   <varray name="positions" >
    <v>       0.01083391       0.64787892       0.21036787 </v>
    <v>       0.63704500       0.98916609       0.21036787 </v>
    <v>       0.91291147       0.32126579       0.98988118 </v>
    <v>       0.64787892       0.01083391       0.71036787 </v>
    <v>       0.08708853       0.40835432       0.48988118 </v>
    <v>       0.32126579       0.91291147       0.48988118 </v>
    <v>       0.35212108       0.36295500       0.21036787 </v>
    <v>       0.59164568       0.67873421       0.48988118 </v>
    <v>       0.98916609       0.63704500       0.71036787 </v>
    <v>       0.36295500       0.35212108       0.71036787 </v>
    <v>       0.67873421       0.59164568       0.98988118 </v>
    <v>       0.40835432       0.08708853       0.98988118 </v>
    <v>       0.21077036       0.29705772       0.46657835 </v>
    <v>       0.08628736       0.78922964       0.46657835 </v>
    <v>       0.29705772       0.21077036       0.96657835 </v>
    <v>       0.70294228       0.91371264       0.46657835 </v>
    <v>      -0.00000000       0.00000000       0.95653851 </v>
    <v>       0.06916868       0.48436767       0.78490339 </v>
    <v>      -0.00000000       0.00000000       0.45653851 </v>
    <v>       0.66666667       0.33333333       0.48439681 </v>
    <v>       0.58480102       0.51563233       0.28490339 </v>
    <v>       0.78922964       0.08628736       0.96657835 </v>
    <v>       0.91371264       0.70294228       0.96657835 </v>
    <v>       0.33333333       0.66666667       0.98439681 </v>
    <v>       0.93083132       0.41519898       0.28490339 </v>
    <v>       0.41519898       0.93083132       0.78490339 </v>
    <v>       0.51563233       0.58480102       0.78490339 </v>
    <v>       0.48436767       0.06916868       0.28490339 </v>
   </varray>
  </structure>
  <varray name="forces" >
   <v>       0.08488880      -0.17000972      -0.00436088 </v>
   <v>      -0.18967714       0.01148900      -0.00436088 </v>
   <v>      -0.16045874       0.09233963       0.19634526 </v>
   <v>       0.08488880       0.17000972      -0.00436088 </v>
   <v>       0.16019784      -0.09279153       0.19634526 </v>
   <v>      -0.16045874      -0.09233963       0.19634526 </v>
   <v>       0.10478833       0.15852072      -0.00436088 </v>
   <v>       0.00026090       0.18513116       0.19634526 </v>
   <v>      -0.18967714      -0.01148900      -0.00436088 </v>
   <v>       0.10478833      -0.15852072      -0.00436088 </v>
   <v>       0.00026090      -0.18513116       0.19634526 </v>
   <v>       0.16019784       0.09279153       0.19634526 </v>
   <v>       0.37773700      -0.11552252      -0.22895166 </v>
   <v>      -0.28891393      -0.26936858      -0.22895166 </v>
   <v>       0.37773700       0.11552252      -0.22895166 </v>
   <v>      -0.08882306       0.38489109      -0.22895166 </v>
   <v>       0.00000000      -0.00000000      -0.07586649 </v>
   <v>       0.22471160       0.14196118      -0.19245169 </v>
   <v>      -0.00000000      -0.00000000      -0.07586649 </v>
   <v>      -0.00000000      -0.00000000       0.76412339 </v>
   <v>      -0.23529779      -0.12362536      -0.19245169 </v>
   <v>      -0.28891393       0.26936858      -0.22895166 </v>
   <v>      -0.08882306      -0.38489109      -0.22895166 </v>
   <v>       0.00000000      -0.00000000       0.76412339 </v>
   <v>       0.01058619       0.26558654      -0.19245169 </v>
   <v>       0.01058619      -0.26558654      -0.19245169 </v>
   <v>      -0.23529779       0.12362536      -0.19245169 </v>
   <v>       0.22471160      -0.14196118      -0.19245169 </v>
  </varray>
  <varray name="stress" >
   <v>     253.77429422       0.00000000       0.00000000 </v>
   <v>       0.00000000     253.77429422      -0.00000000 </v>
   <v>       0.00000000      -0.00000000     212.61352077 </v>
  </varray>
  <energy>
   <i name="e_fr_energy">   -198.52932465 </i>
   <i name="e_wo_entrp">   -198.52796243 </i>
   <i name="e_0_energy">     -0.00544892 </i>
  </energy>
  <time name="totalsc">   39.69   39.82</time>
 </calculation>
 <calculation>
  <scstep>
   <time name="dav">    6.86    6.86</time>
   <time name="total">    7.21    7.24</time>
   <energy>
    <i name="alphaZ">    154.42294858 </i>
    <i name="ewald">  -4402.39576094 </i>
    <i name="hartreedc">  -1240.60028227 </i>
    <i name="XCdc">    123.55054055 </i>
    <i name="pawpsdc">  21456.50583578 </i>
    <i name="pawaedc"> -21195.25264257 </i>
    <i name="eentropy">     -0.00479368 </i>
    <i name="bandstr">     82.49208627 </i>
    <i name="atom">   4822.75196862 </i>
    <i name="e_fr_energy">   -198.53009965 </i>
    <i name="e_wo_entrp">   -198.52530597 </i>
    <i name="e_0_energy">   -198.52890123 </i>
   </energy>
  </scstep>
  <scstep>
   <time name="diag">    0.89    0.89</time>
   <time name="diis">    3.75    3.75</time>
   <time name="orth">    0.09    0.09</time>
   <time name="total">    5.07    5.07</time>
   <energy>
    <i name="e_fr_energy">   -198.53028020 </i>
    <i name="e_wo_entrp">   -198.52470280 </i>
    <i name="e_0_energy">   -198.52888585 </i>
   </energy>
  </scstep>
  <scstep>
   <time name="diag">    0.89    0.89</time>
   <time name="diis">    2.45    2.45</time>
   <time name="orth">    0.09    0.09</time>
   <time name="total">    3.47    3.47</time>
   <energy>
    <i name="alphaZ">    154.42294858 </i>
    <i name="ewald">  -4402.39576094 </i>
    <i name="hartreedc">  -1240.41825174 </i>
    <i name="XCdc">    123.53774475 </i>
    <i name="pawpsdc">  21445.94985658 </i>
    <i name="pawaedc"> -21184.69092133 </i>
    <i name="eentropy">     -0.00508468 </i>
    <i name="bandstr">     82.31729907 </i>
    <i name="atom">   4822.75196862 </i>
    <i name="e_fr_energy">   -198.53020107 </i>
    <i name="e_wo_entrp">   -198.52511639 </i>
    <i name="e_0_energy">   -198.52892990 </i>
   </energy>
  </scstep>
  <structure>
   <crystal>
    <varray name="basis" >
     <v>       4.14337106      -7.17652919       0.00000000 </v>
     <v>       4.14337106       7.17652919       0.00000000 </v>
     <v>       0.00000000       0.00000000       5.30972987 </v>
    </varray>
    <i name="volume">    315.76988377 </i>
    <varray name="rec_basis" >
     <v>       0.12067469      -0.06967156       0.00000000 </v>
     <v>       0.12067469       0.06967156       0.00000000 </v>
     <v>       0.00000000       0.00000000       0.18833350 </v>
    </varray>
   </crystal>
   <varray name="positions" >
    <v>       0.01101375       0.64793636       0.21014699 </v>
    <v>       0.63692261       0.98898625       0.21014699 </v>
    <v>       0.91281481       0.32124201       0.98972920 </v>
    <v>       0.64793636       0.01101375       0.71014699 </v>
    <v>       0.08718519       0.40842720       0.48972920 </v>
    <v>       0.32124201       0.91281481       0.48972920 </v>
    <v>       0.35206364       0.36307739       0.21014699 </v>
    <v>       0.59157280       0.67875799       0.48972920 </v>
    <v>       0.98898625       0.63692261       0.71014699 </v>
    <v>       0.36307739       0.35206364       0.71014699 </v>
    <v>       0.67875799       0.59157280       0.98972920 </v>
    <v>       0.40842720       0.08718519       0.98972920 </v>
    <v>       0.21059171       0.29680229       0.46656594 </v>
    <v>       0.08621058       0.78940829       0.46656594 </v>
    <v>       0.29680229       0.21059171       0.96656594 </v>
    <v>       0.70319771       0.91378942       0.46656594 </v>
    <v>      -0.00000000       0.00000000       0.95650884 </v>
    <v>       0.06934460       0.48435775       0.78507927 </v>
    <v>      -0.00000000       0.00000000       0.45650884 </v>
    <v>       0.66666667       0.33333333       0.48505462 </v>
    <v>       0.58498685       0.51564225       0.28507927 </v>
    <v>       0.78940829       0.08621058       0.96656594 </v>
    <v>       0.91378942       0.70319771       0.96656594 </v>
    <v>       0.33333333       0.66666667       0.98505462 </v>
    <v>       0.93065540       0.41501315       0.28507927 </v>
    <v>       0.41501315       0.93065540       0.78507927 </v>
    <v>       0.51564225       0.58498685       0.78507927 </v>
    <v>       0.48435775       0.06934460       0.28507927 </v>
   </varray>
  </structure>
  <varray name="forces" >
   <v>       0.07642883      -0.16681799       0.01845116 </v>
   <v>      -0.18268303       0.01721969       0.01845116 </v>
   <v>      -0.16406302       0.09064059       0.22331579 </v>
   <v>       0.07642883       0.16681799       0.01845116 </v>
   <v>       0.16052857      -0.09676244       0.22331579 </v>
   <v>      -0.16406302      -0.09064059       0.22331579 </v>
   <v>       0.10625420       0.14959830       0.01845116 </v>
   <v>       0.00353445       0.18740304       0.22331579 </v>
   <v>      -0.18268303      -0.01721969       0.01845116 </v>
   <v>       0.10625420      -0.14959830       0.01845116 </v>
   <v>       0.00353445      -0.18740304       0.22331579 </v>
   <v>       0.16052857       0.09676244       0.22331579 </v>
   <v>       0.44216096      -0.11132586      -0.24291043 </v>
   <v>      -0.31749150      -0.32725970      -0.24291043 </v>
   <v>       0.44216096       0.11132586      -0.24291043 </v>
   <v>      -0.12466946       0.43858555      -0.24291043 </v>
   <v>       0.00000000      -0.00000000      -0.07775906 </v>
   <v>       0.22647087       0.17746766      -0.22262233 </v>
   <v>       0.00000000      -0.00000000      -0.07775906 </v>
   <v>       0.00000000      -0.00000000       0.74905648 </v>
   <v>      -0.26692693      -0.10739569      -0.22262233 </v>
   <v>      -0.31749150       0.32725970      -0.24291043 </v>
   <v>      -0.12466946      -0.43858555      -0.24291043 </v>
   <v>       0.00000000      -0.00000000       0.74905648 </v>
   <v>       0.04045607       0.28486335      -0.22262233 </v>
   <v>       0.04045607      -0.28486335      -0.22262233 </v>
   <v>      -0.26692693       0.10739569      -0.22262233 </v>
   <v>       0.22647087      -0.17746766      -0.22262233 </v>
  </varray>
  <varray name="stress" >
   <v>     252.34522976       0.00000000       0.00000000 </v>
   <v>       0.00000000     252.34522976       0.00000000 </v>
   <v>      -0.00000000       0.00000000     210.25519062 </v>
  </varray>
  <energy>
   <i name="e_fr_energy">   -198.53020107 </i>
   <i name="e_wo_entrp">   -198.52892990 </i>
   <i name="e_0_energy">     -0.00508468 </i>
  </energy>
  <time name="totalsc">   24.54   24.59</time>
 </calculation>
 <calculation>
  <scstep>
   <time name="dav">    6.13    6.13</time>
   <time name="total">    6.49    6.49</time>
   <energy>
    <i name="alphaZ">    154.42294858 </i>
    <i name="ewald">  -4411.39179629 </i>
    <i name="hartreedc">  -1236.28497557 </i>
    <i name="XCdc">    123.27574514 </i>
    <i name="pawpsdc">  21433.94217409 </i>
    <i name="pawaedc"> -21172.68041751 </i>
    <i name="eentropy">     -0.00741767 </i>
    <i name="bandstr">     87.35176662 </i>
    <i name="atom">   4822.75196862 </i>
    <i name="e_fr_energy">   -198.62000399 </i>
    <i name="e_wo_entrp">   -198.61258632 </i>
    <i name="e_0_energy">   -198.61814957 </i>
   </energy>
  </scstep>
  <scstep>
   <time name="diag">    0.88    0.88</time>
   <time name="diis">    3.73    3.73</time>
   <time name="orth">    0.09    0.09</time>
   <time name="total">    5.06    5.07</time>
   <energy>
    <i name="e_fr_energy">   -198.65240864 </i>
    <i name="e_wo_entrp">   -198.64894327 </i>
    <i name="e_0_energy">   -198.65154230 </i>
   </energy>
  </scstep>
  <scstep>
   <time name="diag">    0.88    0.88</time>
   <time name="diis">    3.88    3.88</time>
   <time name="orth">    0.09    0.09</time>
   <time name="total">    5.21    5.21</time>
   <energy>
    <i name="e_fr_energy">   -198.64615971 </i>
    <i name="e_wo_entrp">   -198.63959503 </i>
    <i name="e_0_energy">   -198.64451854 </i>
   </energy>
  </scstep>
  <scstep>
   <time name="diag">    0.89    0.89</time>
   <time name="diis">    3.73    3.73</time>
   <time name="orth">    0.09    0.09</time>
   <time name="total">    5.07    5.07</time>
   <energy>
    <i name="e_fr_energy">   -198.64311518 </i>
    <i name="e_wo_entrp">   -198.63802932 </i>
    <i name="e_0_energy">   -198.64184371 </i>
   </energy>
  </scstep>
  <scstep>
   <time name="diag">    0.89    0.89</time>
   <time name="diis">    3.74    3.74</time>
   <time name="orth">    0.09    0.09</time>
   <time name="total">    5.08    5.08</time>
   <energy>
    <i name="e_fr_energy">   -198.64216116 </i>
    <i name="e_wo_entrp">   -198.63617365 </i>
    <i name="e_0_energy">   -198.64066428 </i>
   </energy>
  </scstep>
  <scstep>
   <time name="diag">    0.88    0.88</time>
   <time name="diis">    2.53    2.53</time>
   <time name="orth">    0.09    0.09</time>
   <time name="total">    3.54    3.54</time>
   <energy>
    <i name="alphaZ">    154.42294858 </i>
    <i name="ewald">  -4411.39179629 </i>
    <i name="hartreedc">  -1234.86130874 </i>
    <i name="XCdc">    123.13335352 </i>
    <i name="pawpsdc">  21100.22277283 </i>
    <i name="pawaedc"> -20838.84450090 </i>
    <i name="eentropy">     -0.00585711 </i>
    <i name="bandstr">     85.93027344 </i>
    <i name="atom">   4822.75196862 </i>
    <i name="e_fr_energy">   -198.64214604 </i>
    <i name="e_wo_entrp">   -198.63628893 </i>
    <i name="e_0_energy">   -198.64068176 </i>
   </energy>
  </scstep>
  <structure>
   <crystal>
    <varray name="basis" >
     <v>       4.14337106      -7.17652919       0.00000000 </v>
     <v>       4.14337106       7.17652919       0.00000000 </v>
     <v>       0.00000000       0.00000000       5.30972987 </v>
    </varray>
    <i name="volume">    315.76988377 </i>
    <varray name="rec_basis" >
     <v>       0.12067469      -0.06967156       0.00000000 </v>
     <v>       0.12067469       0.06967156       0.00000000 </v>
     <v>       0.00000000       0.00000000       0.18833350 </v>
    </varray>
   </crystal>
   <varray name="positions" >
    <v>       0.01344127       0.64828711       0.20852862 </v>
    <v>       0.63484585       0.98655873       0.20852862 </v>
    <v>       0.91081117       0.32041813       0.99047512 </v>
    <v>       0.64828711       0.01344127       0.70852862 </v>
    <v>       0.08918883       0.40960696       0.49047512 </v>
    <v>       0.32041813       0.91081117       0.49047512 </v>
    <v>       0.35171289       0.36515415       0.20852862 </v>
    <v>       0.59039304       0.67958187       0.49047512 </v>
    <v>       0.98655873       0.63484585       0.70852862 </v>
    <v>       0.36515415       0.35171289       0.70852862 </v>
    <v>       0.67958187       0.59039304       0.99047512 </v>
    <v>       0.40960696       0.08918883       0.99047512 </v>
    <v>       0.21201581       0.29688001       0.46432133 </v>
    <v>       0.08486420       0.78798419       0.46432133 </v>
    <v>       0.29688001       0.21201581       0.96432133 </v>
    <v>       0.70311999       0.91513580       0.46432133 </v>
    <v>      -0.00000000       0.00000000       0.95558309 </v>
    <v>       0.07146477       0.48613851       0.78453221 </v>
    <v>      -0.00000000       0.00000000       0.45558309 </v>
    <v>       0.66666667       0.33333333       0.49697278 </v>
    <v>       0.58532627       0.51386149       0.28453221 </v>
    <v>       0.78798419       0.08486420       0.96432133 </v>
    <v>       0.91513580       0.70311999       0.96432133 </v>
    <v>       0.33333333       0.66666667       0.99697278 </v>
    <v>       0.92853523       0.41467373       0.28453221 </v>
    <v>       0.41467373       0.92853523       0.78453221 </v>
    <v>       0.51386149       0.58532627       0.78453221 </v>
    <v>       0.48613851       0.07146477       0.28453221 </v>
   </varray>
  </structure>
  <varray name="forces" >
   <v>      -0.14938791      -0.07216078      -0.24320468 </v>
   <v>       0.01220089       0.16545412      -0.24320468 </v>
   <v>       0.08127143       0.01416191      -0.06707331 </v>
   <v>      -0.14938791       0.07216078      -0.24320468 </v>
   <v>      -0.02837114       0.07746407      -0.06707331 </v>
   <v>       0.08127143      -0.01416191      -0.06707331 </v>
   <v>       0.13718702      -0.09329333      -0.24320468 </v>
   <v>      -0.05290028      -0.06330217      -0.06707331 </v>
   <v>       0.01220089      -0.16545412      -0.24320468 </v>
   <v>       0.13718702       0.09329333      -0.24320468 </v>
   <v>      -0.05290028       0.06330217      -0.06707331 </v>
   <v>      -0.02837114      -0.07746407      -0.06707331 </v>
   <v>       0.33091180       0.16937361       0.06901316 </v>
   <v>      -0.01877405      -0.37126483       0.06901316 </v>
   <v>       0.33091180      -0.16937361       0.06901316 </v>
   <v>      -0.31213775       0.20189122       0.06901316 </v>
   <v>       0.00000000       0.00000000      -0.08770682 </v>
   <v>      -0.04251780       0.04361757       0.18299170 </v>
   <v>       0.00000000       0.00000000      -0.08770682 </v>
   <v>       0.00000000       0.00000000       0.26252619 </v>
   <v>      -0.01651502       0.05863028       0.18299170 </v>
   <v>      -0.01877405       0.37126483       0.06901316 </v>
   <v>      -0.31213775      -0.20189122       0.06901316 </v>
   <v>       0.00000000       0.00000000       0.26252619 </v>
   <v>       0.05903282      -0.01501271       0.18299170 </v>
   <v>       0.05903282       0.01501271       0.18299170 </v>
   <v>      -0.01651502      -0.05863028       0.18299170 </v>
   <v>      -0.04251780      -0.04361757       0.18299170 </v>
  </varray>
  <varray name="stress" >
   <v>     236.75012757      -0.00000000      -0.00000000 </v>
   <v>       0.00000000     236.75012757       0.00000000 </v>
   <v>      -0.00000000       0.00000000     203.13905524 </v>
  </varray>
  <energy>
   <i name="e_fr_energy">   -198.64214604 </i>
   <i name="e_wo_entrp">   -198.64068176 </i>
   <i name="e_0_energy">     -0.00585711 </i>
  </energy>
  <time name="totalsc">   39.23   39.27</time>
 </calculation>
 <calculation>
  <scstep>
   <time name="dav">    6.30    6.30</time>
   <time name="total">    6.91    6.91</time>
   <energy>
    <i name="alphaZ">    154.42294858 </i>
    <i name="ewald">  -4412.71627959 </i>
    <i name="hartreedc">  -1234.29388985 </i>
    <i name="XCdc">    123.09273614 </i>
    <i name="pawpsdc">  21085.60687720 </i>
    <i name="pawaedc"> -20824.22618086 </i>
    <i name="eentropy">     -0.00629912 </i>
    <i name="bandstr">     86.72454773 </i>
    <i name="atom">   4822.75196862 </i>
    <i name="e_fr_energy">   -198.64357114 </i>
    <i name="e_wo_entrp">   -198.63727202 </i>
    <i name="e_0_energy">   -198.64199636 </i>
   </energy>
  </scstep>
  <scstep>
   <time name="diag">    0.89    0.89</time>
   <time name="diis">    3.74    3.74</time>
   <time name="orth">    0.09    0.09</time>
   <time name="total">    5.07    5.07</time>
   <energy>
    <i name="e_fr_energy">   -198.64435279 </i>
    <i name="e_wo_entrp">   -198.63876112 </i>
    <i name="e_0_energy">   -198.64295487 </i>
   </energy>
  </scstep>
  <scstep>
   <time name="diag">    0.89    0.89</time>
   <time name="diis">    2.96    2.96</time>
   <time name="orth">    0.09    0.09</time>
   <time name="total">    4.29    4.29</time>
   <energy>
    <i name="e_fr_energy">   -198.64420934 </i>
    <i name="e_wo_entrp">   -198.63809478 </i>
    <i name="e_0_energy">   -198.64268070 </i>
   </energy>
  </scstep>
  <scstep>
   <time name="diag">    0.89    0.89</time>
   <time name="diis">    2.44    2.44</time>
   <time name="orth">    0.09    0.09</time>
   <time name="total">    3.45    3.46</time>
   <energy>
    <i name="alphaZ">    154.42294858 </i>
    <i name="ewald">  -4412.71627959 </i>
    <i name="hartreedc">  -1234.10562713 </i>
    <i name="XCdc">    123.07399664 </i>
    <i name="pawpsdc">  21051.07232704 </i>
    <i name="pawaedc"> -20789.67849702 </i>
    <i name="eentropy">     -0.00588908 </i>
    <i name="bandstr">     86.54092374 </i>
    <i name="atom">   4822.75196862 </i>
    <i name="e_fr_energy">   -198.64412821 </i>
    <i name="e_wo_entrp">   -198.63823914 </i>
    <i name="e_0_energy">   -198.64265594 </i>
   </energy>
  </scstep>
  <structure>
   <crystal>
    <varray name="basis" >
     <v>       4.14337106      -7.17652919       0.00000000 </v>
     <v>       4.14337106       7.17652919       0.00000000 </v>
     <v>       0.00000000       0.00000000       5.30972987 </v>
    </varray>
    <i name="volume">    315.76988377 </i>
    <varray name="rec_basis" >
     <v>       0.12067469      -0.06967156       0.00000000 </v>
     <v>       0.12067469       0.06967156       0.00000000 </v>
     <v>       0.00000000       0.00000000       0.18833350 </v>
    </varray>
   </crystal>
   <varray name="positions" >
    <v>       0.01381474       0.64834108       0.20827963 </v>
    <v>       0.63452634       0.98618526       0.20827963 </v>
    <v>       0.91050291       0.32029138       0.99058987 </v>
    <v>       0.64834108       0.01381474       0.70827963 </v>
    <v>       0.08949709       0.40978846       0.49058987 </v>
    <v>       0.32029138       0.91050291       0.49058987 </v>
    <v>       0.35165892       0.36547366       0.20827963 </v>
    <v>       0.59021154       0.67970862       0.49058987 </v>
    <v>       0.98618526       0.63452634       0.70827963 </v>
    <v>       0.36547366       0.35165892       0.70827963 </v>
    <v>       0.67970862       0.59021154       0.99058987 </v>
    <v>       0.40978846       0.08949709       0.99058987 </v>
    <v>       0.21223491       0.29689197       0.46397600 </v>
    <v>       0.08465706       0.78776509       0.46397600 </v>
    <v>       0.29689197       0.21223491       0.96397600 </v>
    <v>       0.70310803       0.91534294       0.46397600 </v>
    <v>      -0.00000000       0.00000000       0.95544066 </v>
    <v>       0.07179096       0.48641247       0.78444805 </v>
    <v>      -0.00000000       0.00000000       0.45544066 </v>
    <v>       0.66666667       0.33333333       0.49880635 </v>
    <v>       0.58537849       0.51358753       0.28444805 </v>
    <v>       0.78776509       0.08465706       0.96397600 </v>
    <v>       0.91534294       0.70310803       0.96397600 </v>
    <v>       0.33333333       0.66666667       0.99880635 </v>
    <v>       0.92820904       0.41462151       0.28444805 </v>
    <v>       0.41462151       0.92820904       0.78444805 </v>
    <v>       0.51358753       0.58537849       0.78444805 </v>
    <v>       0.48641247       0.07179096       0.28444805 </v>
   </varray>
  </structure>
  <varray name="forces" >
   <v>      -0.17802636      -0.06307153      -0.28361523 </v>
   <v>       0.03439164       0.18571112      -0.28361523 </v>
   <v>       0.10855925       0.00501453      -0.10706778 </v>
   <v>      -0.17802636       0.06307153      -0.28361523 </v>
   <v>      -0.04993691       0.09652233      -0.10706778 </v>
   <v>       0.10855925      -0.00501453      -0.10706778 </v>
   <v>       0.14363473      -0.12263959      -0.28361523 </v>
   <v>      -0.05862233      -0.09150780      -0.10706778 </v>
   <v>       0.03439164      -0.18571112      -0.28361523 </v>
   <v>       0.14363473       0.12263959      -0.28361523 </v>
   <v>      -0.05862233       0.09150780      -0.10706778 </v>
   <v>      -0.04993691      -0.09652233      -0.10706778 </v>
   <v>       0.31125905       0.21040355       0.11727811 </v>
   <v>       0.02658529      -0.37476002       0.11727811 </v>
   <v>       0.31125905      -0.21040355       0.11727811 </v>
   <v>      -0.33784434       0.16435647       0.11727811 </v>
   <v>       0.00000000       0.00000000      -0.08931734 </v>
   <v>      -0.07695371       0.02452024       0.24177726 </v>
   <v>       0.00000000       0.00000000      -0.08931734 </v>
   <v>       0.00000000       0.00000000       0.18420024 </v>
   <v>       0.01724171       0.07890399       0.24177726 </v>
   <v>       0.02658529       0.37476002       0.11727811 </v>
   <v>      -0.33784434      -0.16435647       0.11727811 </v>
   <v>       0.00000000       0.00000000       0.18420024 </v>
   <v>       0.05971200      -0.05438375       0.24177726 </v>
   <v>       0.05971200       0.05438375       0.24177726 </v>
   <v>       0.01724171      -0.07890399       0.24177726 </v>
   <v>      -0.07695371      -0.02452024       0.24177726 </v>
  </varray>
  <varray name="stress" >
   <v>     234.26202931       0.00000000       0.00000000 </v>
   <v>       0.00000000     234.26202931      -0.00000000 </v>
   <v>      -0.00000000      -0.00000000     202.07171516 </v>
  </varray>
  <energy>
   <i name="e_fr_energy">   -198.64412821 </i>
   <i name="e_wo_entrp">   -198.64265594 </i>
   <i name="e_0_energy">     -0.00588908 </i>
  </energy>
  <time name="totalsc">   28.53   28.56</time>
 </calculation>
 <calculation>
  <scstep>
   <time name="dav">    5.85    5.85</time>
   <time name="total">    6.21    6.21</time>
   <energy>
    <i name="alphaZ">    154.42294858 </i>
    <i name="ewald">  -4408.45651328 </i>
    <i name="hartreedc">  -1239.49191234 </i>
    <i name="XCdc">    123.00647317 </i>
    <i name="pawpsdc">  21039.21675180 </i>
    <i name="pawaedc"> -20777.81923447 </i>
    <i name="eentropy">     -0.00826628 </i>
    <i name="bandstr">     87.70444855 </i>
    <i name="atom">   4822.75196862 </i>
    <i name="e_fr_energy">   -198.67333565 </i>
    <i name="e_wo_entrp">   -198.66506937 </i>
    <i name="e_0_energy">   -198.67126908 </i>
   </energy>
  </scstep>
  <scstep>
   <time name="diag">    0.89    0.89</time>
   <time name="diis">    3.74    3.75</time>
   <time name="orth">    0.09    0.09</time>
   <time name="total">    5.08    5.09</time>
   <energy>
    <i name="e_fr_energy">   -198.69179591 </i>
    <i name="e_wo_entrp">   -198.68575294 </i>
    <i name="e_0_energy">   -198.69028517 </i>
   </energy>
  </scstep>
  <scstep>
   <time name="diag">    1.03    1.03</time>
   <time name="diis">    3.86    3.86</time>
   <time name="orth">    0.09    0.09</time>
   <time name="total">    5.32    5.32</time>
   <energy>
    <i name="e_fr_energy">   -198.68744273 </i>
    <i name="e_wo_entrp">   -198.67917372 </i>
    <i name="e_0_energy">   -198.68537548 </i>
   </energy>
  </scstep>
  <scstep>
   <time name="diag">    0.89    0.89</time>
   <time name="diis">    3.75    3.75</time>
   <time name="orth">    0.09    0.09</time>
   <time name="total">    5.08    5.08</time>
   <energy>
    <i name="e_fr_energy">   -198.68491549 </i>
    <i name="e_wo_entrp">   -198.67710567 </i>
    <i name="e_0_energy">   -198.68296304 </i>
   </energy>
  </scstep>
  <scstep>
   <time name="diag">    0.88    0.88</time>
   <time name="diis">    3.76    3.76</time>
   <time name="orth">    0.09    0.09</time>
   <time name="total">    5.07    5.08</time>
   <energy>
    <i name="e_fr_energy">   -198.68440500 </i>
    <i name="e_wo_entrp">   -198.67647260 </i>
    <i name="e_0_energy">   -198.68242190 </i>
   </energy>
  </scstep>
  <scstep>
   <time name="diag">    0.88    0.88</time>
   <time name="diis">    2.45    2.45</time>
   <time name="orth">    0.09    0.09</time>
   <time name="total">    3.46    3.46</time>
   <energy>
    <i name="alphaZ">    154.42294858 </i>
    <i name="ewald">  -4408.45651328 </i>
    <i name="hartreedc">  -1239.38587070 </i>
    <i name="XCdc">    122.95520877 </i>
    <i name="pawpsdc">  20871.88794692 </i>
    <i name="pawaedc"> -20610.41885922 </i>
    <i name="eentropy">     -0.00796722 </i>
    <i name="bandstr">     87.56673817 </i>
    <i name="atom">   4822.75196862 </i>
    <i name="e_fr_energy">   -198.68439935 </i>
    <i name="e_wo_entrp">   -198.67643212 </i>
    <i name="e_0_energy">   -198.68240754 </i>
   </energy>
  </scstep>
  <structure>
   <crystal>
    <varray name="basis" >
     <v>       4.14337106      -7.17652919       0.00000000 </v>
     <v>       4.14337106       7.17652919       0.00000000 </v>
     <v>       0.00000000       0.00000000       5.30972987 </v>
    </varray>
    <i name="volume">    315.76988377 </i>
    <varray name="rec_basis" >
     <v>       0.12067469      -0.06967156       0.00000000 </v>
     <v>       0.12067469       0.06967156       0.00000000 </v>
     <v>       0.00000000       0.00000000       0.18833350 </v>
    </varray>
   </crystal>
   <varray name="positions" >
    <v>       0.01424734       0.64727249       0.20485975 </v>
    <v>       0.63302515       0.98575266       0.20485975 </v>
    <v>       0.91008042       0.32051420       0.99000218 </v>
    <v>       0.64727249       0.01424734       0.70485975 </v>
    <v>       0.08991958       0.41043378       0.49000218 </v>
    <v>       0.32051420       0.91008042       0.49000218 </v>
    <v>       0.35272751       0.36697485       0.20485975 </v>
    <v>       0.58956622       0.67948580       0.49000218 </v>
    <v>       0.98575266       0.63302515       0.70485975 </v>
    <v>       0.36697485       0.35272751       0.70485975 </v>
    <v>       0.67948580       0.58956622       0.99000218 </v>
    <v>       0.41043378       0.08991958       0.99000218 </v>
    <v>       0.21407974       0.29945554       0.46387973 </v>
    <v>       0.08537580       0.78592026       0.46387973 </v>
    <v>       0.29945554       0.21407974       0.96387973 </v>
    <v>       0.70054446       0.91462420       0.46387973 </v>
    <v>       0.00000000       0.00000000       0.95414796 </v>
    <v>       0.07235872       0.48696939       0.78636471 </v>
    <v>       0.00000000       0.00000000       0.45414796 </v>
    <v>       0.66666667       0.33333333       0.50666061 </v>
    <v>       0.58538933       0.51303061       0.28636471 </v>
    <v>       0.78592026       0.08537580       0.96387973 </v>
    <v>       0.91462420       0.70054446       0.96387973 </v>
    <v>       0.33333333       0.66666667       0.00666061 </v>
    <v>       0.92764128       0.41461067       0.28636471 </v>
    <v>       0.41461067       0.92764128       0.78636471 </v>
    <v>       0.51303061       0.58538933       0.78636471 </v>
    <v>       0.48696939       0.07235872       0.28636471 </v>
   </varray>
  </structure>
  <varray name="forces" >
   <v>       0.00802028      -0.08202641       0.21923527 </v>
   <v>      -0.07504710       0.03406744       0.21923527 </v>
   <v>       0.06422730       0.07289059       0.11356770 </v>
   <v>       0.00802028       0.08202641       0.21923527 </v>
   <v>       0.03101145       0.09206777       0.11356770 </v>
   <v>       0.06422730      -0.07289059       0.11356770 </v>
   <v>       0.06702682       0.04795897       0.21923527 </v>
   <v>      -0.09523875      -0.01917718       0.11356770 </v>
   <v>      -0.07504710      -0.03406744       0.21923527 </v>
   <v>       0.06702682      -0.04795897       0.21923527 </v>
   <v>      -0.09523875       0.01917718       0.11356770 </v>
   <v>       0.03101145      -0.09206777       0.11356770 </v>
   <v>      -0.06652261       0.14360277      -0.31354795 </v>
   <v>       0.15762495      -0.01419112      -0.31354795 </v>
   <v>      -0.06652261      -0.14360277      -0.31354795 </v>
   <v>      -0.09110234      -0.12941165      -0.31354795 </v>
   <v>       0.00000000       0.00000000      -0.08343355 </v>
   <v>       0.04203037      -0.21427006       0.06248683 </v>
   <v>       0.00000000       0.00000000      -0.08343355 </v>
   <v>       0.00000000       0.00000000      -0.16179201 </v>
   <v>       0.16454813      -0.14353440       0.06248683 </v>
   <v>       0.15762495       0.01419112      -0.31354795 </v>
   <v>      -0.09110234       0.12941165      -0.31354795 </v>
   <v>       0.00000000       0.00000000      -0.16179201 </v>
   <v>      -0.20657850      -0.07073566       0.06248683 </v>
   <v>      -0.20657850       0.07073566       0.06248683 </v>
   <v>       0.16454813       0.14353440       0.06248683 </v>
   <v>       0.04203037       0.21427006       0.06248683 </v>
  </varray>
  <varray name="stress" >
   <v>     231.68624017       0.00000000       0.00000000 </v>
   <v>       0.00000000     231.68624017       0.00000000 </v>
   <v>       0.00000000      -0.00000000     188.43506552 </v>
  </varray>
  <energy>
   <i name="e_fr_energy">   -198.68439935 </i>
   <i name="e_wo_entrp">   -198.68240754 </i>
   <i name="e_0_energy">     -0.00796722 </i>
  </energy>
  <time name="totalsc">   39.04   39.13</time>
 </calculation>
 <calculation>
  <scstep>
   <time name="dav">    6.00    6.00</time>
   <time name="total">    6.52    6.55</time>
   <energy>
    <i name="alphaZ">    154.42294858 </i>
    <i name="ewald">  -4409.40162288 </i>
    <i name="hartreedc">  -1238.18697087 </i>
    <i name="XCdc">    122.96575885 </i>
    <i name="pawpsdc">  20866.13866242 </i>
    <i name="pawaedc"> -20604.66828007 </i>
    <i name="eentropy">     -0.00701612 </i>
    <i name="bandstr">     87.29763098 </i>
    <i name="atom">   4822.75196862 </i>
    <i name="e_fr_energy">   -198.68692049 </i>
    <i name="e_wo_entrp">   -198.67990437 </i>
    <i name="e_0_energy">   -198.68516646 </i>
   </energy>
  </scstep>
  <scstep>
   <time name="diag">    0.89    0.89</time>
   <time name="diis">    3.76    3.76</time>
   <time name="orth">    0.09    0.09</time>
   <time name="total">    5.09    5.10</time>
   <energy>
    <i name="e_fr_energy">   -198.68801081 </i>
    <i name="e_wo_entrp">   -198.67996415 </i>
    <i name="e_0_energy">   -198.68599914 </i>
   </energy>
  </scstep>
  <scstep>
   <time name="diag">    0.89    0.89</time>
   <time name="diis">    3.38    3.38</time>
   <time name="orth">    0.09    0.09</time>
   <time name="total">    4.70    4.71</time>
   <energy>
    <i name="e_fr_energy">   -198.68741416 </i>
    <i name="e_wo_entrp">   -198.67982295 </i>
    <i name="e_0_energy">   -198.68551636 </i>
   </energy>
  </scstep>
  <scstep>
   <time name="diag">    0.89    0.89</time>
   <time name="diis">    2.39    2.39</time>
   <time name="orth">    0.09    0.09</time>
   <time name="total">    3.71    3.71</time>
   <energy>
    <i name="e_fr_energy">   -198.68730271 </i>
    <i name="e_wo_entrp">   -198.67963190 </i>
    <i name="e_0_energy">   -198.68538500 </i>
   </energy>
  </scstep>
  <scstep>
   <time name="diag">    0.89    0.89</time>
   <time name="diis">    2.27    2.27</time>
   <time name="orth">    0.09    0.09</time>
   <time name="total">    3.28    3.29</time>
   <energy>
    <i name="alphaZ">    154.42294858 </i>
    <i name="ewald">  -4409.40162288 </i>
    <i name="hartreedc">  -1238.21787646 </i>
    <i name="XCdc">    122.97672746 </i>
    <i name="pawpsdc">  20899.00787606 </i>
    <i name="pawaedc"> -20637.55147829 </i>
    <i name="eentropy">     -0.00765619 </i>
    <i name="bandstr">     87.33182635 </i>
    <i name="atom">   4822.75196862 </i>
    <i name="e_fr_energy">   -198.68728675 </i>
    <i name="e_wo_entrp">   -198.67963056 </i>
    <i name="e_0_energy">   -198.68537270 </i>
   </energy>
  </scstep>
  <structure>
   <crystal>
    <varray name="basis" >
     <v>       4.14337106      -7.17652919       0.00000000 </v>
     <v>       4.14337106       7.17652919       0.00000000 </v>
     <v>       0.00000000       0.00000000       5.30972987 </v>
    </varray>
    <i name="volume">    315.76988377 </i>
    <varray name="rec_basis" >
     <v>       0.12067469      -0.06967156       0.00000000 </v>
     <v>       0.12067469       0.06967156       0.00000000 </v>
     <v>       0.00000000       0.00000000       0.18833350 </v>
    </varray>
   </crystal>
   <varray name="positions" >
    <v>       0.01415814       0.64749282       0.20556489 </v>
    <v>       0.63333468       0.98584186       0.20556489 </v>
    <v>       0.91016753       0.32046825       0.99012336 </v>
    <v>       0.64749282       0.01415814       0.70556489 </v>
    <v>       0.08983247       0.41030072       0.49012336 </v>
    <v>       0.32046825       0.91016753       0.49012336 </v>
    <v>       0.35250718       0.36666532       0.20556489 </v>
    <v>       0.58969928       0.67953175       0.49012336 </v>
    <v>       0.98584186       0.63333468       0.70556489 </v>
    <v>       0.36666532       0.35250718       0.70556489 </v>
    <v>       0.67953175       0.58969928       0.99012336 </v>
    <v>       0.41030072       0.08983247       0.99012336 </v>
    <v>       0.21369935       0.29892696       0.46389958 </v>
    <v>       0.08522761       0.78630065       0.46389958 </v>
    <v>       0.29892696       0.21369935       0.96389958 </v>
    <v>       0.70107304       0.91477239       0.46389958 </v>
    <v>       0.00000000       0.00000000       0.95441450 </v>
    <v>       0.07224165       0.48685456       0.78596952 </v>
    <v>       0.00000000       0.00000000       0.45441450 </v>
    <v>       0.66666667       0.33333333       0.50504115 </v>
    <v>       0.58538710       0.51314544       0.28596952 </v>
    <v>       0.78630065       0.08522761       0.96389958 </v>
    <v>       0.91477239       0.70107304       0.96389958 </v>
    <v>       0.33333333       0.66666667       0.00504115 </v>
    <v>       0.92775835       0.41461290       0.28596952 </v>
    <v>       0.41461290       0.92775835       0.78596952 </v>
    <v>       0.51314544       0.58538710       0.78596952 </v>
    <v>       0.48685456       0.07224165       0.28596952 </v>
   </varray>
  </structure>
  <varray name="forces" >
   <v>      -0.02944662      -0.07642967       0.11669922 </v>
   <v>      -0.05146672       0.06371636       0.11669922 </v>
   <v>       0.07525307       0.06010922       0.06907307 </v>
   <v>      -0.02944662       0.07642967       0.11669922 </v>
   <v>       0.01442958       0.09522568       0.06907307 </v>
   <v>       0.07525307      -0.06010922       0.06907307 </v>
   <v>       0.08091335       0.01271331       0.11669922 </v>
   <v>      -0.08968265      -0.03511646       0.06907307 </v>
   <v>      -0.05146672      -0.06371636       0.11669922 </v>
   <v>       0.08091335      -0.01271331       0.11669922 </v>
   <v>      -0.08968265       0.03511646       0.06907307 </v>
   <v>       0.01442958      -0.09522568       0.06907307 </v>
   <v>       0.01241354       0.15500032      -0.22541618 </v>
   <v>       0.12802744      -0.08825060      -0.22541618 </v>
   <v>       0.01241354      -0.15500032      -0.22541618 </v>
   <v>      -0.14044098      -0.06674972      -0.22541618 </v>
   <v>      -0.00000000       0.00000000      -0.08482939 </v>
   <v>       0.01812667      -0.16674222       0.09781673 </v>
   <v>      -0.00000000       0.00000000      -0.08482939 </v>
   <v>      -0.00000000       0.00000000      -0.08968914 </v>
   <v>       0.13533967      -0.09906927       0.09781673 </v>
   <v>       0.12802744       0.08825060      -0.22541618 </v>
   <v>      -0.14044098       0.06674972      -0.22541618 </v>
   <v>      -0.00000000       0.00000000      -0.08968914 </v>
   <v>      -0.15346634      -0.06767295       0.09781673 </v>
   <v>      -0.15346634       0.06767295       0.09781673 </v>
   <v>       0.13533967       0.09906927       0.09781673 </v>
   <v>       0.01812667       0.16674222       0.09781673 </v>
  </varray>
  <varray name="stress" >
   <v>     232.18661340       0.00000000      -0.00000000 </v>
   <v>       0.00000000     232.18661340      -0.00000000 </v>
   <v>       0.00000000       0.00000000     191.25562929 </v>
  </varray>
  <energy>
   <i name="e_fr_energy">   -198.68728675 </i>
   <i name="e_wo_entrp">   -198.68537270 </i>
   <i name="e_0_energy">     -0.00765619 </i>
  </energy>
  <time name="totalsc">   32.09   32.16</time>
 </calculation>
 <calculation>
  <scstep>
   <time name="dav">    5.87    5.87</time>
   <time name="total">    6.71    6.71</time>
   <energy>
    <i name="alphaZ">    154.42294858 </i>
    <i name="ewald">  -4407.85878150 </i>
    <i name="hartreedc">  -1240.78988042 </i>
    <i name="XCdc">    122.92483128 </i>
    <i name="pawpsdc">  20899.87738714 </i>
[...]
       <r>   -1.3899    1.0000 </r>
       <r>   -0.5779    1.0000 </r>
       <r>   -0.5074    1.0000 </r>
       <r>   -0.1779    1.0000 </r>
       <r>   -0.1779    1.0000 </r>
       <r>    0.6074    1.0000 </r>
       <r>    0.6074    1.0000 </r>
       <r>    0.9691    1.0000 </r>
       <r>    0.9691    1.0000 </r>
       <r>    1.1381    1.0000 </r>
       <r>    1.1407    1.0000 </r>
       <r>    1.5127    1.0000 </r>
       <r>    1.5127    1.0000 </r>
       <r>    1.9586    1.0000 </r>
       <r>    1.9586    1.0000 </r>
       <r>    2.0650    1.0000 </r>
       <r>    2.2320    1.0000 </r>
       <r>    2.2320    1.0000 </r>
       <r>    2.2506    1.0000 </r>
       <r>    2.6042    1.0000 </r>
       <r>    3.3762    1.0000 </r>
       <r>    3.3762    1.0000 </r>
       <r>    3.5249    1.0000 </r>
       <r>    3.7875    1.0000 </r>
       <r>    3.7875    1.0000 </r>
       <r>    3.9584    1.0000 </r>
       <r>    4.1621    1.0000 </r>
       <r>    4.1621    1.0000 </r>
       <r>    4.2924    1.0000 </r>
       <r>    5.0899    1.0000 </r>
       <r>    5.0899    1.0000 </r>
       <r>    5.2874    1.0000 </r>
       <r>    5.3830    1.0000 </r>
       <r>    5.3830    1.0000 </r>
       <r>    5.6083    1.0000 </r>
       <r>    5.8911    1.0000 </r>
       <r>    5.8911    1.0000 </r>
       <r>    6.4074    1.0000 </r>
       <r>    6.4074    1.0000 </r>
       <r>    6.8520    1.0000 </r>
       <r>    6.8520    1.0000 </r>
       <r>    7.1301    1.0000 </r>
       <r>    7.1330    1.0000 </r>
       <r>    8.7357    0.1660 </r>
       <r>    8.7482    0.0779 </r>
       <r>    8.8242   -0.0349 </r>
       <r>    8.8242   -0.0349 </r>
       <r>   11.1833    0.0000 </r>
       <r>   11.1833    0.0000 </r>
       <r>   11.5048    0.0000 </r>
       <r>   11.5048    0.0000 </r>
       <r>   11.8270    0.0000 </r>
       <r>   12.2186    0.0000 </r>
       <r>   12.6922    0.0000 </r>
       <r>   12.6922    0.0000 </r>
       <r>   13.3102    0.0000 </r>
       <r>   13.4010    0.0000 </r>
       <r>   13.4010    0.0000 </r>
       <r>   13.6314    0.0000 </r>
       <r>   13.6314    0.0000 </r>
       <r>   13.9003    0.0000 </r>
       <r>   13.9003    0.0000 </r>
       <r>   13.9427    0.0000 </r>
      </set>
     </set>
    </set>
   </array>
  </eigenvalues>
  <separator name="orbital magnetization" >
   <v name="MAGDIPOLOUT">      0.00000000      0.00000000      0.00000000</v>
  </separator>
  <dos>
   <i name="efermi">      8.70106920 </i>
   <total>
    <array>
     <dimension dim="1">gridpoints</dimension>
     <dimension dim="2">spin</dimension>
     <field>energy</field>
     <field>total</field>
     <field>integrated</field>
     <set>
      <set comment="spin 1">
       <r>   -11.8856     0.0000     0.0000 </r>
       <r>   -11.7938     0.0000     0.0000 </r>
       <r>   -11.7021     0.0000     0.0000 </r>
       <r>   -11.6104     0.0000     0.0000 </r>
       <r>   -11.5186     0.0000     0.0000 </r>
       <r>   -11.4269     0.0000     0.0000 </r>
       <r>   -11.3352     0.0000     0.0000 </r>
       <r>   -11.2435     0.0000     0.0000 </r>
       <r>   -11.1517     0.0000     0.0000 </r>
       <r>   -11.0600     0.0000     0.0000 </r>
       <r>   -10.9683     0.0000     0.0000 </r>
       <r>   -10.8765     0.0007     0.0001 </r>
       <r>   -10.7848     0.0048     0.0005 </r>
       <r>   -10.6931    -0.0366    -0.0029 </r>
       <r>   -10.6014     0.3187     0.0264 </r>
       <r>   -10.5096     1.7314     0.1852 </r>
       <r>   -10.4179     2.7375     0.4363 </r>
       <r>   -10.3262     3.9822     0.8016 </r>
       <r>   -10.2344     3.1945     1.0946 </r>
       <r>   -10.1427     4.6208     1.5185 </r>
       <r>   -10.0510     4.4844     1.9298 </r>
       <r>    -9.9593     8.1068     2.6734 </r>
       <r>    -9.8675     8.4272     3.4465 </r>
       <r>    -9.7758     6.4729     4.0402 </r>
       <r>    -9.6841     8.8340     4.8505 </r>
       <r>    -9.5923     3.6991     5.1898 </r>
       <r>    -9.5006     3.6475     5.5244 </r>
       <r>    -9.4089     2.4158     5.7460 </r>
       <r>    -9.3172     0.6833     5.8087 </r>
       <r>    -9.2254     5.6982     6.3314 </r>
       <r>    -9.1337     7.9801     7.0634 </r>
       <r>    -9.0420     2.0805     7.2542 </r>
       <r>    -8.9502     1.8848     7.4271 </r>
       <r>    -8.8585     8.0261     8.1633 </r>
       <r>    -8.7668    13.0177     9.3574 </r>
       <r>    -8.6751     7.4385    10.0398 </r>
       <r>    -8.5833     5.4173    10.5367 </r>
       <r>    -8.4916     5.2550    11.0187 </r>
       <r>    -8.3999     3.1314    11.3059 </r>
       <r>    -8.3081     4.6049    11.7283 </r>
       <r>    -8.2164    10.0630    12.6514 </r>
       <r>    -8.1247    12.5918    13.8064 </r>
       <r>    -8.0330    14.4498    15.1319 </r>
       <r>    -7.9412    12.4160    16.2708 </r>
       <r>    -7.8495    12.7934    17.4443 </r>
       <r>    -7.7578     9.8112    18.3443 </r>
       <r>    -7.6661     7.3365    19.0172 </r>
       <r>    -7.5743     7.5440    19.7092 </r>
       <r>    -7.4826    12.8192    20.8851 </r>
       <r>    -7.3909    24.0103    23.0875 </r>
       <r>    -7.2991    10.1905    24.0223 </r>
       <r>    -7.2074    -0.2246    24.0017 </r>
       <r>    -7.1157    -0.0465    23.9974 </r>
       <r>    -7.0240     0.0275    23.9999 </r>
       <r>    -6.9322     0.0006    24.0000 </r>
       <r>    -6.8405     0.0000    24.0000 </r>
       <r>    -6.7488     0.0000    24.0000 </r>
       <r>    -6.6570     0.0000    24.0000 </r>
       <r>    -6.5653     0.0000    24.0000 </r>
       <r>    -6.4736     0.0000    24.0000 </r>
       <r>    -6.3819     0.0000    24.0000 </r>
       <r>    -6.2901     0.0000    24.0000 </r>
       <r>    -6.1984     0.0000    24.0000 </r>
       <r>    -6.1067     0.0000    24.0000 </r>
       <r>    -6.0149     0.0000    24.0000 </r>
       <r>    -5.9232     0.0000    24.0000 </r>
       <r>    -5.8315     0.0000    24.0000 </r>
       <r>    -5.7398     0.0000    24.0000 </r>
       <r>    -5.6480     0.0000    24.0000 </r>
       <r>    -5.5563     0.0000    24.0000 </r>
       <r>    -5.4646     0.0000    24.0000 </r>
       <r>    -5.3728     0.0000    24.0000 </r>
       <r>    -5.2811     0.0000    24.0000 </r>
       <r>    -5.1894     0.0000    24.0000 </r>
       <r>    -5.0977     0.0000    24.0000 </r>
       <r>    -5.0059     0.0000    24.0000 </r>
       <r>    -4.9142     0.0000    24.0000 </r>
       <r>    -4.8225     0.0000    24.0000 </r>
       <r>    -4.7307     0.0000    24.0000 </r>
       <r>    -4.6390     0.0000    24.0000 </r>
       <r>    -4.5473     0.0000    24.0000 </r>
       <r>    -4.4556     0.0000    24.0000 </r>
       <r>    -4.3638     0.0000    24.0000 </r>
       <r>    -4.2721     0.0000    24.0000 </r>
       <r>    -4.1804     0.0000    24.0000 </r>
       <r>    -4.0886     0.0000    24.0000 </r>
       <r>    -3.9969     0.0000    24.0000 </r>
       <r>    -3.9052     0.0000    24.0000 </r>
       <r>    -3.8135     0.0000    24.0000 </r>
       <r>    -3.7217     0.0002    24.0000 </r>
       <r>    -3.6300     0.0011    24.0001 </r>
       <r>    -3.5383    -0.0046    23.9997 </r>
       <r>    -3.4465     0.0444    24.0038 </r>
       <r>    -3.3548     0.5820    24.0571 </r>
       <r>    -3.2631     0.8890    24.1387 </r>
       <r>    -3.1714     0.7272    24.2054 </r>
       <r>    -3.0796     2.1709    24.4045 </r>
       <r>    -2.9879     0.9844    24.4948 </r>
       <r>    -2.8962     1.5378    24.6359 </r>
       <r>    -2.8044     3.8627    24.9902 </r>
       <r>    -2.7127     1.0388    25.0855 </r>
       <r>    -2.6210     2.6573    25.3292 </r>
       <r>    -2.5293     2.5043    25.5590 </r>
       <r>    -2.4375     0.9346    25.6447 </r>
       <r>    -2.3458     4.5210    26.0594 </r>
       <r>    -2.2541     6.3395    26.6409 </r>
       <r>    -2.1623     5.2132    27.1191 </r>
       <r>    -2.0706     8.8283    27.9289 </r>
       <r>    -1.9789    10.2592    28.8700 </r>
       <r>    -1.8872     6.2053    29.4392 </r>
       <r>    -1.7954     5.2186    29.9179 </r>
       <r>    -1.7037     6.3970    30.5047 </r>
       <r>    -1.6120     5.5900    31.0174 </r>
       <r>    -1.5202     5.2441    31.4984 </r>
       <r>    -1.4285     7.2094    32.1598 </r>
       <r>    -1.3368    11.0205    33.1706 </r>
       <r>    -1.2451    10.5688    34.1401 </r>
       <r>    -1.1533    11.0945    35.1578 </r>
       <r>    -1.0616    10.1380    36.0877 </r>
       <r>    -0.9699    10.8423    37.0823 </r>
       <r>    -0.8782     9.3959    37.9441 </r>
       <r>    -0.7864     9.8122    38.8442 </r>
       <r>    -0.6947    11.3308    39.8836 </r>
       <r>    -0.6030     5.6807    40.4046 </r>
       <r>    -0.5112     3.8666    40.7593 </r>
       <r>    -0.4195     1.4992    40.8968 </r>
       <r>    -0.3278     1.6298    41.0463 </r>
       <r>    -0.2361     4.6359    41.4716 </r>
       <r>    -0.1443     2.4421    41.6956 </r>
       <r>    -0.0526     5.8029    42.2279 </r>
       <r>     0.0391     9.6098    43.1094 </r>
       <r>     0.1309    11.3448    44.1500 </r>
       <r>     0.2226    10.4973    45.1129 </r>
       <r>     0.3143     7.6585    45.8154 </r>
       <r>     0.4060     6.3241    46.3955 </r>
       <r>     0.4978     8.1345    47.1417 </r>
       <r>     0.5895     8.5078    47.9221 </r>
       <r>     0.6812     8.7075    48.7208 </r>
       <r>     0.7730     6.3399    49.3024 </r>
       <r>     0.8647     5.4508    49.8024 </r>
       <r>     0.9564     7.1089    50.4545 </r>
       <r>     1.0481     8.4374    51.2284 </r>
       <r>     1.1399    12.7533    52.3983 </r>
       <r>     1.2316    12.2333    53.5204 </r>
       <r>     1.3233     9.9461    54.4327 </r>
       <r>     1.4151    12.2426    55.5557 </r>
       <r>     1.5068    12.0923    56.6649 </r>
       <r>     1.5985    12.1622    57.7805 </r>
       <r>     1.6902     6.7532    58.4000 </r>
       <r>     1.7820     9.0311    59.2284 </r>
       <r>     1.8737    13.8852    60.5021 </r>
       <r>     1.9654    11.2329    61.5325 </r>
       <r>     2.0572     8.9533    62.3537 </r>
       <r>     2.1489    10.7465    63.3395 </r>
       <r>     2.2406    12.5707    64.4926 </r>
       <r>     2.3323     9.8657    65.3975 </r>
       <r>     2.4241     9.7299    66.2900 </r>
       <r>     2.5158    12.1411    67.4037 </r>
       <r>     2.6075    14.6666    68.7491 </r>
       <r>     2.6993    13.1349    69.9539 </r>
       <r>     2.7910     8.0237    70.6899 </r>
       <r>     2.8827     9.3582    71.5483 </r>
       <r>     2.9744    14.4757    72.8762 </r>
       <r>     3.0662    15.2287    74.2731 </r>
       <r>     3.1579    11.6071    75.3378 </r>
       <r>     3.2496     8.0069    76.0722 </r>
       <r>     3.3414    10.5490    77.0399 </r>
       <r>     3.4331    11.2886    78.0754 </r>
       <r>     3.5248    10.7426    79.0608 </r>
       <r>     3.6165    13.3055    80.2812 </r>
       <r>     3.7083    15.7805    81.7288 </r>
       <r>     3.8000    12.8752    82.9098 </r>
       <r>     3.8917    11.1247    83.9302 </r>
       <r>     3.9835     9.8027    84.8294 </r>
       <r>     4.0752    12.0513    85.9349 </r>
       <r>     4.1669     9.4421    86.8010 </r>
       <r>     4.2586     7.7289    87.5099 </r>
       <r>     4.3504    10.5337    88.4762 </r>
       <r>     4.4421    12.4785    89.6208 </r>
       <r>     4.5338    14.9782    90.9947 </r>
       <r>     4.6256     8.4634    91.7711 </r>
       <r>     4.7173     6.9024    92.4042 </r>
       <r>     4.8090    10.7174    93.3873 </r>
       <r>     4.9007    13.1470    94.5933 </r>
       <r>     4.9925    12.5111    95.7409 </r>
       <r>     5.0842    11.3821    96.7849 </r>
       <r>     5.1759    11.9824    97.8841 </r>
       <r>     5.2677     8.0359    98.6212 </r>
       <r>     5.3594     8.2012    99.3735 </r>
       <r>     5.4511    12.4783   100.5181 </r>
       <r>     5.5428    16.4705   102.0289 </r>
       <r>     5.6346    16.3625   103.5298 </r>
       <r>     5.7263     6.8974   104.1625 </r>
       <r>     5.8180     8.0963   104.9052 </r>
       <r>     5.9097     6.2616   105.4795 </r>
       <r>     6.0015     6.5037   106.0761 </r>
       <r>     6.0932     6.7374   106.6941 </r>
       <r>     6.1849    12.0578   107.8001 </r>
       <r>     6.2767    12.4270   108.9401 </r>
       <r>     6.3684    12.7888   110.1131 </r>
       <r>     6.4601    17.2027   111.6911 </r>
       <r>     6.5518    11.9934   112.7913 </r>
       <r>     6.6436     4.9182   113.2424 </r>
       <r>     6.7353     4.0233   113.6114 </r>
       <r>     6.8270     3.1429   113.8997 </r>
       <r>     6.9188     6.6167   114.5067 </r>
       <r>     7.0105     7.2479   115.1715 </r>
       <r>     7.1022     9.2992   116.0245 </r>
       <r>     7.1939    10.4491   116.9830 </r>
       <r>     7.2857    11.7915   118.0646 </r>
       <r>     7.3774     8.9087   118.8818 </r>
       <r>     7.4691     5.4208   119.3790 </r>
       <r>     7.5609     3.7214   119.7204 </r>
       <r>     7.6526     4.4974   120.1329 </r>
       <r>     7.7443     9.0022   120.9587 </r>
       <r>     7.8360     6.6459   121.5683 </r>
       <r>     7.9278     2.1592   121.7663 </r>
       <r>     8.0195    -0.1990   121.7481 </r>
       <r>     8.1112     0.0179   121.7497 </r>
       <r>     8.2030     0.2710   121.7746 </r>
       <r>     8.2947     0.8985   121.8570 </r>
       <r>     8.3864     1.6343   122.0069 </r>
       <r>     8.4781     3.2339   122.3035 </r>
       <r>     8.5699     4.2456   122.6930 </r>
       <r>     8.6616     7.6381   123.3936 </r>
       <r>     8.7533    16.5234   124.9093 </r>
       <r>     8.8451     9.7416   125.8029 </r>
       <r>     8.9368     3.9160   126.1621 </r>
       <r>     9.0285     0.9870   126.2526 </r>
       <r>     9.1202    -0.0344   126.2495 </r>
       <r>     9.2120     0.0032   126.2498 </r>
       <r>     9.3037     0.0026   126.2500 </r>
       <r>     9.3954     0.0001   126.2500 </r>
       <r>     9.4872     0.0000   126.2500 </r>
       <r>     9.5789     0.0000   126.2500 </r>
       <r>     9.6706     0.0000   126.2500 </r>
       <r>     9.7623     0.0000   126.2500 </r>
       <r>     9.8541     0.0007   126.2501 </r>
       <r>     9.9458     0.0180   126.2517 </r>
       <r>    10.0375    -0.1347   126.2394 </r>
       <r>    10.1293     0.6386   126.2979 </r>
       <r>    10.2210     4.3109   126.6934 </r>
       <r>    10.3127     0.7742   126.7644 </r>
       <r>    10.4044    -0.0382   126.7609 </r>
       <r>    10.4962     0.6199   126.8177 </r>
       <r>    10.5879     1.1228   126.9207 </r>
       <r>    10.6796     1.5241   127.0605 </r>
       <r>    10.7714     1.4843   127.1967 </r>
       <r>    10.8631     2.7218   127.4464 </r>
       <r>    10.9548     6.5415   128.0464 </r>
       <r>    11.0465     9.1840   128.8888 </r>
       <r>    11.1383    10.4807   129.8502 </r>
       <r>    11.2300    15.5677   131.2782 </r>
       <r>    11.3217    11.8859   132.3685 </r>
       <r>    11.4135     6.2189   132.9389 </r>
       <r>    11.5052     8.7775   133.7441 </r>
       <r>    11.5969    11.3809   134.7880 </r>
       <r>    11.6886     4.9897   135.2457 </r>
       <r>    11.7804     5.1408   135.7173 </r>
       <r>    11.8721     3.0328   135.9955 </r>
       <r>    11.9638     3.9760   136.3602 </r>
       <r>    12.0556     6.2905   136.9372 </r>
       <r>    12.1473     4.6317   137.3621 </r>
       <r>    12.2390     7.4886   138.0490 </r>
       <r>    12.3307    12.0703   139.1562 </r>
       <r>    12.4225     7.1467   139.8117 </r>
       <r>    12.5142     8.3175   140.5747 </r>
       <r>    12.6059     9.4451   141.4411 </r>
       <r>    12.6976    10.1982   142.3765 </r>
       <r>    12.7894    11.4720   143.4288 </r>
       <r>    12.8811     7.9464   144.1577 </r>
       <r>    12.9728     6.1522   144.7221 </r>
       <r>    13.0646     9.5270   145.5960 </r>
       <r>    13.1563    11.0054   146.6055 </r>
       <r>    13.2480    11.9919   147.7055 </r>
       <r>    13.3397    10.2608   148.6467 </r>
       <r>    13.4315    11.6746   149.7176 </r>
       <r>    13.5232    13.7360   150.9776 </r>
       <r>    13.6149    13.9507   152.2572 </r>
       <r>    13.7067    17.6969   153.8805 </r>
       <r>    13.7984    19.5115   155.6703 </r>
       <r>    13.8901    14.5124   157.0015 </r>
       <r>    13.9818    15.5847   158.4311 </r>
       <r>    14.0736    10.3359   159.3792 </r>
       <r>    14.1653     5.7753   159.9089 </r>
       <r>    14.2570     0.8869   159.9903 </r>
       <r>    14.3488    -0.0304   159.9875 </r>
       <r>    14.4405     0.1311   159.9995 </r>
       <r>    14.5322     0.0071   160.0001 </r>
       <r>    14.6239    -0.0020   160.0000 </r>
       <r>    14.7157     0.0004   160.0000 </r>
       <r>    14.8074     0.0000   160.0000 </r>
       <r>    14.8991     0.0000   160.0000 </r>
       <r>    14.9909     0.0000   160.0000 </r>
       <r>    15.0826     0.0000   160.0000 </r>
       <r>    15.1743     0.0000   160.0000 </r>
       <r>    15.2660     0.0000   160.0000 </r>
       <r>    15.3578     0.0000   160.0000 </r>
       <r>    15.4495     0.0000   160.0000 </r>
       <r>    15.5412     0.0000   160.0000 </r>
       <r>    15.6330     0.0000   160.0000 </r>
      </set>
     </set>
    </array>
   </total>
  </dos>
 </calculation>
 <structure name="finalpos" >
  <crystal>
   <varray name="basis" >
    <v>       4.14337106      -7.17652919       0.00000000 </v>
    <v>       4.14337106       7.17652919       0.00000000 </v>
    <v>       0.00000000       0.00000000       5.30972987 </v>
   </varray>
   <i name="volume">    315.76988377 </i>
   <varray name="rec_basis" >
    <v>       0.12067469      -0.06967156       0.00000000 </v>
    <v>       0.12067469       0.06967156       0.00000000 </v>
    <v>       0.00000000       0.00000000       0.18833350 </v>
   </varray>
  </crystal>
  <varray name="positions" >
   <v>       0.01215226       0.64553586       0.20479152 </v>
   <v>       0.63338360       0.98784774       0.20479152 </v>
   <v>       0.91033866       0.32101864       0.99197041 </v>
   <v>       0.64553586       0.01215226       0.70479152 </v>
   <v>       0.08966134       0.41067998       0.49197041 </v>
   <v>       0.32101864       0.91033866       0.49197041 </v>
   <v>       0.35446414       0.36661640       0.20479152 </v>
   <v>       0.58932002       0.67898136       0.49197041 </v>
   <v>       0.98784774       0.63338360       0.70479152 </v>
   <v>       0.36661640       0.35446414       0.70479152 </v>
   <v>       0.67898136       0.58932002       0.99197041 </v>
   <v>       0.41067998       0.08966134       0.99197041 </v>
   <v>       0.21401879       0.30033589       0.46028933 </v>
   <v>       0.08631710       0.78598121       0.46028933 </v>
   <v>       0.30033589       0.21401879       0.96028933 </v>
   <v>       0.69966411       0.91368290       0.46028933 </v>
   <v>       0.00000000       0.00000000       0.94805313 </v>
   <v>       0.07406078       0.48670781       0.78905294 </v>
   <v>       0.00000000       0.00000000       0.44805313 </v>
   <v>       0.66666667       0.33333333       0.50976195 </v>
   <v>       0.58735296       0.51329219       0.28905294 </v>
   <v>       0.78598121       0.08631710       0.96028933 </v>
   <v>       0.91368290       0.69966411       0.96028933 </v>
   <v>       0.33333333       0.66666667       0.00976195 </v>
   <v>       0.92593922       0.41264704       0.28905294 </v>
   <v>       0.41264704       0.92593922       0.78905294 </v>
   <v>       0.51329219       0.58735296       0.78905294 </v>
   <v>       0.48670781       0.07406078       0.28905294 </v>
  </varray>
 </structure>
</modeling>
