unknown system                          
           1
     4.143371   -7.176529    0.000000
     4.143371    7.176529    0.000000
     0.000000    0.000000    5.309730
   Si   N 
  12  16
Direct configuration=     1
   0.00847736  0.64712623  0.21326215
   0.63864887  0.99152264  0.21326215
   0.91417805  0.32157747  0.99187268
   0.64712623  0.00847736  0.71326215
   0.08582195  0.40739942  0.49187268
   0.32157747  0.91417805  0.49187268
   0.35287377  0.36135113  0.21326215
   0.59260058  0.67842253  0.49187268
   0.99152264  0.63864887  0.71326215
   0.36135113  0.35287377  0.71326215
   0.67842253  0.59260058  0.99187268
   0.40739942  0.08582195  0.99187268
   0.21311138  0.30040483  0.46674092
   0.08729345  0.78688862  0.46674092
   0.30040483  0.21311138  0.96674092
   0.69959517  0.91270655  0.46674092
   0.00000000  0.00000000  0.95692726
   0.06686359  0.48449764  0.78259872
   0.00000000  0.00000000  0.45692726
   0.66666667  0.33333333  0.47577702
   0.58236595  0.51550236  0.28259872
   0.78688862  0.08729345  0.96674092
   0.91270655  0.69959517  0.96674092
   0.33333333  0.66666667  0.97577702
   0.93313641  0.41763405  0.28259872
   0.41763405  0.93313641  0.78259872
   0.51550236  0.58236595  0.78259872
   0.48449764  0.06686359  0.28259872
Direct configuration=     2
   0.01083391  0.64787892  0.21036787
   0.63704500  0.98916609  0.21036787
   0.91291147  0.32126579  0.98988118
   0.64787892  0.01083391  0.71036787
   0.08708853  0.40835432  0.48988118
   0.32126579  0.91291147  0.48988118
   0.35212108  0.36295500  0.21036787
   0.59164568  0.67873421  0.48988118
   0.98916609  0.63704500  0.71036787
   0.36295500  0.35212108  0.71036787
   0.67873421  0.59164568  0.98988118
   0.40835432  0.08708853  0.98988118
   0.21077036  0.29705772  0.46657835
   0.08628736  0.78922964  0.46657835
   0.29705772  0.21077036  0.96657835
   0.70294228  0.91371264  0.46657835
  -0.00000000  0.00000000  0.95653851
   0.06916868  0.48436767  0.78490339
  -0.00000000  0.00000000  0.45653851
   0.66666667  0.33333333  0.48439681
   0.58480102  0.51563233  0.28490339
   0.78922964  0.08628736  0.96657835
   0.91371264  0.70294228  0.96657835
   0.33333333  0.66666667  0.98439681
   0.93083132  0.41519898  0.28490339
   0.41519898  0.93083132  0.78490339
   0.51563233  0.58480102  0.78490339
   0.48436767  0.06916868  0.28490339
Direct configuration=     3
   0.01101375  0.64793636  0.21014699
   0.63692261  0.98898625  0.21014699
   0.91281481  0.32124201  0.98972920
   0.64793636  0.01101375  0.71014699
   0.08718519  0.40842720  0.48972920
   0.32124201  0.91281481  0.48972920
   0.35206364  0.36307739  0.21014699
   0.59157280  0.67875799  0.48972920
   0.98898625  0.63692261  0.71014699
   0.36307739  0.35206364  0.71014699
   0.67875799  0.59157280  0.98972920
   0.40842720  0.08718519  0.98972920
   0.21059171  0.29680229  0.46656594
   0.08621058  0.78940829  0.46656594
   0.29680229  0.21059171  0.96656594
   0.70319771  0.91378942  0.46656594
  -0.00000000  0.00000000  0.95650884
   0.06934460  0.48435775  0.78507927
  -0.00000000  0.00000000  0.45650884
   0.66666667  0.33333333  0.48505462
   0.58498685  0.51564225  0.28507927
   0.78940829  0.08621058  0.96656594
   0.91378942  0.70319771  0.96656594
   0.33333333  0.66666667  0.98505462
   0.93065540  0.41501315  0.28507927
   0.41501315  0.93065540  0.78507927
   0.51564225  0.58498685  0.78507927
   0.48435775  0.06934460  0.28507927
Direct configuration=     4
   0.01344127  0.64828711  0.20852862
   0.63484585  0.98655873  0.20852862
   0.91081117  0.32041813  0.99047512
   0.64828711  0.01344127  0.70852862
   0.08918883  0.40960696  0.49047512
   0.32041813  0.91081117  0.49047512
   0.35171289  0.36515415  0.20852862
   0.59039304  0.67958187  0.49047512
   0.98655873  0.63484585  0.70852862
   0.36515415  0.35171289  0.70852862
   0.67958187  0.59039304  0.99047512
   0.40960696  0.08918883  0.99047512
   0.21201581  0.29688001  0.46432133
   0.08486420  0.78798419  0.46432133
   0.29688001  0.21201581  0.96432133
   0.70311999  0.91513580  0.46432133
  -0.00000000  0.00000000  0.95558309
   0.07146477  0.48613851  0.78453221
  -0.00000000  0.00000000  0.45558309
   0.66666667  0.33333333  0.49697278
   0.58532627  0.51386149  0.28453221
   0.78798419  0.08486420  0.96432133
   0.91513580  0.70311999  0.96432133
   0.33333333  0.66666667  0.99697278
   0.92853523  0.41467373  0.28453221
   0.41467373  0.92853523  0.78453221
   0.51386149  0.58532627  0.78453221
   0.48613851  0.07146477  0.28453221
Direct configuration=     5
   0.01381474  0.64834108  0.20827963
   0.63452634  0.98618526  0.20827963
   0.91050291  0.32029138  0.99058987
   0.64834108  0.01381474  0.70827963
   0.08949709  0.40978846  0.49058987
   0.32029138  0.91050291  0.49058987
   0.35165892  0.36547366  0.20827963
   0.59021154  0.67970862  0.49058987
   0.98618526  0.63452634  0.70827963
   0.36547366  0.35165892  0.70827963
   0.67970862  0.59021154  0.99058987
   0.40978846  0.08949709  0.99058987
   0.21223491  0.29689197  0.46397600
   0.08465706  0.78776509  0.46397600
   0.29689197  0.21223491  0.96397600
   0.70310803  0.91534294  0.46397600
  -0.00000000  0.00000000  0.95544066
   0.07179096  0.48641247  0.78444805
  -0.00000000  0.00000000  0.45544066
   0.66666667  0.33333333  0.49880635
   0.58537849  0.51358753  0.28444805
   0.78776509  0.08465706  0.96397600
   0.91534294  0.70310803  0.96397600
   0.33333333  0.66666667  0.99880635
   0.92820904  0.41462151  0.28444805
   0.41462151  0.92820904  0.78444805
   0.51358753  0.58537849  0.78444805
   0.48641247  0.07179096  0.28444805
Direct configuration=     6
   0.01424734  0.64727249  0.20485975
   0.63302515  0.98575266  0.20485975
   0.91008042  0.32051420  0.99000218
   0.64727249  0.01424734  0.70485975
   0.08991958  0.41043378  0.49000218
   0.32051420  0.91008042  0.49000218
   0.35272751  0.36697485  0.20485975
   0.58956622  0.67948580  0.49000218
   0.98575266  0.63302515  0.70485975
   0.36697485  0.35272751  0.70485975
   0.67948580  0.58956622  0.99000218
   0.41043378  0.08991958  0.99000218
   0.21407974  0.29945554  0.46387973
   0.08537580  0.78592026  0.46387973
   0.29945554  0.21407974  0.96387973
   0.70054446  0.91462420  0.46387973
   0.00000000  0.00000000  0.95414796
   0.07235872  0.48696939  0.78636471
   0.00000000  0.00000000  0.45414796
   0.66666667  0.33333333  0.50666061
   0.58538933  0.51303061  0.28636471
   0.78592026  0.08537580  0.96387973
   0.91462420  0.70054446  0.96387973
   0.33333333  0.66666667  0.00666061
   0.92764128  0.41461067  0.28636471
   0.41461067  0.92764128  0.78636471
   0.51303061  0.58538933  0.78636471
   0.48696939  0.07235872  0.28636471
Direct configuration=     7
   0.01415814  0.64749282  0.20556489
   0.63333468  0.98584186  0.20556489
   0.91016753  0.32046825  0.99012336
   0.64749282  0.01415814  0.70556489
   0.08983247  0.41030072  0.49012336
   0.32046825  0.91016753  0.49012336
   0.35250718  0.36666532  0.20556489
   0.58969928  0.67953175  0.49012336
   0.98584186  0.63333468  0.70556489
   0.36666532  0.35250718  0.70556489
   0.67953175  0.58969928  0.99012336
   0.41030072  0.08983247  0.99012336
   0.21369935  0.29892696  0.46389958
   0.08522761  0.78630065  0.46389958
   0.29892696  0.21369935  0.96389958
   0.70107304  0.91477239  0.46389958
   0.00000000  0.00000000  0.95441450
   0.07224165  0.48685456  0.78596952
   0.00000000  0.00000000  0.45441450
   0.66666667  0.33333333  0.50504115
   0.58538710  0.51314544  0.28596952
   0.78630065  0.08522761  0.96389958
   0.91477239  0.70107304  0.96389958
   0.33333333  0.66666667  0.00504115
   0.92775835  0.41461290  0.28596952
   0.41461290  0.92775835  0.78596952
   0.51314544  0.58538710  0.78596952
   0.48685456  0.07224165  0.28596952
Direct configuration=     8
   0.01440566  0.64667284  0.20527519
   0.63226718  0.98559434  0.20527519
   0.91023264  0.32116819  0.99050126
   0.64667284  0.01440566  0.70527519
   0.08976736  0.41093555  0.49050126
   0.32116819  0.91023264  0.49050126
   0.35332716  0.36773282  0.20527519
   0.58906445  0.67883181  0.49050126
   0.98559434  0.63226718  0.70527519
   0.36773282  0.35332716  0.70527519
   0.67883181  0.58906445  0.99050126
   0.41093555  0.08976736  0.99050126
   0.21397399  0.30047706  0.46189600
   0.08650307  0.78602601  0.46189600
   0.30047706  0.21397399  0.96189600
   0.69952294  0.91349693  0.46189600
   0.00000000  0.00000000  0.95317999
   0.07309832  0.48663069  0.78755598
   0.00000000  0.00000000  0.45317999
   0.66666667  0.33333333  0.50726239
   0.58646763  0.51336931  0.28755598
   0.78602601  0.08650307  0.96189600
   0.91349693  0.69952294  0.96189600
   0.33333333  0.66666667  0.00726239
   0.92690168  0.41353237  0.28755598
   0.41353237  0.92690168  0.78755598
   0.51336931  0.58646763  0.78755598
   0.48663069  0.07309832  0.28755598
Direct configuration=     9
   0.01438339  0.64674661  0.20530125
   0.63236322  0.98561661  0.20530125
   0.91022678  0.32110522  0.99046727
   0.64674661  0.01438339  0.70530125
   0.08977322  0.41087844  0.49046727
   0.32110522  0.91022678  0.49046727
   0.35325339  0.36763678  0.20530125
   0.58912156  0.67889478  0.49046727
   0.98561661  0.63236322  0.70530125
   0.36763678  0.35325339  0.70530125
   0.67889478  0.58912156  0.99046727
   0.41087844  0.08977322  0.99046727
   0.21394929  0.30033761  0.46207625
   0.08638833  0.78605071  0.46207625
   0.30033761  0.21394929  0.96207625
   0.69966239  0.91361167  0.46207625
   0.00000000  0.00000000  0.95329105
   0.07302125  0.48665083  0.78741326
   0.00000000  0.00000000  0.45329105
   0.66666667  0.33333333  0.50706256
   0.58637042  0.51334917  0.28741326
   0.78605071  0.08638833  0.96207625
   0.91361167  0.69966239  0.96207625
   0.33333333  0.66666667  0.00706256
   0.92697875  0.41362958  0.28741326
   0.41362958  0.92697875  0.78741326
   0.51334917  0.58637042  0.78741326
   0.48665083  0.07302125  0.28741326
Direct configuration=    10
   0.01365620  0.64599686  0.20429485
   0.63234066  0.98634380  0.20429485
   0.91008714  0.32135396  0.99166946
   0.64599686  0.01365620  0.70429485
   0.08991286  0.41126683  0.49166946
   0.32135396  0.91008714  0.49166946
   0.35400314  0.36765934  0.20429485
   0.58873317  0.67864604  0.49166946
   0.98634380  0.63234066  0.70429485
   0.36765934  0.35400314  0.70429485
   0.67864604  0.58873317  0.99166946
   0.41126683  0.08991286  0.99166946
   0.21403120  0.30068427  0.46149158
   0.08665308  0.78596880  0.46149158
   0.30068427  0.21403120  0.96149158
   0.69931573  0.91334692  0.46149158
   0.00000000  0.00000000  0.95213601
   0.07402865  0.48683560  0.78809025
   0.00000000  0.00000000  0.45213601
   0.66666667  0.33333333  0.50735322
   0.58719305  0.51316440  0.28809025
   0.78596880  0.08665308  0.96149158
   0.91334692  0.69931573  0.96149158
   0.33333333  0.66666667  0.00735322
   0.92597135  0.41280695  0.28809025
   0.41280695  0.92597135  0.78809025
   0.51316440  0.58719305  0.78809025
   0.48683560  0.07402865  0.28809025
Direct configuration=    11
   0.01383503  0.64618124  0.20454235
   0.63234621  0.98616497  0.20454235
   0.91012148  0.32129279  0.99137382
   0.64618124  0.01383503  0.70454235
   0.08987852  0.41117132  0.49137382
   0.32129279  0.91012148  0.49137382
   0.35381876  0.36765379  0.20454235
   0.58882868  0.67870721  0.49137382
   0.98616497  0.63234621  0.70454235
   0.36765379  0.35381876  0.70454235
   0.67870721  0.58882868  0.99137382
   0.41117132  0.08987852  0.99137382
   0.21401105  0.30059902  0.46163536
   0.08658797  0.78598895  0.46163536
   0.30059902  0.21401105  0.96163536
   0.69940098  0.91341203  0.46163536
   0.00000000  0.00000000  0.95242006
   0.07378091  0.48679016  0.78792377
   0.00000000  0.00000000  0.45242006
   0.66666667  0.33333333  0.50728174
   0.58699075  0.51320984  0.28792377
   0.78598895  0.08658797  0.96163536
   0.91341203  0.69940098  0.96163536
   0.33333333  0.66666667  0.00728174
   0.92621909  0.41300925  0.28792377
   0.41300925  0.92621909  0.78792377
   0.51320984  0.58699075  0.78792377
   0.48679016  0.07378091  0.28792377
Direct configuration=    12
   0.01328229  0.64589748  0.20452380
   0.63261520  0.98671771  0.20452380
   0.91009281  0.32115445  0.99158872
   0.64589748  0.01328229  0.70452380
   0.08990719  0.41106164  0.49158872
   0.32115445  0.91009281  0.49158872
   0.35410252  0.36738480  0.20452380
   0.58893836  0.67884555  0.49158872
   0.98671771  0.63261520  0.70452380
   0.36738480  0.35410252  0.70452380
   0.67884555  0.58893836  0.99158872
   0.41106164  0.08990719  0.99158872
   0.21412000  0.30050873  0.46095361
   0.08638873  0.78588000  0.46095361
   0.30050873  0.21412000  0.96095361
   0.69949127  0.91361127  0.46095361
   0.00000000  0.00000000  0.95135570
   0.07402127  0.48698682  0.78862527
   0.00000000  0.00000000  0.45135570
   0.66666667  0.33333333  0.50769780
   0.58703445  0.51301318  0.28862527
   0.78588000  0.08638873  0.96095361
   0.91361127  0.69949127  0.96095361
   0.33333333  0.66666667  0.00769780
   0.92597873  0.41296555  0.28862527
   0.41296555  0.92597873  0.78862527
   0.51301318  0.58703445  0.78862527
   0.48698682  0.07402127  0.28862527
Direct configuration=    13
   0.01306914  0.64578807  0.20451665
   0.63271893  0.98693086  0.20451665
   0.91008176  0.32110111  0.99167159
   0.64578807  0.01306914  0.70451665
   0.08991824  0.41101935  0.49167159
   0.32110111  0.91008176  0.49167159
   0.35421193  0.36728107  0.20451665
   0.58898065  0.67889889  0.49167159
   0.98693086  0.63271893  0.70451665
   0.36728107  0.35421193  0.70451665
   0.67889889  0.58898065  0.99167159
   0.41101935  0.08991824  0.99167159
   0.21416201  0.30047391  0.46069072
   0.08631190  0.78583799  0.46069072
   0.30047391  0.21416201  0.96069072
   0.69952609  0.91368810  0.46069072
   0.00000000  0.00000000  0.95094527
   0.07411395  0.48706265  0.78889577
   0.00000000  0.00000000  0.45094527
   0.66666667  0.33333333  0.50785824
   0.58705130  0.51293735  0.28889577
   0.78583799  0.08631190  0.96069072
   0.91368810  0.69952609  0.96069072
   0.33333333  0.66666667  0.00785824
   0.92588605  0.41294870  0.28889577
   0.41294870  0.92588605  0.78889577
   0.51293735  0.58705130  0.78889577
   0.48706265  0.07411395  0.28889577
Direct configuration=    14
   0.01242098  0.64551985  0.20444605
   0.63309887  0.98757902  0.20444605
   0.91012089  0.32091995  0.99193952
   0.64551985  0.01242098  0.70444605
   0.08987911  0.41079906  0.49193952
   0.32091995  0.91012089  0.49193952
   0.35448015  0.36690113  0.20444605
   0.58920094  0.67908005  0.49193952
   0.98757902  0.63309887  0.70444605
   0.36690113  0.35448015  0.70444605
   0.67908005  0.58920094  0.99193952
   0.41079906  0.08987911  0.99193952
   0.21402016  0.30036372  0.46038983
   0.08634356  0.78597984  0.46038983
   0.30036372  0.21402016  0.96038983
   0.69963628  0.91365644  0.46038983
   0.00000000  0.00000000  0.94959203
   0.07400072  0.48687293  0.78908715
   0.00000000  0.00000000  0.44959203
   0.66666667  0.33333333  0.50894800
   0.58712779  0.51312707  0.28908715
   0.78597984  0.08634356  0.96038983
   0.91365644  0.69963628  0.96038983
   0.33333333  0.66666667  0.00894800
   0.92599928  0.41287221  0.28908715
   0.41287221  0.92599928  0.78908715
   0.51312707  0.58712779  0.78908715
   0.48687293  0.07400072  0.28908715
Direct configuration=    15
   0.01225485  0.64545111  0.20442795
   0.63319626  0.98774515  0.20442795
   0.91013092  0.32087351  0.99200819
   0.64545111  0.01225485  0.70442795
   0.08986908  0.41074260  0.49200819
   0.32087351  0.91013092  0.49200819
   0.35454889  0.36680374  0.20442795
   0.58925740  0.67912649  0.49200819
   0.98774515  0.63319626  0.70442795
   0.36680374  0.35454889  0.70442795
   0.67912649  0.58925740  0.99200819
   0.41074260  0.08986908  0.99200819
   0.21398380  0.30033548  0.46031271
   0.08635168  0.78601620  0.46031271
   0.30033548  0.21398380  0.96031271
   0.69966452  0.91364832  0.46031271
   0.00000000  0.00000000  0.94924519
   0.07397169  0.48682430  0.78913621
   0.00000000  0.00000000  0.44924519
   0.66666667  0.33333333  0.50922731
   0.58714739  0.51317570  0.28913621
   0.78601620  0.08635168  0.96031271
   0.91364832  0.69966452  0.96031271
   0.33333333  0.66666667  0.00922731
   0.92602831  0.41285261  0.28913621
   0.41285261  0.92602831  0.78913621
   0.51317570  0.58714739  0.78913621
   0.48682430  0.07397169  0.28913621
Direct configuration=    16
   0.01217505  0.64551703  0.20471075
   0.63334198  0.98782495  0.20471075
   0.91029250  0.32098639  0.99197881
   0.64551703  0.01217505  0.70471075
   0.08970750  0.41069389  0.49197881
   0.32098639  0.91029250  0.49197881
   0.35448297  0.36665802  0.20471075
   0.58930611  0.67901361  0.49197881
   0.98782495  0.63334198  0.70471075
   0.36665802  0.35448297  0.70471075
   0.67901361  0.58930611  0.99197881
   0.41069389  0.08970750  0.99197881
   0.21401101  0.30033580  0.46029452
   0.08632478  0.78598899  0.46029452
   0.30033580  0.21401101  0.96029452
   0.69966420  0.91367522  0.46029452
   0.00000000  0.00000000  0.94831798
   0.07404098  0.48673369  0.78907144
   0.00000000  0.00000000  0.44831798
   0.66666667  0.33333333  0.50964317
   0.58730729  0.51326631  0.28907144
   0.78598899  0.08632478  0.96029452
   0.91367522  0.69966420  0.96029452
   0.33333333  0.66666667  0.00964317
   0.92595902  0.41269271  0.28907144
   0.41269271  0.92595902  0.78907144
   0.51326631  0.58730729  0.78907144
   0.48673369  0.07404098  0.28907144
Direct configuration=    17
   0.01215226  0.64553586  0.20479152
   0.63338360  0.98784774  0.20479152
   0.91033866  0.32101864  0.99197041
   0.64553586  0.01215226  0.70479152
   0.08966134  0.41067998  0.49197041
   0.32101864  0.91033866  0.49197041
   0.35446414  0.36661640  0.20479152
   0.58932002  0.67898136  0.49197041
   0.98784774  0.63338360  0.70479152
   0.36661640  0.35446414  0.70479152
   0.67898136  0.58932002  0.99197041
   0.41067998  0.08966134  0.99197041
   0.21401879  0.30033589  0.46028933
   0.08631710  0.78598121  0.46028933
   0.30033589  0.21401879  0.96028933
   0.69966411  0.91368290  0.46028933
   0.00000000  0.00000000  0.94805313
   0.07406078  0.48670781  0.78905294
   0.00000000  0.00000000  0.44805313
   0.66666667  0.33333333  0.50976195
   0.58735296  0.51329219  0.28905294
   0.78598121  0.08631710  0.96028933
   0.91368290  0.69966411  0.96028933
   0.33333333  0.66666667  0.00976195
   0.92593922  0.41264704  0.28905294
   0.41264704  0.92593922  0.78905294
   0.51329219  0.58735296  0.78905294
   0.48670781  0.07406078  0.28905294
