  14  14   0   0
  0.9415829E+01  0.7563953E-09  0.7563953E-09  0.2660470E-09  0.5000000E-15
  1.000000000000000E-004
  CAR 
 unknown system                          
     19.02975242    -10.90918935  301     11.92990360      1.00000000
    -10.909  0.0000E+00  0.0000E+00
    -10.809  0.0000E+00  0.0000E+00
    -10.710  0.0000E+00  0.0000E+00
    -10.610  0.0000E+00  0.0000E+00
    -10.510  0.0000E+00  0.0000E+00
    -10.410  0.1135E-33  0.1133E-34
    -10.310  0.8512E-27  0.8494E-28
    -10.211  0.8238E-21  0.8221E-22
    -10.111  0.1021E-15  0.1019E-16
    -10.011  0.1594E-11  0.1590E-12
     -9.911  0.3090E-08  0.3085E-09
     -9.811  0.7085E-06  0.7102E-07
     -9.712  0.1234E-04  0.1302E-05
     -9.612 -0.9207E-04 -0.7886E-05
     -9.512  0.9386E-03  0.8578E-04
     -9.412  0.4710E-02  0.5558E-03
     -9.312  0.7451E-02  0.1299E-02
     -9.213  0.9325E-02  0.2230E-02
     -9.113  0.1148E-01  0.3376E-02
     -9.013  0.1231E-01  0.4604E-02
     -8.913  0.1445E-01  0.6047E-02
     -8.813  0.1283E-01  0.7327E-02
     -8.714  0.1559E-01  0.8883E-02
     -8.614  0.2091E-01  0.1097E-01
     -8.514  0.1861E-01  0.1283E-01
     -8.414  0.2467E-01  0.1529E-01
     -8.314  0.2386E-01  0.1767E-01
     -8.215  0.3441E-01  0.2110E-01
     -8.115  0.2748E-01  0.2385E-01
     -8.015  0.2493E-01  0.2634E-01
     -7.915  0.2282E-01  0.2861E-01
     -7.815  0.1846E-01  0.3046E-01
     -7.716  0.1981E-01  0.3243E-01
     -7.616  0.3252E-01  0.3568E-01
     -7.516  0.4017E-01  0.3969E-01
     -7.416  0.3150E-01  0.4283E-01
     -7.317  0.2480E-01  0.4530E-01
     -7.217  0.4123E-01  0.4942E-01
     -7.117  0.4505E-01  0.5391E-01
     -7.017  0.4682E-01  0.5859E-01
     -6.917  0.4103E-01  0.6268E-01
     -6.818  0.3130E-01  0.6581E-01
     -6.718  0.4675E-01  0.7047E-01
     -6.618  0.5099E-01  0.7556E-01
     -6.518  0.4314E-01  0.7987E-01
     -6.418  0.6273E-01  0.8613E-01
     -6.319  0.5156E-01  0.9127E-01
     -6.219  0.3752E-01  0.9502E-01
     -6.119  0.4169E-01  0.9918E-01
     -6.019  0.5178E-01  0.1043E+00
     -5.919  0.5052E-01  0.1094E+00
     -5.820  0.6498E-01  0.1159E+00
     -5.720  0.2587E-01  0.1185E+00
     -5.620  0.1616E-01  0.1201E+00
     -5.520 -0.7026E-03  0.1200E+00
     -5.420  0.4150E-04  0.1200E+00
     -5.321  0.1859E-04  0.1200E+00
     -5.221  0.1319E-06  0.1200E+00
     -5.121  0.9347E-10  0.1200E+00
     -5.021  0.7828E-14  0.1200E+00
     -4.921  0.0000E+00  0.1200E+00
     -4.822  0.0000E+00  0.1200E+00
     -4.722  0.0000E+00  0.1200E+00
     -4.622  0.0000E+00  0.1200E+00
     -4.522  0.0000E+00  0.1200E+00
     -4.422  0.0000E+00  0.1200E+00
     -4.323  0.0000E+00  0.1200E+00
     -4.223  0.0000E+00  0.1200E+00
     -4.123  0.0000E+00  0.1200E+00
     -4.023  0.0000E+00  0.1200E+00
     -3.923  0.0000E+00  0.1200E+00
     -3.824  0.0000E+00  0.1200E+00
     -3.724  0.0000E+00  0.1200E+00
     -3.624  0.0000E+00  0.1200E+00
     -3.524  0.0000E+00  0.1200E+00
     -3.424  0.0000E+00  0.1200E+00
     -3.325  0.0000E+00  0.1200E+00
     -3.225  0.0000E+00  0.1200E+00
     -3.125  0.0000E+00  0.1200E+00
     -3.025  0.0000E+00  0.1200E+00
     -2.925  0.8760E-31  0.1200E+00
     -2.826  0.3581E-24  0.1200E+00
     -2.726  0.1874E-18  0.1200E+00
     -2.626  0.1229E-13  0.1200E+00
     -2.526  0.9649E-10  0.1200E+00
     -2.426  0.8399E-07  0.1200E+00
     -2.327  0.6486E-05  0.1200E+00
     -2.227 -0.1494E-04  0.1200E+00
     -2.127  0.3294E-04  0.1200E+00
     -2.027  0.3916E-02  0.1204E+00
     -1.928  0.6286E-02  0.1210E+00
     -1.828  0.1288E-01  0.1223E+00
     -1.728  0.5878E-02  0.1229E+00
     -1.628  0.9050E-02  0.1238E+00
     -1.528  0.8425E-02  0.1246E+00
     -1.429  0.9261E-02  0.1256E+00
     -1.329  0.8955E-02  0.1265E+00
     -1.229  0.1116E-02  0.1266E+00
     -1.129  0.1031E-01  0.1276E+00
     -1.029  0.1098E-01  0.1287E+00
     -0.930  0.5598E-02  0.1292E+00
     -0.830  0.1475E-01  0.1307E+00
     -0.730  0.2735E-01  0.1335E+00
     -0.630  0.2639E-01  0.1361E+00
     -0.530  0.2472E-01  0.1386E+00
     -0.431  0.3657E-01  0.1422E+00
     -0.331  0.4696E-01  0.1469E+00
     -0.231  0.3990E-01  0.1509E+00
     -0.131  0.4249E-01  0.1551E+00
     -0.031  0.5374E-01  0.1605E+00
      0.068  0.4403E-01  0.1649E+00
      0.168  0.3331E-01  0.1682E+00
      0.268  0.1919E-01  0.1701E+00
      0.368  0.3005E-01  0.1731E+00
      0.468  0.3924E-01  0.1770E+00
      0.567  0.4241E-01  0.1813E+00
      0.667  0.4047E-01  0.1853E+00
      0.767  0.4749E-01  0.1900E+00
      0.867  0.4396E-01  0.1944E+00
      0.967  0.2916E-01  0.1973E+00
      1.066  0.3662E-01  0.2010E+00
      1.166  0.5010E-01  0.2060E+00
      1.266  0.3424E-01  0.2094E+00
      1.366  0.3977E-01  0.2134E+00
      1.466  0.5724E-01  0.2191E+00
      1.565  0.3051E-01  0.2221E+00
      1.665  0.2674E-01  0.2248E+00
      1.765  0.2773E-01  0.2276E+00
      1.865  0.3728E-01  0.2313E+00
      1.965  0.4022E-01  0.2353E+00
      2.064  0.4474E-01  0.2398E+00
      2.164  0.3885E-01  0.2436E+00
      2.264  0.4701E-01  0.2483E+00
      2.364  0.2611E-01  0.2509E+00
      2.464  0.2523E-01  0.2534E+00
      2.563  0.3524E-01  0.2570E+00
      2.663  0.3687E-01  0.2606E+00
      2.763  0.4536E-01  0.2652E+00
      2.863  0.4473E-01  0.2696E+00
      2.963  0.4951E-01  0.2746E+00
      3.062  0.4047E-01  0.2786E+00
      3.162  0.4601E-01  0.2832E+00
      3.262  0.5978E-01  0.2892E+00
      3.362  0.7499E-01  0.2967E+00
      3.462  0.5846E-01  0.3025E+00
      3.561  0.4429E-01  0.3069E+00
      3.661  0.4220E-01  0.3111E+00
      3.761  0.3991E-01  0.3151E+00
      3.861  0.3353E-01  0.3185E+00
      3.960  0.3870E-01  0.3223E+00
      4.060  0.6703E-01  0.3290E+00
      4.160  0.5326E-01  0.3343E+00
      4.260  0.6611E-01  0.3409E+00
      4.360  0.4917E-01  0.3458E+00
      4.459  0.3142E-01  0.3490E+00
      4.559  0.3508E-01  0.3525E+00
      4.659  0.5603E-01  0.3581E+00
      4.759  0.5106E-01  0.3631E+00
      4.859  0.2980E-01  0.3661E+00
      4.958  0.4604E-01  0.3707E+00
      5.058  0.4313E-01  0.3750E+00
      5.158  0.5530E-01  0.3805E+00
      5.258  0.3818E-01  0.3843E+00
      5.358  0.4765E-01  0.3891E+00
      5.457  0.4837E-01  0.3939E+00
      5.557  0.5185E-01  0.3991E+00
      5.657  0.5836E-01  0.4049E+00
      5.757  0.4818E-01  0.4097E+00
      5.857  0.5186E-01  0.4149E+00
      5.956  0.6940E-01  0.4218E+00
      6.056  0.6736E-01  0.4286E+00
      6.156  0.6360E-01  0.4349E+00
      6.256  0.6990E-01  0.4419E+00
      6.356  0.6009E-01  0.4479E+00
      6.455  0.5433E-01  0.4533E+00
      6.555  0.5784E-01  0.4591E+00
      6.655  0.4565E-01  0.4636E+00
      6.755  0.4337E-01  0.4680E+00
      6.855  0.3326E-01  0.4713E+00
      6.954  0.2227E-01  0.4735E+00
      7.054  0.4591E-02  0.4740E+00
      7.154  0.3154E-01  0.4771E+00
      7.254  0.3887E-01  0.4810E+00
      7.354  0.4182E-01  0.4852E+00
      7.453  0.5261E-01  0.4904E+00
      7.553  0.3448E-01  0.4938E+00
      7.653  0.4998E-01  0.4988E+00
      7.753  0.5111E-01  0.5039E+00
      7.853  0.6906E-01  0.5108E+00
      7.952  0.6685E-01  0.5175E+00
      8.052  0.7853E-01  0.5253E+00
      8.152  0.6777E-01  0.5321E+00
      8.252  0.5371E-01  0.5375E+00
      8.352  0.4898E-01  0.5423E+00
      8.451  0.3306E-01  0.5456E+00
      8.551  0.4308E-01  0.5499E+00
      8.651  0.3935E-01  0.5539E+00
      8.751  0.2001E-01  0.5559E+00
      8.851  0.1660E-01  0.5575E+00
      8.950  0.1247E-01  0.5588E+00
      9.050  0.1001E-01  0.5598E+00
      9.150  0.1300E-01  0.5611E+00
      9.250  0.2067E-01  0.5631E+00
      9.349  0.1934E-01  0.5651E+00
      9.449  0.3110E-01  0.5682E+00
      9.549  0.2613E-01  0.5708E+00
      9.649  0.3206E-01  0.5740E+00
      9.749  0.1699E-01  0.5757E+00
      9.848  0.1424E-01  0.5771E+00
      9.948  0.1972E-01  0.5791E+00
     10.048  0.3131E-01  0.5822E+00
     10.148  0.1026E-01  0.5832E+00
     10.248  0.1390E-01  0.5846E+00
     10.347  0.1510E-01  0.5861E+00
     10.447  0.1551E-01  0.5876E+00
     10.547  0.1256E-01  0.5889E+00
     10.647  0.3559E-01  0.5925E+00
     10.747  0.2605E-01  0.5951E+00
     10.846  0.2300E-01  0.5973E+00
     10.946  0.9270E-02  0.5983E+00
     11.046  0.7425E-02  0.5990E+00
     11.146  0.1985E-01  0.6010E+00
     11.246  0.2822E-01  0.6038E+00
     11.345  0.1698E-01  0.6055E+00
     11.445  0.3086E-01  0.6086E+00
     11.545  0.4031E-01  0.6126E+00
     11.645  0.2970E-01  0.6156E+00
     11.745  0.2065E-01  0.6176E+00
     11.844  0.1516E-01  0.6191E+00
     11.944  0.1048E-01  0.6202E+00
     12.044  0.1313E-01  0.6215E+00
     12.144  0.1170E-01  0.6227E+00
     12.244  0.1242E-01  0.6239E+00
     12.343  0.1462E-01  0.6254E+00
     12.443  0.1133E-01  0.6265E+00
     12.543  0.2188E-01  0.6287E+00
     12.643  0.1531E-01  0.6302E+00
     12.743  0.2394E-01  0.6326E+00
     12.842  0.4903E-01  0.6375E+00
     12.942  0.5721E-01  0.6432E+00
     13.042  0.4677E-01  0.6479E+00
     13.142  0.4549E-01  0.6524E+00
     13.242  0.2747E-01  0.6551E+00
     13.341  0.3008E-01  0.6581E+00
     13.441  0.3200E-01  0.6613E+00
     13.541  0.2332E-01  0.6637E+00
     13.641  0.3883E-01  0.6675E+00
     13.741  0.4615E-01  0.6722E+00
     13.840  0.2232E-01  0.6744E+00
     13.940  0.3056E-01  0.6774E+00
     14.040  0.3752E-01  0.6812E+00
     14.140  0.2111E-01  0.6833E+00
     14.240  0.2119E-01  0.6854E+00
     14.339  0.2493E-01  0.6879E+00
     14.439  0.2605E-01  0.6905E+00
     14.539  0.3385E-01  0.6939E+00
     14.639  0.2034E-01  0.6959E+00
     14.739  0.2363E-01  0.6982E+00
     14.838  0.4488E-01  0.7027E+00
     14.938  0.4018E-01  0.7067E+00
     15.038  0.3495E-01  0.7102E+00
     15.138  0.3299E-01  0.7135E+00
     15.237  0.3721E-01  0.7172E+00
     15.337  0.3340E-01  0.7206E+00
     15.437  0.2997E-01  0.7236E+00
     15.537  0.3367E-01  0.7269E+00
     15.637  0.3570E-01  0.7305E+00
     15.736  0.7702E-01  0.7382E+00
     15.836  0.6577E-01  0.7447E+00
     15.936  0.4013E-01  0.7487E+00
     16.036  0.4096E-01  0.7528E+00
     16.136  0.2926E-01  0.7557E+00
     16.235  0.3176E-01  0.7589E+00
     16.335  0.3734E-01  0.7626E+00
     16.435  0.1845E-01  0.7645E+00
     16.535  0.1403E-01  0.7659E+00
     16.635  0.1554E-01  0.7674E+00
     16.734  0.2813E-01  0.7702E+00
     16.834  0.2706E-01  0.7729E+00
     16.934  0.2815E-01  0.7757E+00
     17.034  0.4406E-01  0.7801E+00
     17.134  0.4013E-01  0.7841E+00
     17.233  0.3755E-01  0.7879E+00
     17.333  0.4688E-01  0.7926E+00
     17.433  0.3438E-01  0.7960E+00
     17.533  0.3109E-01  0.7991E+00
     17.633  0.7780E-02  0.7999E+00
     17.732  0.1264E-02  0.8000E+00
     17.832 -0.9070E-04  0.8000E+00
     17.932  0.1754E-04  0.8000E+00
     18.032  0.1210E-05  0.8000E+00
     18.132  0.5719E-08  0.8000E+00
     18.231  0.3077E-11  0.8000E+00
     18.331  0.2010E-15  0.8000E+00
     18.431  0.0000E+00  0.8000E+00
     18.531  0.0000E+00  0.8000E+00
     18.631  0.0000E+00  0.8000E+00
     18.730  0.0000E+00  0.8000E+00
     18.830  0.0000E+00  0.8000E+00
     18.930  0.0000E+00  0.8000E+00
     19.030  0.0000E+00  0.8000E+00
