   14   14  100    1
  0.9415829E+01  0.7563953E-09  0.7563953E-09  0.2660470E-09  0.5000000E-15
  1.000000000000000E-004
  CAR 
 unknown system                          
     62     81     40
 
  0.3742002E-15  0.3742002E-15  0.3742002E-15  0.1200480E-02
    1       -9.548328   1.000000
    2       -8.126812   1.000000
    3       -8.126812   1.000000
    4       -7.423964   1.000000
    5       -7.423964   1.000000
    6       -7.246865   1.000000
    7       -0.903812   1.000000
    8       -0.875786   1.000000
    9       -0.875785   1.000000
   10        0.059655   1.000000
   11        1.515490   1.000000
   12        1.967601   1.000000
   13        1.967601   1.000000
   14        3.898533   1.000000
   15        3.898533   1.000000
   16        5.312500   1.000000
   17        5.374960   1.000000
   18        5.374961   1.000000
   19        6.054955   1.000000
   20        6.288467   1.000000
   21        6.885273   1.000000
   22        6.885273   1.000000
   23        7.484273   1.000000
   24        7.484273   1.000000
   25        7.690181   1.000000
   26        8.583223   1.000000
   27        8.745458   1.000000
   28        8.745458   1.000000
   29       10.836012   1.000000
   30       10.874319   1.000000
   31       10.874319   1.000000
   32       15.623938   0.000000
   33       15.623940   0.000000
   34       15.629612   0.000000
   35       16.501099   0.000000
   36       16.501099   0.000000
   37       16.915131   0.000000
   38       17.142479   0.000000
   39       17.597676   0.000000
   40       17.597678   0.000000
 
  0.1428571E+00  0.3698495E-15  0.3742002E-15  0.7202881E-02
    1       -9.503218   1.000000
    2       -8.237952   1.000000
    3       -8.176745   1.000000
    4       -7.610916   1.000000
    5       -7.346331   1.000000
    6       -6.975265   1.000000
    7       -1.209807   1.000000
    8       -0.879712   1.000000
    9       -0.831566   1.000000
   10        0.381196   1.000000
   11        1.338979   1.000000
   12        1.876287   1.000000
   13        2.108172   1.000000
   14        3.801234   1.000000
   15        3.992149   1.000000
   16        5.099915   1.000000
   17        5.356311   1.000000
   18        5.551615   1.000000
   19        6.312315   1.000000
   20        6.329319   1.000000
   21        6.851646   1.000000
   22        6.876074   1.000000
   23        7.435239   1.000000
   24        7.494636   1.000000
   25        7.745651   1.000000
   26        8.474818   1.000000
   27        8.525535   1.000000
   28        8.721450   1.000000
   29       10.771571   1.000000
   30       11.046837   1.000000
   31       11.101551   1.000000
   32       15.171471   0.000000
   33       15.493265   0.000000
   34       15.731139   0.000000
   35       16.337328   0.000000
   36       16.525166   0.000000
   37       16.947618   0.000000
   38       17.259909   0.000000
   39       17.537971   0.000000
   40       17.581430   0.000000
 
  0.2857143E+00  0.3409951E-15  0.3742002E-15  0.7202881E-02
    1       -9.369982   1.000000
    2       -8.523166   1.000000
    3       -8.264924   1.000000
    4       -7.715576   1.000000
    5       -7.192515   1.000000
    6       -6.676078   1.000000
    7       -1.665422   1.000000
    8       -0.889647   1.000000
    9       -0.627164   1.000000
   10        0.670490   1.000000
   11        1.034735   1.000000
   12        1.685683   1.000000
   13        2.563412   1.000000
   14        3.610066   1.000000
   15        4.008277   1.000000
   16        5.007366   1.000000
   17        5.277228   1.000000
   18        5.828397   1.000000
   19        6.379519   1.000000
   20        6.754960   1.000000
   21        6.761102   1.000000
   22        6.857422   1.000000
   23        7.371723   1.000000
   24        7.518689   1.000000
   25        7.829284   1.000000
   26        7.953387   1.000000
   27        8.155696   1.000000
   28        9.071996   1.000000
   29       10.577343   1.000000
   30       11.336819   1.000000
   31       11.608109   0.999898
   32       14.217507   0.000000
   33       15.235892   0.000000
   34       15.848795   0.000000
   35       16.252185   0.000000
   36       16.552849   0.000000
   37       17.036455   0.000000
   38       17.195742   0.000000
   39       17.352595   0.000000
   40       17.416782   0.000000
 
  0.4285714E+00  0.3442028E-15  0.3742002E-15  0.7202881E-02
    1       -9.162631   1.000000
    2       -8.839114   1.000000
    3       -8.321657   1.000000
    4       -7.746627   1.000000
    5       -7.079339   1.000000
    6       -6.502451   1.000000
    7       -1.934347   1.000000
    8       -0.899184   1.000000
    9       -0.359479   1.000000
   10        0.412106   1.000000
   11        1.071324   1.000000
   12        1.543985   1.000000
   13        3.230878   1.000000
   14        3.482372   1.000000
   15        3.806232   1.000000
   16        4.573821   1.000000
   17        5.649954   1.000000
   18        6.058072   1.000000
   19        6.475725   1.000000
   20        6.644167   1.000000
   21        6.843680   1.000000
   22        6.863068   1.000000
   23        7.340621   1.000000
   24        7.526441   1.000000
   25        7.538782   1.000000
   26        7.880317   1.000000
   27        8.008246   1.000000
   28        9.501718   1.000000
   29       10.293736   1.000000
   30       11.504163   1.000000
   31       12.265809   0.000047
   32       13.208661   0.000000
   33       15.055570   0.000000
   34       16.077240   0.000000
   35       16.236679   0.000000
   36       16.412194   0.000000
   37       17.034296   0.000000
   38       17.146430   0.000000
   39       17.305763   0.000000
   40       17.334871   0.000000
 
  0.1428571E+00  0.1428571E+00  0.3742002E-15  0.7202881E-02
    1       -9.413938   1.000000
    2       -8.362774   1.000000
    3       -8.343362   1.000000
    4       -7.647536   1.000000
    5       -7.265213   1.000000
    6       -6.740026   1.000000
    7       -1.571315   1.000000
    8       -0.853767   1.000000
    9       -0.687305   1.000000
   10        0.578597   1.000000
   11        1.074751   1.000000
   12        1.881517   1.000000
   13        2.324869   1.000000
   14        3.588909   1.000000
   15        4.175725   1.000000
   16        4.971739   1.000000
   17        5.216538   1.000000
   18        5.801440   1.000000
   19        6.357593   1.000000
   20        6.653101   1.000000
   21        6.801544   1.000000
   22        6.848832   1.000000
   23        7.393261   1.000000
   24        7.505938   1.000000
   25        7.809648   1.000000
   26        8.091954   1.000000
   27        8.258877   1.000000
   28        8.954530   1.000000
   29       10.646000   1.000000
   30       11.296259   1.000000
   31       11.422856   1.000000
   32       14.564876   0.000000
   33       15.149292   0.000000
   34       15.817879   0.000000
   35       16.262739   0.000000
   36       16.591948   0.000000
   37       17.008618   0.000000
   38       17.244473   0.000000
   39       17.441652   0.000000
   40       17.528924   0.000000
 
  0.2857143E+00  0.1428571E+00  0.3742002E-15  0.7202881E-02
    1       -9.241070   1.000000
    2       -8.662432   1.000000
    3       -8.445129   1.000000
    4       -7.623707   1.000000
    5       -7.174745   1.000000
    6       -6.525896   1.000000
    7       -1.907620   1.000000
    8       -0.785258   1.000000
    9       -0.429971   1.000000
   10        0.435694   1.000000
   11        0.758762   1.000000
   12        2.031276   1.000000
   13        2.798618   1.000000
   14        3.353972   1.000000
   15        4.244068   1.000000
   16        4.702913   1.000000
   17        5.235047   1.000000
   18        6.101635   1.000000
   19        6.440496   1.000000
   20        6.708844   1.000000
   21        6.812102   1.000000
   22        6.838473   1.000000
   23        7.371785   1.000000
   24        7.515546   1.000000
   25        7.832159   1.000000
   26        7.870666   1.000000
   27        7.901132   1.000000
   28        9.356607   1.000000
   29       10.402716   1.000000
   30       11.591019   0.999960
   31       11.884353   0.912172
   32       13.652006   0.000000
   33       14.780916   0.000000
   34       15.979875   0.000000
   35       16.243489   0.000000
   36       16.646273   0.000000
   37       16.991240   0.000000
   38       17.114537   0.000000
   39       17.326967   0.000000
   40       17.469269   0.000000
 
  0.4285714E+00  0.1428571E+00  0.3742002E-15  0.7202881E-02
    1       -9.047503   1.000000
    2       -8.912273   1.000000
    3       -8.477967   1.000000
    4       -7.613212   1.000000
    5       -7.131905   1.000000
    6       -6.445116   1.000000
    7       -2.035084   1.000000
    8       -0.741737   1.000000
    9       -0.232454   1.000000
   10        0.240786   1.000000
   11        0.613685   1.000000
   12        2.082688   1.000000
   13        3.115228   1.000000
   14        3.454306   1.000000
   15        3.965714   1.000000
   16        4.494545   1.000000
   17        5.449334   1.000000
   18        6.205424   1.000000
   19        6.515490   1.000000
   20        6.625965   1.000000
   21        6.796625   1.000000
   22        6.819157   1.000000
   23        7.366717   1.000000
   24        7.519213   1.000000
   25        7.572461   1.000000
   26        7.893347   1.000000
   27        7.953036   1.000000
   28        9.661816   1.000000
   29       10.175996   1.000000
   30       11.649515   0.999299
   31       12.479172   0.000000
   32       12.872228   0.000000
   33       14.682974   0.000000
   34       16.167481   0.000000
   35       16.237086   0.000000
   36       16.438218   0.000000
   37       16.952545   0.000000
   38       17.193450   0.000000
   39       17.289748   0.000000
   40       17.359871   0.000000
 
 -0.4285714E+00  0.1428571E+00  0.3742002E-15  0.7202881E-02
    1       -9.241021   1.000000
    2       -8.662405   1.000000
    3       -8.445221   1.000000
    4       -7.623752   1.000000
    5       -7.174686   1.000000
    6       -6.525943   1.000000
    7       -1.907578   1.000000
    8       -0.781024   1.000000
    9       -0.438792   1.000000
   10        0.449968   1.000000
   11        0.750567   1.000000
   12        2.027756   1.000000
   13        2.773477   1.000000
   14        3.418992   1.000000
   15        4.214546   1.000000
   16        4.638699   1.000000
   17        5.292919   1.000000
   18        6.125739   1.000000
   19        6.440629   1.000000
   20        6.708048   1.000000
   21        6.812711   1.000000
   22        6.828717   1.000000
   23        7.372271   1.000000
   24        7.515819   1.000000
   25        7.684382   1.000000
   26        7.870565   1.000000
   27        8.032681   1.000000
   28        9.362306   1.000000
   29       10.398729   1.000000
   30       11.534380   0.999999
   31       11.954496   0.251694
   32       13.603887   0.000000
   33       14.827554   0.000000
   34       15.989559   0.000000
   35       16.275322   0.000000
   36       16.530143   0.000000
   37       17.043152   0.000000
   38       17.111961   0.000000
   39       17.338897   0.000000
   40       17.432998   0.000000
 
  0.2857143E+00  0.2857143E+00  0.3742002E-15  0.7202881E-02
    1       -9.038211   1.000000
    2       -8.782627   1.000000
    3       -8.687318   1.000000
    4       -7.445686   1.000000
    5       -7.249502   1.000000
    6       -6.414112   1.000000
    7       -2.092888   1.000000
    8       -0.495347   1.000000
    9       -0.160213   1.000000
   10        0.052940   1.000000
   11        0.320109   1.000000
   12        2.689871   1.000000
   13        2.818356   1.000000
   14        3.224048   1.000000
   15        4.162691   1.000000
   16        4.679154   1.000000
   17        5.093398   1.000000
   18        6.230560   1.000000
   19        6.519907   1.000000
   20        6.672131   1.000000
   21        6.727830   1.000000
   22        6.829977   1.000000
   23        7.413359   1.000000
   24        7.480423   1.000000
   25        7.748852   1.000000
   26        7.839187   1.000000
   27        7.900243   1.000000
   28        9.730385   1.000000
   29       10.133617   1.000000
   30       11.854053   1.034304
   31       12.281688   0.000019
   32       12.939072   0.000000
   33       14.381453   0.000000
   34       16.133274   0.000000
   35       16.275570   0.000000
   36       16.475551   0.000000
   37       16.855088   0.000000
   38       17.217099   0.000000
   39       17.262361   0.000000
   40       17.348086   0.000000
 
  0.3742002E-15  0.3742002E-15  0.5882353E-01  0.2400960E-02
    1       -9.494820   1.000000
    2       -8.080132   1.000000
    3       -8.080132   1.000000
    4       -7.379679   1.000000
    5       -7.379679   1.000000
    6       -7.206818   1.000000
    7       -0.843786   1.000000
    8       -0.832372   1.000000
    9       -0.832372   1.000000
   10        0.112386   1.000000
   11        1.541784   1.000000
   12        2.002056   1.000000
   13        2.002056   1.000000
   14        3.945629   1.000000
   15        3.945629   1.000000
   16        5.325870   1.000000
   17        5.381965   1.000000
   18        5.381965   1.000000
   19        6.006933   1.000000
   20        6.048499   1.000000
   21        6.621682   1.000000
   22        6.621682   1.000000
   23        7.212983   1.000000
   24        7.212983   1.000000
   25        7.314753   1.000000
   26        8.764079   1.000000
   27        8.764079   1.000000
   28        8.789173   1.000000
   29       10.767314   1.000000
   30       10.971132   1.000000
   31       10.971133   1.000000
   32       15.511800   0.000000
   33       15.731381   0.000000
   34       15.731381   0.000000
   35       16.071925   0.000000
   36       16.071925   0.000000
   37       16.625586   0.000000
   38       16.861674   0.000000
   39       17.279565   0.000000
   40       17.279569   0.000000
 
  0.1428571E+00  0.3698495E-15  0.5882353E-01  0.1440576E-01
    1       -9.449680   1.000000
    2       -8.190364   1.000000
    3       -8.129427   1.000000
    4       -7.566652   1.000000
    5       -7.302884   1.000000
    6       -6.936113   1.000000
    7       -1.160283   1.000000
    8       -0.835086   1.000000
    9       -0.771926   1.000000
   10        0.428518   1.000000
   11        1.371255   1.000000
   12        1.911641   1.000000
   13        2.140978   1.000000
   14        3.848563   1.000000
   15        4.027241   1.000000
   16        5.118966   1.000000
   17        5.346520   1.000000
   18        5.554043   1.000000
   19        6.039438   1.000000
   20        6.326601   1.000000
   21        6.588950   1.000000
   22        6.613019   1.000000
   23        7.127311   1.000000
   24        7.237739   1.000000
   25        7.438657   1.000000
   26        8.509663   1.000000
   27        8.566441   1.000000
   28        8.896018   1.000000
   29       10.713426   1.000000
   30       11.122163   1.000000
   31       11.177953   1.000000
   32       15.243325   0.000000
   33       15.554173   0.000000
   34       15.597466   0.000000
   35       16.031950   0.000000
   36       16.144880   0.000000
   37       16.746789   0.000000
   38       16.930276   0.000000
   39       17.132320   0.000000
   40       17.275408   0.000000
 
  0.2857143E+00  0.3409951E-15  0.5882353E-01  0.1440576E-01
    1       -9.316926   1.000000
    2       -8.473787   1.000000
    3       -8.216784   1.000000
    4       -7.671101   1.000000
    5       -7.150889   1.000000
    6       -6.639554   1.000000
    7       -1.610659   1.000000
    8       -0.842092   1.000000
    9       -0.568579   1.000000
   10        0.716510   1.000000
   11        1.073656   1.000000
   12        1.721252   1.000000
   13        2.589442   1.000000
   14        3.657847   1.000000
   15        4.029249   1.000000
   16        4.993442   1.000000
   17        5.268980   1.000000
   18        5.821101   1.000000
   19        6.135203   1.000000
   20        6.421746   1.000000
   21        6.605301   1.000000
   22        6.776383   1.000000
   23        7.110860   1.000000
   24        7.285373   1.000000
   25        7.575286   1.000000
   26        8.004589   1.000000
   27        8.194176   1.000000
   28        9.197108   1.000000
   29       10.541553   1.000000
   30       11.375365   1.000000
   31       11.659161   0.998977
   32       14.281431   0.000000
   33       15.306264   0.000000
   34       15.607442   0.000000
   35       15.994074   0.000000
   36       16.236282   0.000000
   37       16.799780   0.000000
   38       17.021655   0.000000
   39       17.063462   0.000000
   40       17.349294   0.000000
 
  0.4285714E+00  0.3442028E-15  0.5882353E-01  0.1440576E-01
    1       -9.110272   1.000000
    2       -8.788273   1.000000
    3       -8.273186   1.000000
    4       -7.702140   1.000000
    5       -7.039268   1.000000
    6       -6.467644   1.000000
    7       -1.877002   1.000000
    8       -0.849073   1.000000
    9       -0.302909   1.000000
   10        0.463763   1.000000
   11        1.109511   1.000000
   12        1.579021   1.000000
   13        3.248679   1.000000
   14        3.528607   1.000000
   15        3.821387   1.000000
   16        4.574049   1.000000
   17        5.569474   1.000000
   18        6.022317   1.000000
   19        6.255727   1.000000
   20        6.317229   1.000000
   21        6.625199   1.000000
   22        6.911101   1.000000
   23        7.093434   1.000000
   24        7.315358   1.000000
   25        7.566450   1.000000
   26        7.677568   1.000000
   27        8.025766   1.000000
   28        9.570023   1.000000
   29       10.288237   1.000000
   30       11.518343   1.000000
   31       12.305088   0.000004
   32       13.268315   0.000000
   33       15.123784   0.000000
   34       15.702897   0.000000
   35       15.948271   0.000000
   36       16.234717   0.000000
   37       16.717060   0.000000
   38       17.074322   0.000000
   39       17.138214   0.000000
   40       17.461593   0.000000
 
  0.1428571E+00  0.1428571E+00  0.5882353E-01  0.1440576E-01
    1       -9.360624   1.000000
    2       -8.314336   1.000000
    3       -8.294859   1.000000
    4       -7.603587   1.000000
    5       -7.222844   1.000000
    6       -6.702860   1.000000
    7       -1.517729   1.000000
    8       -0.806888   1.000000
    9       -0.629087   1.000000
   10        0.624419   1.000000
   11        1.113690   1.000000
   12        1.914394   1.000000
   13        2.354933   1.000000
   14        3.635407   1.000000
   15        4.195806   1.000000
   16        4.979847   1.000000
   17        5.210583   1.000000
   18        5.781397   1.000000
   19        6.113154   1.000000
   20        6.496566   1.000000
   21        6.531906   1.000000
   22        6.723099   1.000000
   23        7.109206   1.000000
   24        7.264210   1.000000
   25        7.545859   1.000000
   26        8.132671   1.000000
   27        8.306434   1.000000
   28        9.096673   1.000000
   29       10.600796   1.000000
   30       11.348587   1.000000
   31       11.474970   1.000000
   32       14.633906   0.000000
   33       15.206230   0.000000
   34       15.595460   0.000000
   35       16.043438   0.000000
   36       16.227520   0.000000
   37       16.792506   0.000000
   38       17.032643   0.000000
   39       17.078978   0.000000
   40       17.345878   0.000000
 
  0.2857143E+00  0.1428571E+00  0.5882353E-01  0.1440576E-01
    1       -9.188348   1.000000
    2       -8.612273   1.000000
    3       -8.396090   1.000000
    4       -7.580000   1.000000
    5       -7.133693   1.000000
    6       -6.490764   1.000000
    7       -1.850759   1.000000
    8       -0.736424   1.000000
    9       -0.373117   1.000000
   10        0.485064   1.000000
   11        0.802638   1.000000
   12        2.060458   1.000000
   13        2.823288   1.000000
   14        3.396704   1.000000
   15        4.255313   1.000000
   16        4.697349   1.000000
   17        5.226572   1.000000
   18        6.008537   1.000000
   19        6.257074   1.000000
   20        6.381512   1.000000
   21        6.555826   1.000000
   22        6.874766   1.000000
   23        7.140397   1.000000
   24        7.285248   1.000000
   25        7.643724   1.000000
   26        7.867667   1.000000
   27        7.947337   1.000000
   28        9.444701   1.000000
   29       10.383524   1.000000
   30       11.599509   0.999936
   31       11.939756   0.396554
   32       13.711184   0.000000
   33       14.841944   0.000000
   34       15.669612   0.000000
   35       16.003385   0.000000
   36       16.279998   0.000000
   37       16.694879   0.000000
   38       17.167631   0.000000
   39       17.194744   0.000000
   40       17.521243   0.000000
 
  0.4285714E+00  0.1428571E+00  0.5882353E-01  0.1440576E-01
    1       -8.995426   1.000000
    2       -8.861057   1.000000
    3       -8.428610   1.000000
    4       -7.569437   1.000000
    5       -7.091393   1.000000
    6       -6.410719   1.000000
    7       -1.977037   1.000000
    8       -0.691542   1.000000
    9       -0.177479   1.000000
   10        0.294301   1.000000
   11        0.658026   1.000000
   12        2.111288   1.000000
   13        3.158059   1.000000
   14        3.461628   1.000000
   15        3.987705   1.000000
   16        4.500134   1.000000
   17        5.402469   1.000000
   18        6.085357   1.000000
   19        6.261895   1.000000
   20        6.407117   1.000000
   21        6.575801   1.000000
   22        6.885717   1.000000
   23        7.091223   1.000000
   24        7.290434   1.000000
   25        7.625150   1.000000
   26        7.695388   1.000000
   27        7.979924   1.000000
   28        9.712616   1.000000
   29       10.182355   1.000000
   30       11.655113   0.999124
   31       12.516263   0.000000
   32       12.940146   0.000000
   33       14.742684   0.000000
   34       15.754364   0.000000
   35       15.927417   0.000000
   36       16.260354   0.000000
   37       16.671600   0.000000
   38       17.225931   0.000000
   39       17.270785   0.000000
   40       17.474678   0.000000
 
 -0.4285714E+00  0.1428571E+00  0.5882353E-01  0.1440576E-01
    1       -9.188373   1.000000
    2       -8.612223   1.000000
    3       -8.396133   1.000000
    4       -7.580012   1.000000
    5       -7.133693   1.000000
    6       -6.490769   1.000000
    7       -1.850861   1.000000
    8       -0.731916   1.000000
    9       -0.382435   1.000000
   10        0.500196   1.000000
   11        0.793909   1.000000
   12        2.056986   1.000000
   13        2.799878   1.000000
   14        3.458650   1.000000
   15        4.229640   1.000000
   16        4.634521   1.000000
   17        5.279631   1.000000
   18        6.016129   1.000000
   19        6.247923   1.000000
   20        6.424628   1.000000
   21        6.528505   1.000000
   22        6.892377   1.000000
   23        7.120548   1.000000
   24        7.284920   1.000000
   25        7.637637   1.000000
   26        7.740747   1.000000
   27        8.068299   1.000000
   28        9.449236   1.000000
   29       10.380742   1.000000
   30       11.559587   0.999994
   31       11.990636   0.009719
   32       13.669839   0.000000
   33       14.884842   0.000000
   34       15.669774   0.000000
   35       16.010718   0.000000
   36       16.253582   0.000000
   37       16.708344   0.000000
   38       17.155416   0.000000
   39       17.199199   0.000000
   40       17.475549   0.000000
 
  0.2857143E+00  0.2857143E+00  0.5882353E-01  0.1440576E-01
    1       -8.986302   1.000000
    2       -8.731776   1.000000
    3       -8.637203   1.000000
    4       -7.403123   1.000000
    5       -7.208180   1.000000
    6       -6.380015   1.000000
    7       -2.034714   1.000000
    8       -0.445956   1.000000
    9       -0.109707   1.000000
   10        0.107685   1.000000
   11        0.370410   1.000000
   12        2.708326   1.000000
   13        2.856139   1.000000
   14        3.245976   1.000000
   15        4.175997   1.000000
   16        4.675306   1.000000
   17        5.079020   1.000000
   18        6.104372   1.000000
   19        6.312677   1.000000
   20        6.406269   1.000000
   21        6.501758   1.000000
   22        6.887805   1.000000
   23        7.143325   1.000000
   24        7.239632   1.000000
   25        7.700775   1.000000
   26        7.801746   1.000000
   27        7.882296   1.000000
   28        9.774440   1.000000
   29       10.139144   1.000000
   30       11.838148   1.051019
   31       12.342902   0.000000
   32       13.005839   0.000000
   33       14.434676   0.000000
   34       15.776850   0.000000
   35       15.926245   0.000000
   36       16.225078   0.000000
   37       16.620202   0.000000
   38       17.270417   0.000000
   39       17.414336   0.000000
   40       17.491680   0.000000
 
  0.3742002E-15  0.3742002E-15  0.1176471E+00  0.2400960E-02
    1       -9.334959   1.000000
    2       -7.941402   1.000000
    3       -7.941402   1.000000
    4       -7.248991   1.000000
    5       -7.248991   1.000000
    6       -7.089813   1.000000
    7       -0.706623   1.000000
    8       -0.706623   1.000000
    9       -0.664434   1.000000
   10        0.270401   1.000000
   11        1.603511   1.000000
   12        2.096495   1.000000
   13        2.096495   1.000000
   14        4.086774   1.000000
   15        4.086775   1.000000
   16        5.310408   1.000000
   17        5.337784   1.000000
   18        5.385861   1.000000
   19        5.385862   1.000000
   20        5.907005   1.000000
   21        5.951962   1.000000
   22        5.951962   1.000000
   23        6.564525   1.000000
   24        6.564525   1.000000
   25        6.728141   1.000000
   26        8.793875   1.000000
   27        8.793875   1.000000
   28        9.090668   1.000000
   29       10.509215   1.000000
   30       11.186751   1.000000
   31       11.186751   1.000000
   32       14.898021   0.000000
   33       14.966334   0.000000
   34       14.966334   0.000000
   35       15.558388   0.000000
   36       15.962089   0.000000
   37       15.962089   0.000000
   38       17.101308   0.000000
   39       17.101308   0.000000
   40       17.320203   0.000000
 
  0.1428571E+00  0.3698495E-15  0.1176471E+00  0.1440576E-01
    1       -9.290325   1.000000
    2       -8.049051   1.000000
    3       -7.989224   1.000000
    4       -7.436677   1.000000
    5       -7.175147   1.000000
    6       -6.822142   1.000000
    7       -1.015038   1.000000
    8       -0.705562   1.000000
    9       -0.593804   1.000000
   10        0.567376   1.000000
   11        1.454473   1.000000
   12        2.007654   1.000000
   13        2.229406   1.000000
   14        3.988913   1.000000
   15        4.110851   1.000000
   16        5.111610   1.000000
   17        5.293965   1.000000
   18        5.398788   1.000000
   19        5.533839   1.000000
   20        5.891451   1.000000
   21        5.967010   1.000000
   22        6.223041   1.000000
   23        6.426491   1.000000
   24        6.612285   1.000000
   25        6.943804   1.000000
   26        8.566961   1.000000
   27        8.625123   1.000000
   28        9.173461   1.000000
   29       10.479636   1.000000
   30       11.287851   1.000000
   31       11.351190   1.000000
   32       14.863213   0.000000
   33       14.950523   0.000000
   34       15.035005   0.000000
   35       15.494247   0.000000
   36       15.680626   0.000000
   37       15.809675   0.000000
   38       16.992098   0.000000
   39       17.153393   0.000000
   40       17.388777   0.000000
 
  0.2857143E+00  0.3409951E-15  0.1176471E+00  0.1440576E-01
    1       -9.158997   1.000000
    2       -8.327290   1.000000
    3       -8.074186   1.000000
    4       -7.540294   1.000000
    5       -7.028861   1.000000
    6       -6.533380   1.000000
    7       -1.448269   1.000000
    8       -0.703701   1.000000
    9       -0.394040   1.000000
   10        0.849696   1.000000
   11        1.183340   1.000000
   12        1.818956   1.000000
   13        2.656281   1.000000
   14        3.800039   1.000000
   15        4.055586   1.000000
   16        4.893587   1.000000
   17        5.120969   1.000000
   18        5.632127   1.000000
   19        5.676204   1.000000
   20        5.776265   1.000000
   21        6.101368   1.000000
   22        6.326451   1.000000
   23        6.639836   1.000000
   24        6.707426   1.000000
   25        7.246020   1.000000
   26        8.087175   1.000000
   27        8.265423   1.000000
   28        9.406856   1.000000
   29       10.376576   1.000000
   30       11.447418   1.000000
   31       11.777790   1.009434
   32       14.439407   0.000000
   33       14.810986   0.000000
   34       14.924588   0.000000
   35       15.221219   0.000000
   36       15.492071   0.000000
   37       16.044623   0.000000
   38       16.829567   0.000000
   39       17.259847   0.000000
   40       17.475941   0.000000
 
  0.4285714E+00  0.3442028E-15  0.1176471E+00  0.1440576E-01
    1       -8.954786   1.000000
    2       -8.637154   1.000000
    3       -8.129288   1.000000
    4       -7.571142   1.000000
    5       -6.921714   1.000000
    6       -6.366775   1.000000
    7       -1.706136   1.000000
    8       -0.702820   1.000000
    9       -0.134963   1.000000
   10        0.615528   1.000000
   11        1.218570   1.000000
   12        1.675694   1.000000
   13        3.284328   1.000000
   14        3.666343   1.000000
   15        3.841811   1.000000
   16        4.542936   1.000000
   17        5.118400   1.000000
   18        5.561348   1.000000
   19        5.712733   1.000000
   20        5.991873   1.000000
   21        6.315760   1.000000