       N       E                     dE             d eps       ncg     rms          rms(c)
DAV:   1     0.238944232238E+03    0.23894E+03   -0.26481E+04  6512   0.117E+03
DAV:   2    -0.834542349212E+02   -0.32240E+03   -0.30941E+03  8112   0.255E+02
DAV:   3    -0.102944549659E+03   -0.19490E+02   -0.19175E+02  8088   0.664E+01
DAV:   4    -0.103338631389E+03   -0.39408E+00   -0.39249E+00  8312   0.976E+00
DAV:   5    -0.103346453296E+03   -0.78219E-02   -0.78180E-02  8176   0.131E+00    0.282E+01
RMM:   6    -0.928349642864E+02    0.10511E+02   -0.43361E+01  6480   0.247E+01    0.133E+01
RMM:   7    -0.923051597533E+02    0.52980E+00   -0.21521E+00  6506   0.529E+00    0.693E+00
RMM:   8    -0.921833591528E+02    0.12180E+00   -0.71877E-01  6501   0.280E+00    0.791E-01
RMM:   9    -0.921839206017E+02   -0.56145E-03   -0.95381E-02  6511   0.118E+00    0.524E-01
RMM:  10    -0.921821765421E+02    0.17441E-02   -0.96068E-03  6500   0.420E-01    0.191E-01
RMM:  11    -0.921834408881E+02   -0.12643E-02   -0.57283E-03  6485   0.294E-01    0.125E-01
RMM:  12    -0.921830543581E+02    0.38653E-03   -0.96089E-04  6447   0.126E-01    0.321E-02
RMM:  13    -0.921830851947E+02   -0.30837E-04   -0.17938E-04  4049   0.568E-02
   1 F= -.92183085E+02 E0= -.92182961E+02  d E =-.921831E+02
       N       E                     dE             d eps       ncg     rms          rms(c)
DAV:   1    -0.921493293528E+02    0.33725E-01   -0.44863E+01  6800   0.377E+01    0.192E+00
RMM:   2    -0.921686004216E+02   -0.19271E-01   -0.80304E-01  6480   0.430E+00    0.980E-01
RMM:   3    -0.921554536278E+02    0.13147E-01   -0.66997E-02  6543   0.107E+00    0.673E-01
RMM:   4    -0.921530674001E+02    0.23862E-02   -0.15773E-02  6551   0.505E-01    0.269E-01
RMM:   5    -0.921531855715E+02   -0.11817E-03   -0.94613E-04  6375   0.120E-01    0.463E-02
RMM:   6    -0.921531957380E+02   -0.10166E-04   -0.57209E-05  3960   0.366E-02
   2 F= -.92153196E+02 E0= -.92152911E+02  d E =0.298895E-01
       N       E                     dE             d eps       ncg     rms          rms(c)
DAV:   1    -0.922854735898E+02   -0.13229E+00   -0.12734E+01  6616   0.200E+01    0.915E-01
RMM:   2    -0.922922601565E+02   -0.67866E-02   -0.22055E-01  6480   0.229E+00    0.495E-01
RMM:   3    -0.922871462951E+02    0.51139E-02   -0.24295E-02  6526   0.644E-01    0.242E-01
RMM:   4    -0.922868712674E+02    0.27503E-03   -0.35054E-03  6631   0.233E-01    0.119E-01
RMM:   5    -0.922868809249E+02   -0.96575E-05   -0.28369E-04  4162   0.739E-02
   3 F= -.92286881E+02 E0= -.92286708E+02  d E =-.103796E+00
       N       E                     dE             d eps       ncg     rms          rms(c)
DAV:   1    -0.922999666044E+02   -0.13095E-01   -0.60897E+00  6768   0.136E+01    0.621E-01
RMM:   2    -0.923060287241E+02   -0.60621E-02   -0.11918E-01  6482   0.161E+00    0.310E-01
RMM:   3    -0.923043947734E+02    0.16340E-02   -0.69966E-03  6587   0.353E-01    0.195E-01
RMM:   4    -0.923040195927E+02    0.37518E-03   -0.16240E-03  6498   0.170E-01    0.664E-02
RMM:   5    -0.923040226030E+02   -0.30104E-05   -0.59987E-05  3950   0.352E-02
   4 F= -.92304023E+02 E0= -.92303919E+02  d E =-.171417E-01
       N       E                     dE             d eps       ncg     rms          rms(c)
DAV:   1    -0.923055214562E+02   -0.15019E-02   -0.30975E-01  7568   0.306E+00    0.131E-01
RMM:   2    -0.923058088031E+02   -0.28735E-03   -0.58034E-03  6482   0.356E-01    0.693E-02
RMM:   3    -0.923057156622E+02    0.93141E-04   -0.32730E-04  4458   0.803E-02
   5 F= -.92305716E+02 E0= -.92305594E+02  d E =-.188347E-01
       N       E                     dE             d eps       ncg     rms          rms(c)
DAV:   1    -0.923135686812E+02   -0.77599E-02   -0.47262E+00  6576   0.120E+01    0.671E-01
RMM:   2    -0.923192439036E+02   -0.56752E-02   -0.93498E-02  6484   0.151E+00    0.218E-01
RMM:   3    -0.923182946321E+02    0.94927E-03   -0.45574E-03  6620   0.287E-01    0.137E-01
RMM:   4    -0.923180702268E+02    0.22441E-03   -0.89285E-04  6258   0.130E-01    0.548E-02
RMM:   5    -0.923180677470E+02    0.24798E-05   -0.58464E-05  3947   0.343E-02
   6 F= -.92318068E+02 E0= -.92318001E+02  d E =-.123521E-01
       N       E                     dE             d eps       ncg     rms          rms(c)
DAV:   1    -0.923180728192E+02   -0.25923E-05   -0.10021E-02  7784   0.548E-01    0.297E-02
RMM:   2    -0.923180847410E+02   -0.11922E-04   -0.16694E-04  3742   0.668E-02
   7 F= -.92318085E+02 E0= -.92318022E+02  d E =-.123691E-01
