 vasp.5.4.4.18Apr17-6-g9f103f2a35 (build Nov 01 2019 12:17:22) complex          
  
 executed on             LinuxIFC date 2023.05.19  18:18:47
 running on   16 total cores
 distrk:  each k-point on   16 cores,    1 groups
 distr:  one band on NCORES_PER_BAND=   4 cores,    4 groups


--------------------------------------------------------------------------------------------------------


 INCAR:
 POTCAR:    PAW_PBE N 08Apr2002                   
 POTCAR:    PAW_PBE Si 05Jan2001                  
 POTCAR:    PAW_PBE N 08Apr2002                   
   VRHFIN =N: s2p3                                                              
   LEXCH  = PE                                                                  
   EATOM  =   264.5486 eV,   19.4438 Ry                                         
                                                                                
   TITEL  = PAW_PBE N 08Apr2002                                                 
   LULTRA =        F    use ultrasoft PP ?                                      
   IUNSCR =        1    unscreen: 0-lin 1-nonlin 2-no                           
   RPACOR =    1.200    partial core radius                                     
   POMASS =   14.001; ZVAL   =    5.000    mass and valenz                      
   RCORE  =    1.500    outmost cutoff radius                                   
   RWIGS  =    1.400; RWIGS  =    0.741    wigner-seitz radius (au A)           
   ENMAX  =  400.000; ENMIN  =  300.000 eV                                      
   ICORE  =        2    local potential                                         
   LCOR   =        T    correct aug charges                                     
   LPAW   =        T    paw PP                                                  
   EAUG   =  627.112                                                            
   DEXC   =    0.000                                                            
   RMAX   =    1.529    core radius for proj-oper                               
   RAUG   =    1.300    factor for augmentation sphere                          
   RDEP   =    1.514    radius for radial grids                                 
   RDEPT  =    1.338    core radius for aug-charge                              
                                                                                
   Atomic configuration                                                         
    4 entries                                                                   
     n  l   j            E        occ.                                          
     1  0  0.50      -384.7179   2.0000                                         
     2  0  0.50       -18.5828   2.0000                                         
     2  1  0.50        -7.0898   3.0000                                         
     3  2  1.50        -6.8029   0.0000                                         
   Description                                                                  
     l       E           TYP  RCUT    TYP  RCUT                                 
     0    -18.5828119     23  1.200                                             
     0    -13.5018863     23  1.200                                             
     1     -7.0897853     23  1.500                                             
     1      9.5240782     23  1.500                                             
     2     -6.8029130      7  1.500                                             
  local pseudopotential read in
  partial core-charges read in
  partial kinetic energy density read in
  atomic valenz-charges read in
  non local Contribution for L=           0  read in
    real space projection operators read in
  non local Contribution for L=           0  read in
    real space projection operators read in
  non local Contribution for L=           1  read in
    real space projection operators read in
  non local Contribution for L=           1  read in
    real space projection operators read in
    PAW grid and wavefunctions read in
 
   number of l-projection  operators is LMAX  =           4
   number of lm-projection operators is LMMAX =           8
 
 POTCAR:    PAW_PBE Si 05Jan2001                  
   VRHFIN =Si: s2p2                                                             
   LEXCH  = PE                                                                  
   EATOM  =   103.0669 eV,    7.5752 Ry                                         
                                                                                
   TITEL  = PAW_PBE Si 05Jan2001                                                
   LULTRA =        F    use ultrasoft PP ?                                      
   IUNSCR =        1    unscreen: 0-lin 1-nonlin 2-no                           
   RPACOR =    1.500    partial core radius                                     
   POMASS =   28.085; ZVAL   =    4.000    mass and valenz                      
   RCORE  =    1.900    outmost cutoff radius                                   
   RWIGS  =    2.480; RWIGS  =    1.312    wigner-seitz radius (au A)           
   ENMAX  =  245.345; ENMIN  =  184.009 eV                                      
   ICORE  =        2    local potential                                         
   LCOR   =        T    correct aug charges                                     
   LPAW   =        T    paw PP                                                  
   EAUG   =  322.069                                                            
   DEXC   =    0.000                                                            
   RMAX   =    1.950    core radius for proj-oper                               
   RAUG   =    1.300    factor for augmentation sphere                          
   RDEP   =    1.993    radius for radial grids                                 
   RDEPT  =    1.837    core radius for aug-charge                              
                                                                                
   Atomic configuration                                                         
    6 entries                                                                   
     n  l   j            E        occ.                                          
     1  0  0.50     -1785.8828   2.0000                                         
     2  0  0.50      -139.4969   2.0000                                         
     2  1  1.50       -95.5546   6.0000                                         
     3  0  0.50       -10.8127   2.0000                                         
     3  1  0.50        -4.0811   2.0000                                         
     3  2  1.50        -4.0817   0.0000                                         
   Description                                                                  
     l       E           TYP  RCUT    TYP  RCUT                                 
     0    -10.8127223     23  1.900                                             
     0     -7.6451159     23  1.900                                             
     1     -4.0811372     23  1.900                                             
     1      2.4879257     23  1.900                                             
     2     -4.0817478      7  1.900                                             
  local pseudopotential read in
  partial core-charges read in
  partial kinetic energy density read in
  atomic valenz-charges read in
  non local Contribution for L=           0  read in
    real space projection operators read in
  non local Contribution for L=           0  read in
    real space projection operators read in
  non local Contribution for L=           1  read in
    real space projection operators read in
  non local Contribution for L=           1  read in
    real space projection operators read in
    PAW grid and wavefunctions read in
 
   number of l-projection  operators is LMAX  =           4
   number of lm-projection operators is LMMAX =           8
 
 Optimization of the real space projectors (new method)

 maximal supplied QI-value         = 25.13
 optimisation between [QCUT,QGAM] = [ 10.05, 20.36] = [ 28.30,116.06] Ry 
 Optimized for a Real-space Cutoff    1.70 Angstroem

   l    n(q)    QCUT    max X(q) W(low)/X(q) W(high)/X(q)  e(spline) 
   0     10    10.053    79.467    0.61E-04    0.98E-04    0.61E-06
   0     10    10.053    66.151    0.60E-04    0.98E-04    0.61E-06
   1     10    10.053     8.350    0.17E-03    0.71E-03    0.45E-05
   1     10    10.053     5.531    0.18E-03    0.77E-03    0.49E-05
 Optimization of the real space projectors (new method)

 maximal supplied QI-value         = 19.84
 optimisation between [QCUT,QGAM] = [ 10.12, 20.44] = [ 28.68,116.96] Ry 
 Optimized for a Real-space Cutoff    1.38 Angstroem

   l    n(q)    QCUT    max X(q) W(low)/X(q) W(high)/X(q)  e(spline) 
   0      8    10.119   159.560    0.58E-04    0.11E-03    0.54E-07
   0      8    10.119   115.863    0.56E-04    0.11E-03    0.54E-07
   1      8    10.119    88.339    0.22E-03    0.17E-03    0.19E-06
   1      8    10.119    48.592    0.22E-03    0.17E-03    0.18E-06
  PAW_PBE N 08Apr2002                   :
 energy of atom  1       EATOM= -264.5486
 kinetic energy error for atom=    0.0736 (will be added to EATOM!!)
  PAW_PBE Si 05Jan2001                  :
 energy of atom  2       EATOM= -103.0669
 kinetic energy error for atom=    0.0012 (will be added to EATOM!!)
 
 
 POSCAR: Si6 N8                                  
  positions in direct lattice
  No initial velocities read in
 exchange correlation table for  LEXCH =        8
   RHO(1)=    0.500       N(1)  =     2000
   RHO(2)=  100.500       N(2)  =     4000
 


--------------------------------------------------------------------------------------------------------


 ion  position               nearest neighbor table
   1  0.197  0.832  0.750-   9 1.71  10 1.72  10 1.72   7 1.98
   2  0.366  0.197  0.250-  10 1.71  12 1.72  12 1.72   8 1.98
   3  0.832  0.634  0.250-  11 1.71   9 1.72   9 1.72   8 1.98
   4  0.168  0.366  0.750-  12 1.71  13 1.72  13 1.72   7 1.98
   5  0.634  0.803  0.750-  14 1.71  11 1.72  11 1.72   7 1.98
   6  0.803  0.168  0.250-  13 1.71  14 1.72  14 1.72   8 1.98
   7  0.333  0.667  0.750-   5 1.98   4 1.98   1 1.98  11 2.56  11 2.56  13 2.56  13 2.56  10 2.56
                            10 2.56  12 2.62  14 2.62   9 2.62
   8  0.667  0.333  0.250-   2 1.98   3 1.98   6 1.98  12 2.56  12 2.56   9 2.56   9 2.56  14 2.56
                            14 2.56  11 2.62  10 2.62  13 2.62
   9  0.964  0.612  0.750-   1 1.71   3 1.72   3 1.72  13 2.43  13 2.43   8 2.56   8 2.56   7 2.62
                            10 3.10  10 3.10  11 3.10  11 3.10
  10  0.351  0.964  0.250-   2 1.71   1 1.72   1 1.72  14 2.43  14 2.43   7 2.56   7 2.56   8 2.62
                             9 3.10   9 3.10  12 3.10  12 3.10
  11  0.612  0.649  0.250-   3 1.71   5 1.72   5 1.72  12 2.43  12 2.43   7 2.56   7 2.56   8 2.62
                             9 3.10   9 3.10  14 3.10  14 3.10
  12  0.388  0.351  0.750-   4 1.71   2 1.72   2 1.72  11 2.43  11 2.43   8 2.56   8 2.56   7 2.62
                            13 3.10  13 3.10  10 3.10  10 3.10
  13  0.036  0.388  0.250-   6 1.71   4 1.72   4 1.72   9 2.43   9 2.43   7 2.56   7 2.56   8 2.62
                            14 3.10  14 3.10  12 3.10  12 3.10
  14  0.649  0.036  0.750-   5 1.71   6 1.72   6 1.72  10 2.43  10 2.43   8 2.56   8 2.56   7 2.62
                            13 3.10  13 3.10  11 3.10  11 3.10
 
  LATTYP: Found a hexagonal cell.
 ALAT       =     7.5639528747
 C/A-ratio  =     0.3517300815
  
  Lattice vectors:
  
 A1 = (   3.7819764423,  -6.5505753397,   0.0000000000)
 A2 = (   3.7819764324,   6.5505753454,   0.0000000000)
 A3 = (   0.0000000000,   0.0000000000,   2.6604697607)


Analysis of symmetry for initial positions (statically):
=====================================================================
 Subroutine PRICEL returns:
 Original cell was already a primitive cell.
 

 Routine SETGRP: Setting up the symmetry group for a 
 hexagonal supercell.


 Subroutine GETGRP returns: Found 12 space group operations
 (whereof  6 operations were pure point group operations)
 out of a pool of 24 trial point group operations.


The static configuration has the point symmetry S_6 .
 The point group associated with its full space group is C_6h.


Analysis of symmetry for dynamics (positions and initial velocities):
=====================================================================
 Subroutine PRICEL returns:
 Original cell was already a primitive cell.
 

 Routine SETGRP: Setting up the symmetry group for a 
 hexagonal supercell.


 Subroutine GETGRP returns: Found 12 space group operations
 (whereof  6 operations were pure point group operations)
 out of a pool of 24 trial point group operations.


The dynamic configuration has the point symmetry S_6 .
 The point group associated with its full space group is C_6h.


 Subroutine INISYM returns: Found 12 space group operations
 (whereof  6 operations are pure point group operations),
 and found     1 'primitive' translations

 
 
 KPOINTS: Automatic mesh                          

Automatic generation of k-mesh.
 generate k-points for:    7    7   17
Space group operators:
 irot       det(A)        alpha          n_x          n_y          n_z        tau_x        tau_y        tau_z
    1     1.000000     0.000000     1.000000     0.000000     0.000000     0.000000     0.000000     0.000000
    2    -1.000000     0.000000     1.000000     0.000000     0.000000     0.000000     0.000000     0.000000
    3     1.000000   120.000000     0.000000     0.000000    -1.000000     0.000000     0.000000     0.000000
    4    -1.000000   120.000000     0.000000     0.000000    -1.000000     0.000000     0.000000     0.000000
    5     1.000000   120.000000     0.000000     0.000000     1.000000     0.000000     0.000000     0.000000
    6    -1.000000   120.000000     0.000000     0.000000     1.000000     0.000000     0.000000     0.000000
    7     1.000000    60.000000     0.000000     0.000000    -1.000000     0.000000     0.000000     0.500000
    8    -1.000000    60.000000     0.000000     0.000000    -1.000000     0.000000     0.000000     0.500000
    9     1.000000   180.000000     0.000000     0.000000     1.000000     0.000000     0.000000     0.500000
   10    -1.000000   180.000000     0.000000     0.000000     1.000000     0.000000     0.000000     0.500000
   11     1.000000    60.000000     0.000000     0.000000     1.000000     0.000000     0.000000     0.500000
   12    -1.000000    60.000000     0.000000     0.000000     1.000000     0.000000     0.000000     0.500000
 
 Subroutine IBZKPT returns following result:
 ===========================================
 
 Found     81 irreducible k-points:
 
 Following reciprocal coordinates:
            Coordinates               Weight
  0.000000  0.000000  0.000000      1.000000
  0.142857  0.000000  0.000000      6.000000
  0.285714  0.000000  0.000000      6.000000
  0.428571  0.000000  0.000000      6.000000
  0.142857  0.142857  0.000000      6.000000
  0.285714  0.142857  0.000000      6.000000
  0.428571  0.142857  0.000000      6.000000
 -0.428571  0.142857  0.000000      6.000000
  0.285714  0.285714  0.000000      6.000000
  0.000000  0.000000  0.058824      2.000000
  0.142857  0.000000  0.058824     12.000000
  0.285714  0.000000  0.058824     12.000000
  0.428571  0.000000  0.058824     12.000000
  0.142857  0.142857  0.058824     12.000000
  0.285714  0.142857  0.058824     12.000000
  0.428571  0.142857  0.058824     12.000000
 -0.428571  0.142857  0.058824     12.000000
  0.285714  0.285714  0.058824     12.000000
  0.000000  0.000000  0.117647      2.000000
  0.142857  0.000000  0.117647     12.000000
  0.285714  0.000000  0.117647     12.000000
  0.428571  0.000000  0.117647     12.000000
  0.142857  0.142857  0.117647     12.000000
  0.285714  0.142857  0.117647     12.000000
  0.428571  0.142857  0.117647     12.000000
 -0.428571  0.142857  0.117647     12.000000
  0.285714  0.285714  0.117647     12.000000
  0.000000  0.000000  0.176471      2.000000
  0.142857  0.000000  0.176471     12.000000
  0.285714  0.000000  0.176471     12.000000
  0.428571  0.000000  0.176471     12.000000
  0.142857  0.142857  0.176471     12.000000
  0.285714  0.142857  0.176471     12.000000
  0.428571  0.142857  0.176471     12.000000
 -0.428571  0.142857  0.176471     12.000000
  0.285714  0.285714  0.176471     12.000000
  0.000000  0.000000  0.235294      2.000000
  0.142857  0.000000  0.235294     12.000000
  0.285714  0.000000  0.235294     12.000000
  0.428571  0.000000  0.235294     12.000000
  0.142857  0.142857  0.235294     12.000000
  0.285714  0.142857  0.235294     12.000000
  0.428571  0.142857  0.235294     12.000000
 -0.428571  0.142857  0.235294     12.000000
  0.285714  0.285714  0.235294     12.000000
  0.000000  0.000000  0.294118      2.000000
  0.142857  0.000000  0.294118     12.000000
  0.285714  0.000000  0.294118     12.000000
  0.428571  0.000000  0.294118     12.000000
  0.142857  0.142857  0.294118     12.000000
  0.285714  0.142857  0.294118     12.000000
  0.428571  0.142857  0.294118     12.000000
 -0.428571  0.142857  0.294118     12.000000
  0.285714  0.285714  0.294118     12.000000
  0.000000  0.000000  0.352941      2.000000
  0.142857  0.000000  0.352941     12.000000
  0.285714  0.000000  0.352941     12.000000
  0.428571  0.000000  0.352941     12.000000
  0.142857  0.142857  0.352941     12.000000
  0.285714  0.142857  0.352941     12.000000
  0.428571  0.142857  0.352941     12.000000
 -0.428571  0.142857  0.352941     12.000000
  0.285714  0.285714  0.352941     12.000000
  0.000000  0.000000  0.411765      2.000000
  0.142857  0.000000  0.411765     12.000000
  0.285714  0.000000  0.411765     12.000000
  0.428571  0.000000  0.411765     12.000000
  0.142857  0.142857  0.411765     12.000000
  0.285714  0.142857  0.411765     12.000000
  0.428571  0.142857  0.411765     12.000000
 -0.428571  0.142857  0.411765     12.000000
  0.285714  0.285714  0.411765     12.000000
  0.000000  0.000000  0.470588      2.000000
  0.142857  0.000000  0.470588     12.000000
  0.285714  0.000000  0.470588     12.000000
  0.428571  0.000000  0.470588     12.000000
  0.142857  0.142857  0.470588     12.000000
  0.285714  0.142857  0.470588     12.000000
  0.428571  0.142857  0.470588     12.000000
 -0.428571  0.142857  0.470588     12.000000
  0.285714  0.285714  0.470588     12.000000
 
 Following cartesian coordinates:
            Coordinates               Weight
  0.000000  0.000000  0.000000      1.000000
  0.018887 -0.010904  0.000000      6.000000
  0.037773 -0.021808  0.000000      6.000000
  0.056660 -0.032713  0.000000      6.000000
  0.037773  0.000000  0.000000      6.000000
  0.056660 -0.010904  0.000000      6.000000
  0.075546 -0.021808  0.000000      6.000000
 -0.037773  0.043617  0.000000      6.000000
  0.075546  0.000000  0.000000      6.000000
  0.000000  0.000000  0.022110      2.000000
  0.018887 -0.010904  0.022110     12.000000
  0.037773 -0.021808  0.022110     12.000000
  0.056660 -0.032713  0.022110     12.000000
  0.037773  0.000000  0.022110     12.000000
  0.056660 -0.010904  0.022110     12.000000
  0.075546 -0.021808  0.022110     12.000000
 -0.037773  0.043617  0.022110     12.000000
  0.075546  0.000000  0.022110     12.000000
  0.000000  0.000000  0.044220      2.000000
  0.018887 -0.010904  0.044220     12.000000
  0.037773 -0.021808  0.044220     12.000000
  0.056660 -0.032713  0.044220     12.000000
  0.037773  0.000000  0.044220     12.000000
  0.056660 -0.010904  0.044220     12.000000
  0.075546 -0.021808  0.044220     12.000000
 -0.037773  0.043617  0.044220     12.000000
  0.075546  0.000000  0.044220     12.000000
  0.000000  0.000000  0.066331      2.000000
  0.018887 -0.010904  0.066331     12.000000
  0.037773 -0.021808  0.066331     12.000000
  0.056660 -0.032713  0.066331     12.000000
  0.037773  0.000000  0.066331     12.000000
  0.056660 -0.010904  0.066331     12.000000
  0.075546 -0.021808  0.066331     12.000000
 -0.037773  0.043617  0.066331     12.000000
  0.075546  0.000000  0.066331     12.000000
  0.000000  0.000000  0.088441      2.000000
  0.018887 -0.010904  0.088441     12.000000
  0.037773 -0.021808  0.088441     12.000000
  0.056660 -0.032713  0.088441     12.000000
  0.037773  0.000000  0.088441     12.000000
  0.056660 -0.010904  0.088441     12.000000
  0.075546 -0.021808  0.088441     12.000000
 -0.037773  0.043617  0.088441     12.000000
  0.075546  0.000000  0.088441     12.000000
  0.000000  0.000000  0.110551      2.000000
  0.018887 -0.010904  0.110551     12.000000
  0.037773 -0.021808  0.110551     12.000000
  0.056660 -0.032713  0.110551     12.000000
  0.037773  0.000000  0.110551     12.000000
  0.056660 -0.010904  0.110551     12.000000
  0.075546 -0.021808  0.110551     12.000000
 -0.037773  0.043617  0.110551     12.000000
  0.075546  0.000000  0.110551     12.000000
  0.000000  0.000000  0.132661      2.000000
  0.018887 -0.010904  0.132661     12.000000
  0.037773 -0.021808  0.132661     12.000000
  0.056660 -0.032713  0.132661     12.000000
  0.037773  0.000000  0.132661     12.000000
  0.056660 -0.010904  0.132661     12.000000
  0.075546 -0.021808  0.132661     12.000000
 -0.037773  0.043617  0.132661     12.000000
  0.075546  0.000000  0.132661     12.000000
  0.000000  0.000000  0.154771      2.000000
  0.018887 -0.010904  0.154771     12.000000
  0.037773 -0.021808  0.154771     12.000000
  0.056660 -0.032713  0.154771     12.000000
  0.037773  0.000000  0.154771     12.000000
  0.056660 -0.010904  0.154771     12.000000
  0.075546 -0.021808  0.154771     12.000000
 -0.037773  0.043617  0.154771     12.000000
  0.075546  0.000000  0.154771     12.000000
  0.000000  0.000000  0.176882      2.000000
  0.018887 -0.010904  0.176882     12.000000
  0.037773 -0.021808  0.176882     12.000000
  0.056660 -0.032713  0.176882     12.000000
  0.037773  0.000000  0.176882     12.000000
  0.056660 -0.010904  0.176882     12.000000
  0.075546 -0.021808  0.176882     12.000000
 -0.037773  0.043617  0.176882     12.000000
  0.075546  0.000000  0.176882     12.000000
 


--------------------------------------------------------------------------------------------------------




 Dimension of arrays:
   k-points           NKPTS =     81   k-points in BZ     NKDIM =     81   number of bands    NBANDS=     40
   number of dos      NEDOS =    301   number of ions     NIONS =     14
   non local maximal  LDIM  =      4   non local SUM 2l+1 LMDIM =      8
   total plane-waves  NPLWV =  45000
   max r-space proj   IRMAX =   7049   max aug-charges    IRDMAX=  11612
   dimension x,y,z NGX =    50 NGY =   50 NGZ =   18
   dimension x,y,z NGXF=   100 NGYF=  100 NGZF=   36
   support grid    NGXF=   100 NGYF=  100 NGZF=   36
   ions per type =               6   8
   NGX,Y,Z   is equivalent  to a cutoff of  10.99, 10.99, 11.25 a.u.
   NGXF,Y,Z  is equivalent  to a cutoff of  21.98, 21.98, 22.50 a.u.

 SYSTEM =  unknown system                          
 POSCAR =  Si6 N8                                  

 Startparameter for this run:
   NWRITE =      2    write-flag & timer
   PREC   = accura    normal or accurate (medium, high low for compatibility)
   ISTART =      0    job   : 0-new  1-cont  2-samecut
   ICHARG =      2    charge: 1-file 2-atom 10-const
   ISPIN  =      1    spin polarized calculation?
   LNONCOLLINEAR =      F non collinear calculations
   LSORBIT =      F    spin-orbit coupling
   INIWAV =      1    electr: 0-lowe 1-rand  2-diag
   LASPH  =      F    aspherical Exc in radial PAW
   METAGGA=      F    non-selfconsistent MetaGGA calc.

 Electronic Relaxation 1
   ENCUT  =  400.0 eV  29.40 Ry    5.42 a.u.  12.33 12.33  4.34*2*pi/ulx,y,z
   ENINI  =  400.0     initial cutoff
   ENAUG  =  627.1 eV  augmentation charge cutoff
   NELM   =     60;   NELMIN=  2; NELMDL= -5     # of ELM steps 
   EDIFF  = 0.1E-03   stopping-criterion for ELM
   LREAL  =      T    real-space projection
   NLSPLINE    = F    spline interpolate recip. space projectors
   LCOMPAT=      F    compatible to vasp.4.4
   GGA_COMPAT  = T    GGA compatible to vasp.4.4-vasp.4.6
   LMAXPAW     = -100 max onsite density
   LMAXMIX     =    2 max onsite mixed and CHGCAR
   VOSKOWN=      0    Vosko Wilk Nusair interpolation
   ROPT   =   -0.00025  -0.00025
 Ionic relaxation
   EDIFFG = 0.1E-02   stopping-criterion for IOM
   NSW    =    100    number of steps for IOM
   NBLOCK =      1;   KBLOCK =    100    inner block; outer block 
   IBRION =      2    ionic relax: 0-MD 1-quasi-New 2-CG
   NFREE  =      1    steps in history (QN), initial steepest desc. (CG)
   ISIF   =      2    stress and relaxation
   IWAVPR =     11    prediction:  0-non 1-charg 2-wave 3-comb
   ISYM   =      2    0-nonsym 1-usesym 2-fastsym
   LCORR  =      T    Harris-Foulkes like correction to forces

   POTIM  = 0.5000    time-step for ionic-motion
   TEIN   =    0.0    initial temperature
   TEBEG  =    0.0;   TEEND  =   0.0 temperature during run
   SMASS  =  -3.00    Nose mass-parameter (am)
   estimated Nose-frequenzy (Omega)   =  0.10E-29 period in steps =****** mass=  -0.131E-26a.u.
   SCALEE = 1.0000    scale energy and forces
   NPACO  =    256;   APACO  = 16.0  distance and # of slots for P.C.
   PSTRESS=    0.0 pullay stress

  Mass of Ions in am
   POMASS =  14.00 28.09
  Ionic Valenz
   ZVAL   =   5.00  4.00
  Atomic Wigner-Seitz radii
   RWIGS  =  -1.00 -1.00
  virtual crystal weights 
   VCA    =   1.00  1.00
   NELECT =      62.0000    total number of electrons
   NUPDOWN=      -1.0000    fix difference up-down

 DOS related values:
   EMIN   =  10.00;   EMAX   =-10.00  energy-range for DOS
   EFERMI =   0.00
   ISMEAR =     2;   SIGMA  =   0.10  broadening in eV -4-tet -1-fermi 0-gaus

 Electronic relaxation 2 (details)
   IALGO  =     68    algorithm
   LDIAG  =      T    sub-space diagonalisation (order eigenvalues)
   LSUBROT=      F    optimize rotation matrix (better conditioning)
   TURBO    =      0    0=normal 1=particle mesh
   IRESTART =      0    0=no restart 2=restart with 2 vectors
   NREBOOT  =      0    no. of reboots
   NMIN     =      0    reboot dimension
   EREF     =   0.00    reference energy to select bands
   IMIX   =      4    mixing-type and parameters
     AMIX     =   0.40;   BMIX     =  1.00
     AMIX_MAG =   1.60;   BMIX_MAG =  1.00
     AMIN     =   0.10
     WC   =   100.;   INIMIX=   1;  MIXPRE=   1;  MAXMIX= -45

 Intra band minimization:
   WEIMIN = 0.0010     energy-eigenvalue tresh-hold
   EBREAK =  0.63E-06  absolut break condition
   DEPER  =   0.30     relativ break condition  

   TIME   =   0.40     timestep for ELM

  volume/ion in A,a.u.               =       9.42        63.54
  Fermi-wavevector in a.u.,A,eV,Ry     =   1.273141  2.405888 22.053523  1.620888
  Thomas-Fermi vector in A             =   2.405981
 
 Write flags
   LWAVE        =      F    write WAVECAR
   LDOWNSAMPLE  =      F    k-point downsampling of WAVECAR
   LCHARG       =      F    write CHGCAR
   LVTOT        =      F    write LOCPOT, total local potential
   LVHAR        =      F    write LOCPOT, Hartree potential only
   LELF         =      F    write electronic localiz. function (ELF)
   LORBIT       =      0    0 simple, 1 ext, 2 COOP (PROOUT), +10 PAW based schemes


 Dipole corrections
   LMONO  =      F    monopole corrections only (constant potential shift)
   LDIPOL =      F    correct potential (dipole corrections)
   IDIPOL =      0    1-x, 2-y, 3-z, 4-all directions 
   EPSILON=  1.0000000 bulk dielectric constant

 Exchange correlation treatment:
   GGA     =    --    GGA type
   LEXCH   =     8    internal setting for exchange type
   VOSKOWN=      0    Vosko Wilk Nusair interpolation
   LHFCALC =     F    Hartree Fock is set to
   LHFONE  =     F    Hartree Fock one center treatment
   AEXX    =    0.0000 exact exchange contribution

 Linear response parameters
   LEPSILON=     F    determine dielectric tensor
   LRPA    =     F    only Hartree local field effects (RPA)
   LNABLA  =     F    use nabla operator in PAW spheres
   LVEL    =     F    velocity operator in full k-point grid
   LINTERFAST=   F  fast interpolation
   KINTER  =     0    interpolate to denser k-point grid
   CSHIFT  =0.1000    complex shift for real part using Kramers Kronig
   OMEGAMAX=  -1.0    maximum frequency
   DEG_THRESHOLD= 0.2000000E-02 threshold for treating states as degnerate
   RTIME   =   -0.100 relaxation time in fs
  (WPLASMAI=    0.000 imaginary part of plasma frequency in eV, 0.658/RTIME)
   DFIELD  = 0.0000000 0.0000000 0.0000000 field for delta impulse in time
 
 Orbital magnetization related:
   ORBITALMAG=     F  switch on orbital magnetization
   LCHIMAG   =     F  perturbation theory with respect to B field
   DQ        =  0.001000  dq finite difference perturbation B field
   LLRAUG    =     F  two centre corrections for induced B field



--------------------------------------------------------------------------------------------------------


 conjugate gradient relaxation of ions
 charge density and potential will be updated during run
 non-spin polarized calculation
 RMM-DIIS sequential band-by-band and
  variant of blocked Davidson during initial phase
 perform sub-space diagonalisation
    before iterative eigenvector-optimisation
 modified Broyden-mixing scheme, WC =      100.0
 initial mixing is a Kerker type mixing with AMIX =  0.4000 and BMIX =      1.0000
 Hartree-type preconditioning will be used
 using additional bands            9
 real space projection scheme for non local part
 use partial core corrections
 calculate Harris-corrections to forces 
   (improved forces if not selfconsistent)
 use gradient corrections 
 use of overlap-Matrix (Vanderbilt PP)
 Methfessel and Paxton  Order N= 2 SIGMA  =   0.10


--------------------------------------------------------------------------------------------------------


  energy-cutoff  :      400.00
  volume of cell :      131.82
      direct lattice vectors                 reciprocal lattice vectors
     3.781976442 -6.550575340  0.000000000     0.132206006 -0.076329173  0.000000000
     3.781976432  6.550575345  0.000000000     0.132206006  0.076329173  0.000000000
     0.000000000  0.000000000  2.660469761     0.000000000  0.000000000  0.375873470

  length of vectors
     7.563952875  7.563952875  2.660469761     0.152658346  0.152658346  0.375873470


 
 k-points in units of 2pi/SCALE and weight: Automatic mesh                          
   0.00000000  0.00000000  0.00000000       0.001
   0.01888657 -0.01090417  0.00000000       0.007
   0.03777314 -0.02180834  0.00000000       0.007
   0.05665972 -0.03271250  0.00000000       0.007
   0.03777314  0.00000000  0.00000000       0.007
   0.05665972 -0.01090417  0.00000000       0.007
   0.07554629 -0.02180834  0.00000000       0.007
  -0.03777314  0.04361667  0.00000000       0.007
   0.07554629  0.00000000  0.00000000       0.007
   0.00000000  0.00000000  0.02211020       0.002
   0.01888657 -0.01090417  0.02211020       0.014
   0.03777314 -0.02180834  0.02211020       0.014
   0.05665972 -0.03271250  0.02211020       0.014
   0.03777314  0.00000000  0.02211020       0.014
   0.05665972 -0.01090417  0.02211020       0.014
   0.07554629 -0.02180834  0.02211020       0.014
  -0.03777314  0.04361667  0.02211020       0.014
   0.07554629  0.00000000  0.02211020       0.014
   0.00000000  0.00000000  0.04422041       0.002
   0.01888657 -0.01090417  0.04422041       0.014
   0.03777314 -0.02180834  0.04422041       0.014
   0.05665972 -0.03271250  0.04422041       0.014
   0.03777314  0.00000000  0.04422041       0.014
   0.05665972 -0.01090417  0.04422041       0.014
   0.07554629 -0.02180834  0.04422041       0.014
  -0.03777314  0.04361667  0.04422041       0.014
   0.07554629  0.00000000  0.04422041       0.014
   0.00000000  0.00000000  0.06633061       0.002
   0.01888657 -0.01090417  0.06633061       0.014
   0.03777314 -0.02180834  0.06633061       0.014
   0.05665972 -0.03271250  0.06633061       0.014
   0.03777314  0.00000000  0.06633061       0.014
   0.05665972 -0.01090417  0.06633061       0.014
   0.07554629 -0.02180834  0.06633061       0.014
  -0.03777314  0.04361667  0.06633061       0.014
   0.07554629  0.00000000  0.06633061       0.014
   0.00000000  0.00000000  0.08844082       0.002
   0.01888657 -0.01090417  0.08844082       0.014
   0.03777314 -0.02180834  0.08844082       0.014
   0.05665972 -0.03271250  0.08844082       0.014
   0.03777314  0.00000000  0.08844082       0.014
   0.05665972 -0.01090417  0.08844082       0.014
   0.07554629 -0.02180834  0.08844082       0.014
  -0.03777314  0.04361667  0.08844082       0.014
   0.07554629  0.00000000  0.08844082       0.014
   0.00000000  0.00000000  0.11055102       0.002
   0.01888657 -0.01090417  0.11055102       0.014
   0.03777314 -0.02180834  0.11055102       0.014
   0.05665972 -0.03271250  0.11055102       0.014
   0.03777314  0.00000000  0.11055102       0.014
   0.05665972 -0.01090417  0.11055102       0.014
   0.07554629 -0.02180834  0.11055102       0.014
  -0.03777314  0.04361667  0.11055102       0.014
   0.07554629  0.00000000  0.11055102       0.014
   0.00000000  0.00000000  0.13266122       0.002
   0.01888657 -0.01090417  0.13266122       0.014
   0.03777314 -0.02180834  0.13266122       0.014
   0.05665972 -0.03271250  0.13266122       0.014
   0.03777314  0.00000000  0.13266122       0.014
   0.05665972 -0.01090417  0.13266122       0.014
   0.07554629 -0.02180834  0.13266122       0.014
  -0.03777314  0.04361667  0.13266122       0.014
   0.07554629  0.00000000  0.13266122       0.014
   0.00000000  0.00000000  0.15477143       0.002
   0.01888657 -0.01090417  0.15477143       0.014
   0.03777314 -0.02180834  0.15477143       0.014
   0.05665972 -0.03271250  0.15477143       0.014
   0.03777314  0.00000000  0.15477143       0.014
   0.05665972 -0.01090417  0.15477143       0.014
   0.07554629 -0.02180834  0.15477143       0.014
  -0.03777314  0.04361667  0.15477143       0.014
   0.07554629  0.00000000  0.15477143       0.014
   0.00000000  0.00000000  0.17688163       0.002
   0.01888657 -0.01090417  0.17688163       0.014
   0.03777314 -0.02180834  0.17688163       0.014
   0.05665972 -0.03271250  0.17688163       0.014
   0.03777314  0.00000000  0.17688163       0.014
   0.05665972 -0.01090417  0.17688163       0.014
   0.07554629 -0.02180834  0.17688163       0.014
  -0.03777314  0.04361667  0.17688163       0.014
   0.07554629  0.00000000  0.17688163       0.014
 
 k-points in reciprocal lattice and weights: Automatic mesh                          
   0.00000000  0.00000000  0.00000000       0.001
   0.14285714  0.00000000  0.00000000       0.007
   0.28571429  0.00000000  0.00000000       0.007
   0.42857143  0.00000000  0.00000000       0.007
   0.14285714  0.14285714  0.00000000       0.007
   0.28571429  0.14285714  0.00000000       0.007
   0.42857143  0.14285714  0.00000000       0.007
  -0.42857143  0.14285714  0.00000000       0.007
   0.28571429  0.28571429  0.00000000       0.007
   0.00000000  0.00000000  0.05882353       0.002
   0.14285714  0.00000000  0.05882353       0.014
   0.28571429  0.00000000  0.05882353       0.014
   0.42857143  0.00000000  0.05882353       0.014
   0.14285714  0.14285714  0.05882353       0.014
   0.28571429  0.14285714  0.05882353       0.014
   0.42857143  0.14285714  0.05882353       0.014
  -0.42857143  0.14285714  0.05882353       0.014
   0.28571429  0.28571429  0.05882353       0.014
   0.00000000  0.00000000  0.11764706       0.002
   0.14285714  0.00000000  0.11764706       0.014
   0.28571429  0.00000000  0.11764706       0.014
   0.42857143  0.00000000  0.11764706       0.014
   0.14285714  0.14285714  0.11764706       0.014
   0.28571429  0.14285714  0.11764706       0.014
   0.42857143  0.14285714  0.11764706       0.014
  -0.42857143  0.14285714  0.11764706       0.014
   0.28571429  0.28571429  0.11764706       0.014
   0.00000000  0.00000000  0.17647059       0.002
   0.14285714  0.00000000  0.17647059       0.014
   0.28571429  0.00000000  0.17647059       0.014
   0.42857143  0.00000000  0.17647059       0.014
   0.14285714  0.14285714  0.17647059       0.014
   0.28571429  0.14285714  0.17647059       0.014
   0.42857143  0.14285714  0.17647059       0.014
  -0.42857143  0.14285714  0.17647059       0.014
   0.28571429  0.28571429  0.17647059       0.014
   0.00000000  0.00000000  0.23529412       0.002
   0.14285714  0.00000000  0.23529412       0.014
   0.28571429  0.00000000  0.23529412       0.014
   0.42857143  0.00000000  0.23529412       0.014
   0.14285714  0.14285714  0.23529412       0.014
   0.28571429  0.14285714  0.23529412       0.014
   0.42857143  0.14285714  0.23529412       0.014
  -0.42857143  0.14285714  0.23529412       0.014
   0.28571429  0.28571429  0.23529412       0.014
   0.00000000  0.00000000  0.29411765       0.002
   0.14285714  0.00000000  0.29411765       0.014
   0.28571429  0.00000000  0.29411765       0.014
   0.42857143  0.00000000  0.29411765       0.014
   0.14285714  0.14285714  0.29411765       0.014
   0.28571429  0.14285714  0.29411765       0.014
   0.42857143  0.14285714  0.29411765       0.014
  -0.42857143  0.14285714  0.29411765       0.014
   0.28571429  0.28571429  0.29411765       0.014
   0.00000000  0.00000000  0.35294118       0.002
   0.14285714  0.00000000  0.35294118       0.014
   0.28571429  0.00000000  0.35294118       0.014
   0.42857143  0.00000000  0.35294118       0.014
   0.14285714  0.14285714  0.35294118       0.014
   0.28571429  0.14285714  0.35294118       0.014
   0.42857143  0.14285714  0.35294118       0.014
  -0.42857143  0.14285714  0.35294118       0.014
   0.28571429  0.28571429  0.35294118       0.014
   0.00000000  0.00000000  0.41176471       0.002
   0.14285714  0.00000000  0.41176471       0.014
   0.28571429  0.00000000  0.41176471       0.014
   0.42857143  0.00000000  0.41176471       0.014
   0.14285714  0.14285714  0.41176471       0.014
   0.28571429  0.14285714  0.41176471       0.014
   0.42857143  0.14285714  0.41176471       0.014
  -0.42857143  0.14285714  0.41176471       0.014
   0.28571429  0.28571429  0.41176471       0.014
   0.00000000  0.00000000  0.47058824       0.002
   0.14285714  0.00000000  0.47058824       0.014
   0.28571429  0.00000000  0.47058824       0.014
   0.42857143  0.00000000  0.47058824       0.014
   0.14285714  0.14285714  0.47058824       0.014
   0.28571429  0.14285714  0.47058824       0.014
   0.42857143  0.14285714  0.47058824       0.014
  -0.42857143  0.14285714  0.47058824       0.014
   0.28571429  0.28571429  0.47058824       0.014
 
 position of ions in fractional coordinates (direct lattice) 
   0.19708959  0.83151770  0.75000000
   0.36557189  0.19708959  0.25000000
   0.83151770  0.63442811  0.25000000
   0.16848230  0.36557189  0.75000000
   0.63442811  0.80291041  0.75000000
   0.80291041  0.16848230  0.25000000
   0.33333333  0.66666667  0.75000000
   0.66666667  0.33333333  0.25000000
   0.96358754  0.61246345  0.75000000
   0.35112409  0.96358754  0.25000000
   0.61246345  0.64887591  0.25000000
   0.38753655  0.35112409  0.75000000
   0.03641246  0.38753655  0.25000000
   0.64887591  0.03641246  0.75000000
 
 position of ions in cartesian coordinates  (Angst):
   3.89016855  4.15586914  1.99535232
   2.12797247 -1.10365598  0.66511744
   5.54417252 -1.29105022  0.66511744
   2.01978035  1.29105023  1.99535232
   5.43598040  1.10365599  1.99535232
   3.67378432 -4.15586913  0.66511744
   3.78197644  2.18352512  1.99535232
   3.78197644 -2.18352511  0.66511744
   5.96058771 -2.30006481  1.99535232
   4.97220841  4.01198798  0.66511744
   4.77035573  0.23852256  0.66511744
   2.79359714 -0.23852255  1.99535232
   1.60336516  2.30006481  0.66511744
   2.59174446 -4.01198797  1.99535232
 


--------------------------------------------------------------------------------------------------------


 k-point  1 :   0.0000 0.0000 0.0000  plane waves:    2361
 k-point  2 :   0.1429 0.0000 0.0000  plane waves:    2389
 k-point  3 :   0.2857 0.0000 0.0000  plane waves:    2403
 k-point  4 :   0.4286 0.0000 0.0000  plane waves:    2396
 k-point  5 :   0.1429 0.1429 0.0000  plane waves:    2405
 k-point  6 :   0.2857 0.1429 0.0000  plane waves:    2408
 k-point  7 :   0.4286 0.1429 0.0000  plane waves:    2426
 k-point  8 :  -0.4286 0.1429 0.0000  plane waves:    2408
 k-point  9 :   0.2857 0.2857 0.0000  plane waves:    2424
 k-point 10 :   0.0000 0.0000 0.0588  plane waves:    2397
 k-point 11 :   0.1429 0.0000 0.0588  plane waves:    2395
 k-point 12 :   0.2857 0.0000 0.0588  plane waves:    2407
 k-point 13 :   0.4286 0.0000 0.0588  plane waves:    2408
 k-point 14 :   0.1429 0.1429 0.0588  plane waves:    2407
 k-point 15 :   0.2857 0.1429 0.0588  plane waves:    2406
 k-point 16 :   0.4286 0.1429 0.0588  plane waves:    2407
 k-point 17 :  -0.4286 0.1429 0.0588  plane waves:    2406
 k-point 18 :   0.2857 0.2857 0.0588  plane waves:    2413
 k-point 19 :   0.0000 0.0000 0.1176  plane waves:    2403
 k-point 20 :   0.1429 0.0000 0.1176  plane waves:    2408
 k-point 21 :   0.2857 0.0000 0.1176  plane waves:    2403
 k-point 22 :   0.4286 0.0000 0.1176  plane waves:    2414
 k-point 23 :   0.1429 0.1429 0.1176  plane waves:    2396
 k-point 24 :   0.2857 0.1429 0.1176  plane waves:    2409
 k-point 25 :   0.4286 0.1429 0.1176  plane waves:    2401
 k-point 26 :  -0.4286 0.1429 0.1176  plane waves:    2409
 k-point 27 :   0.2857 0.2857 0.1176  plane waves:    2398
 k-point 28 :   0.0000 0.0000 0.1765  plane waves:    2421
 k-point 29 :   0.1429 0.0000 0.1765  plane waves:    2408
 k-point 30 :   0.2857 0.0000 0.1765  plane waves:    2401
 k-point 31 :   0.4286 0.0000 0.1765  plane waves:    2389
 k-point 32 :   0.1429 0.1429 0.1765  plane waves:    2400
 k-point 33 :   0.2857 0.1429 0.1765  plane waves:    2400
 k-point 34 :   0.4286 0.1429 0.1765  plane waves:    2398
 k-point 35 :  -0.4286 0.1429 0.1765  plane waves:    2400
 k-point 36 :   0.2857 0.2857 0.1765  plane waves:    2402
 k-point 37 :   0.0000 0.0000 0.2353  plane waves:    2415
 k-point 38 :   0.1429 0.0000 0.2353  plane waves:    2406
 k-point 39 :   0.2857 0.0000 0.2353  plane waves:    2390
 k-point 40 :   0.4286 0.0000 0.2353  plane waves:    2391
 k-point 41 :   0.1429 0.1429 0.2353  plane waves:    2391
 k-point 42 :   0.2857 0.1429 0.2353  plane waves:    2392
 k-point 43 :   0.4286 0.1429 0.2353  plane waves:    2394
 k-point 44 :  -0.4286 0.1429 0.2353  plane waves:    2392
 k-point 45 :   0.2857 0.2857 0.2353  plane waves:    2395
 k-point 46 :   0.0000 0.0000 0.2941  plane waves:    2397
 k-point 47 :   0.1429 0.0000 0.2941  plane waves:    2395
 k-point 48 :   0.2857 0.0000 0.2941  plane waves:    2389
 k-point 49 :   0.4286 0.0000 0.2941  plane waves:    2391
 k-point 50 :   0.1429 0.1429 0.2941  plane waves:    2397
 k-point 51 :   0.2857 0.1429 0.2941  plane waves:    2390
 k-point 52 :   0.4286 0.1429 0.2941  plane waves:    2384
 k-point 53 :  -0.4286 0.1429 0.2941  plane waves:    2390
 k-point 54 :   0.2857 0.2857 0.2941  plane waves:    2385
 k-point 55 :   0.0000 0.0000 0.3529  plane waves:    2402
 k-point 56 :   0.1429 0.0000 0.3529  plane waves:    2386
 k-point 57 :   0.2857 0.0000 0.3529  plane waves:    2391
 k-point 58 :   0.4286 0.0000 0.3529  plane waves:    2378
 k-point 59 :   0.1429 0.1429 0.3529  plane waves:    2382
 k-point 60 :   0.2857 0.1429 0.3529  plane waves:    2382
 k-point 61 :   0.4286 0.1429 0.3529  plane waves:    2382
 k-point 62 :  -0.4286 0.1429 0.3529  plane waves:    2382
 k-point 63 :   0.2857 0.2857 0.3529  plane waves:    2380
 k-point 64 :   0.0000 0.0000 0.4118  plane waves:    2408
 k-point 65 :   0.1429 0.0000 0.4118  plane waves:    2392
 k-point 66 :   0.2857 0.0000 0.4118  plane waves:    2380
 k-point 67 :   0.4286 0.0000 0.4118  plane waves:    2386
 k-point 68 :   0.1429 0.1429 0.4118  plane waves:    2392
 k-point 69 :   0.2857 0.1429 0.4118  plane waves:    2390
 k-point 70 :   0.4286 0.1429 0.4118  plane waves:    2387
 k-point 71 :  -0.4286 0.1429 0.4118  plane waves:    2390
 k-point 72 :   0.2857 0.2857 0.4118  plane waves:    2379
 k-point 73 :   0.0000 0.0000 0.4706  plane waves:    2414
 k-point 74 :   0.1429 0.0000 0.4706  plane waves:    2402
 k-point 75 :   0.2857 0.0000 0.4706  plane waves:    2380
 k-point 76 :   0.4286 0.0000 0.4706  plane waves:    2386
 k-point 77 :   0.1429 0.1429 0.4706  plane waves:    2390
 k-point 78 :   0.2857 0.1429 0.4706  plane waves:    2378
 k-point 79 :   0.4286 0.1429 0.4706  plane waves:    2382
 k-point 80 :  -0.4286 0.1429 0.4706  plane waves:    2378
 k-point 81 :   0.2857 0.2857 0.4706  plane waves:    2386

 maximum and minimum number of plane-waves per node :       647      565

 maximum number of plane-waves:      2426
 maximum index in each direction: 
   IXMAX=   12   IYMAX=   12   IZMAX=    4
   IXMIN=  -12   IYMIN=  -12   IZMIN=   -4


 real space projection operators:
  total allocation   :       4365.00 KBytes
  max/ min on nodes  :       1134.88       1045.75


 parallel 3D FFT for wavefunctions:
    minimum data exchange during FFTs selected (reduces bandwidth)
 parallel 3D FFT for charge:
    minimum data exchange during FFTs selected (reduces bandwidth)


 total amount of memory used by VASP MPI-rank0    44745. kBytes
=======================================================================

   base      :      30000. kBytes
   nonlr-proj:       3067. kBytes
   fftplans  :       1220. kBytes
   grid      :       1945. kBytes
   one-center:         12. kBytes
   wavefun   :       8501. kBytes
 
     INWAV:  cpu time    0.0000: real time    0.0000
 Broyden mixing: mesh for mixing (old mesh)
   NGX = 25   NGY = 25   NGZ =  9
  (NGX  =100   NGY  =100   NGZ  = 36)
  gives a total of   5625 points

 initial charge density was supplied:
 charge density of overlapping atoms calculated
 number of electron      62.0000000 magnetization 
 keeping initial charge density in first step


--------------------------------------------------------------------------------------------------------


 Maximum index for non-local projection operator         1822
 Maximum index for augmentation-charges         1109 (set IRDMAX)


--------------------------------------------------------------------------------------------------------


 First call to EWALD:  gamma=   0.348
 Maximum number of real-space cells 2x 2x 5
 Maximum number of reciprocal cells 4x 4x 2

    FEWALD:  cpu time    0.0022: real time    0.0025


--------------------------------------- Iteration      1(   1)  ---------------------------------------


    POTLOK:  cpu time    0.5616: real time    0.5642
    SETDIJ:  cpu time    0.0029: real time    0.0032
     EDDAV:  cpu time    2.3996: real time    2.4003
       DOS:  cpu time    0.0028: real time    0.0028
    --------------------------------------------
      LOOP:  cpu time    2.9668: real time    2.9704

 eigenvalue-minimisations  :  6512
 total energy-change (2. order) : 0.2389442E+03  (-0.2648093E+04)
 number of electron      62.0000000 magnetization 
 augmentation part       62.0000000 magnetization 

 Free energy of the ion-electron system (eV)
  ---------------------------------------------------
  alpha Z        PSCENC =        92.47747623
  Ewald energy   TEWEN  =     -2364.32131305
  -Hartree energ DENC   =      -482.49964513
  -exchange      EXHF   =         0.00000000
  -V(xc)+E(xc)   XCENC  =        59.16640039
  PAW double counting   =      1934.58678659    -1800.98643654
  entropy T*S    EENTRO =        -0.00030286
  eigenvalues    EBANDS =       389.14528229
  atomic energy  EATOM  =      2411.37598431
  Solvation  Ediel_sol  =         0.00000000
  ---------------------------------------------------
  free energy    TOTEN  =       238.94423224 eV

  energy without entropy =      238.94453510  energy(sigma->0) =      238.94430795


--------------------------------------------------------------------------------------------------------




--------------------------------------- Iteration      1(   2)  ---------------------------------------


     EDDAV:  cpu time    2.7527: real time    2.7548
       DOS:  cpu time    0.0028: real time    0.0028
    --------------------------------------------
      LOOP:  cpu time    2.7555: real time    2.7576

 eigenvalue-minimisations  :  8112
 total energy-change (2. order) :-0.3223985E+03  (-0.3094149E+03)
 number of electron      62.0000000 magnetization 
 augmentation part       62.0000000 magnetization 

 Free energy of the ion-electron system (eV)
  ---------------------------------------------------
  alpha Z        PSCENC =        92.47747623
  Ewald energy   TEWEN  =     -2364.32131305
  -Hartree energ DENC   =      -482.49964513
  -exchange      EXHF   =         0.00000000
  -V(xc)+E(xc)   XCENC  =        59.16640039
  PAW double counting   =      1934.58678659    -1800.98643654
  entropy T*S    EENTRO =        -0.00021946
  eigenvalues    EBANDS =        66.74673173
  atomic energy  EATOM  =      2411.37598431
  Solvation  Ediel_sol  =         0.00000000
  ---------------------------------------------------
  free energy    TOTEN  =       -83.45423492 eV

  energy without entropy =      -83.45401546  energy(sigma->0) =      -83.45418006


--------------------------------------------------------------------------------------------------------




--------------------------------------- Iteration      1(   3)  ---------------------------------------


     EDDAV:  cpu time    2.7256: real time    2.7264
       DOS:  cpu time    0.0030: real time    0.0030
    --------------------------------------------
      LOOP:  cpu time    2.7286: real time    2.7293

 eigenvalue-minimisations  :  8088
 total energy-change (2. order) :-0.1949031E+02  (-0.1917481E+02)
 number of electron      62.0000000 magnetization 
 augmentation part       62.0000000 magnetization 

 Free energy of the ion-electron system (eV)
  ---------------------------------------------------
  alpha Z        PSCENC =        92.47747623
  Ewald energy   TEWEN  =     -2364.32131305
  -Hartree energ DENC   =      -482.49964513
  -exchange      EXHF   =         0.00000000
  -V(xc)+E(xc)   XCENC  =        59.16640039
  PAW double counting   =      1934.58678659    -1800.98643654
  entropy T*S    EENTRO =        -0.00068156
  eigenvalues    EBANDS =        47.25687909
  atomic energy  EATOM  =      2411.37598431
  Solvation  Ediel_sol  =         0.00000000
  ---------------------------------------------------
  free energy    TOTEN  =      -102.94454966 eV

  energy without entropy =     -102.94386810  energy(sigma->0) =     -102.94437927


--------------------------------------------------------------------------------------------------------




--------------------------------------- Iteration      1(   4)  ---------------------------------------


     EDDAV:  cpu time    2.8612: real time    2.8618
       DOS:  cpu time    0.0028: real time    0.0028
    --------------------------------------------
      LOOP:  cpu time    2.8640: real time    2.8646

 eigenvalue-minimisations  :  8312
 total energy-change (2. order) :-0.3940817E+00  (-0.3924861E+00)
 number of electron      62.0000000 magnetization 
 augmentation part       62.0000000 magnetization 

 Free energy of the ion-electron system (eV)
  ---------------------------------------------------
  alpha Z        PSCENC =        92.47747623
  Ewald energy   TEWEN  =     -2364.32131305
  -Hartree energ DENC   =      -482.49964513
  -exchange      EXHF   =         0.00000000
  -V(xc)+E(xc)   XCENC  =        59.16640039
  PAW double counting   =      1934.58678659    -1800.98643654
  entropy T*S    EENTRO =        -0.00070838
  eigenvalues    EBANDS =        46.86282418
  atomic energy  EATOM  =      2411.37598431
  Solvation  Ediel_sol  =         0.00000000
  ---------------------------------------------------
  free energy    TOTEN  =      -103.33863139 eV

  energy without entropy =     -103.33792301  energy(sigma->0) =     -103.33845429


--------------------------------------------------------------------------------------------------------




--------------------------------------- Iteration      1(   5)  ---------------------------------------


     EDDAV:  cpu time    2.9493: real time    3.2449
       DOS:  cpu time    0.0030: real time    0.0030
    CHARGE:  cpu time    0.1249: real time    0.1250
    MIXING:  cpu time    0.0107: real time    0.0107
    --------------------------------------------
      LOOP:  cpu time    3.0880: real time    3.3836

 eigenvalue-minimisations  :  8176
 total energy-change (2. order) :-0.7821906E-02  (-0.7817985E-02)
 number of electron      61.9999994 magnetization 
 augmentation part        0.5228848 magnetization 

 Broyden mixing:
  rms(total) = 0.28241E+01    rms(broyden)= 0.28237E+01
  rms(prec ) = 0.38697E+01
  weight for this iteration     100.00

 Free energy of the ion-electron system (eV)
  ---------------------------------------------------
  alpha Z        PSCENC =        92.47747623
  Ewald energy   TEWEN  =     -2364.32131305
  -Hartree energ DENC   =      -482.49964513
  -exchange      EXHF   =         0.00000000
  -V(xc)+E(xc)   XCENC  =        59.16640039
  PAW double counting   =      1934.58678659    -1800.98643654
  entropy T*S    EENTRO =        -0.00070470
  eigenvalues    EBANDS =        46.85499859
  atomic energy  EATOM  =      2411.37598431
  Solvation  Ediel_sol  =         0.00000000
  ---------------------------------------------------
  free energy    TOTEN  =      -103.34645330 eV

  energy without entropy =     -103.34574860  energy(sigma->0) =     -103.34627712


--------------------------------------------------------------------------------------------------------




--------------------------------------- Iteration      1(   6)  ---------------------------------------


    POTLOK:  cpu time    0.0170: real time    0.0183
    SETDIJ:  cpu time    0.0027: real time    0.0027
    EDDIAG:  cpu time    0.3650: real time    0.3650
  RMM-DIIS:  cpu time    1.5474: real time    1.5477
    ORTHCH:  cpu time    0.0367: real time    0.0367
       DOS:  cpu time    0.0028: real time    0.0028
    CHARGE:  cpu time    0.1239: real time    0.1240
    MIXING:  cpu time    0.0006: real time    0.0006
    --------------------------------------------
      LOOP:  cpu time    2.0962: real time    2.0978

 eigenvalue-minimisations  :  6480
 total energy-change (2. order) : 0.1051149E+02  (-0.4336060E+01)
 number of electron      61.9999994 magnetization 
 augmentation part       -0.1634532 magnetization 

 Broyden mixing:
  rms(total) = 0.13312E+01    rms(broyden)= 0.13308E+01
  rms(prec ) = 0.15217E+01
  weight for this iteration     100.00

 eigenvalues of (default mixing * dielectric matrix)
  average eigenvalue GAMMA=   1.2757
  1.2757

 Free energy of the ion-electron system (eV)
  ---------------------------------------------------
  alpha Z        PSCENC =        92.47747623
  Ewald energy   TEWEN  =     -2364.32131305
  -Hartree energ DENC   =      -563.80815331
  -exchange      EXHF   =         0.00000000
  -V(xc)+E(xc)   XCENC  =        65.12645868
  PAW double counting   =      4847.50801584    -4715.18351949
  entropy T*S    EENTRO =        -0.00034477
  eigenvalues    EBANDS =       133.99043128
  atomic energy  EATOM  =      2411.37598431
  Solvation  Ediel_sol  =         0.00000000
  ---------------------------------------------------
  free energy    TOTEN  =       -92.83496429 eV

  energy without entropy =      -92.83461951  energy(sigma->0) =      -92.83487809


--------------------------------------------------------------------------------------------------------




--------------------------------------- Iteration      1(   7)  ---------------------------------------


    POTLOK:  cpu time    0.0167: real time    0.0219
    SETDIJ:  cpu time    0.0024: real time    0.0027
    EDDIAG:  cpu time    0.3626: real time    0.3629
  RMM-DIIS:  cpu time    1.4485: real time    1.4487
    ORTHCH:  cpu time    0.0362: real time    0.0362
       DOS:  cpu time    0.0028: real time    0.0028
    CHARGE:  cpu time    0.1244: real time    0.1244
    MIXING:  cpu time    0.0006: real time    0.0006
    --------------------------------------------
      LOOP:  cpu time    1.9943: real time    2.0002

 eigenvalue-minimisations  :  6506
 total energy-change (2. order) : 0.5298045E+00  (-0.2152075E+00)
 number of electron      61.9999994 magnetization 
 augmentation part       -0.2194921 magnetization 

 Broyden mixing:
  rms(total) = 0.69325E+00    rms(broyden)= 0.69320E+00
  rms(prec ) = 0.79081E+00
  weight for this iteration     100.00

 eigenvalues of (default mixing * dielectric matrix)
  average eigenvalue GAMMA=   1.6685
  1.1035  2.2335

 Free energy of the ion-electron system (eV)
  ---------------------------------------------------
  alpha Z        PSCENC =        92.47747623
  Ewald energy   TEWEN  =     -2364.32131305
  -Hartree energ DENC   =      -576.28466720
  -exchange      EXHF   =         0.00000000
  -V(xc)+E(xc)   XCENC  =        66.28439475
  PAW double counting   =      7794.32676019    -7662.62983976
  entropy T*S    EENTRO =        -0.00039164
  eigenvalues    EBANDS =       146.46643642
  atomic energy  EATOM  =      2411.37598431
  Solvation  Ediel_sol  =         0.00000000
  ---------------------------------------------------
  free energy    TOTEN  =       -92.30515975 eV

  energy without entropy =      -92.30476812  energy(sigma->0) =      -92.30506184


--------------------------------------------------------------------------------------------------------




--------------------------------------- Iteration      1(   8)  ---------------------------------------


    POTLOK:  cpu time    0.0164: real time    0.0187
    SETDIJ:  cpu time    0.0027: real time    0.0027
    EDDIAG:  cpu time    0.3618: real time    0.3619
  RMM-DIIS:  cpu time    1.5359: real time    1.5363
    ORTHCH:  cpu time    0.0371: real time    0.0371
       DOS:  cpu time    0.0031: real time    0.0031
    CHARGE:  cpu time    0.1262: real time    0.1262
    MIXING:  cpu time    0.0006: real time    0.0006
    --------------------------------------------
      LOOP:  cpu time    2.0839: real time    2.0866

 eigenvalue-minimisations  :  6501
 total energy-change (2. order) : 0.1218006E+00  (-0.7187727E-01)
 number of electron      61.9999994 magnetization 
 augmentation part       -0.1945174 magnetization 

 Broyden mixing:
  rms(total) = 0.79140E-01    rms(broyden)= 0.79113E-01
  rms(prec ) = 0.13059E+00
  weight for this iteration     100.00

 eigenvalues of (default mixing * dielectric matrix)
  average eigenvalue GAMMA=   1.6096
  2.4034  1.2127  1.2127

 Free energy of the ion-electron system (eV)
  ---------------------------------------------------
  alpha Z        PSCENC =        92.47747623
  Ewald energy   TEWEN  =     -2364.32131305
  -Hartree energ DENC   =      -582.95366737
  -exchange      EXHF   =         0.00000000
  -V(xc)+E(xc)   XCENC  =        67.11134644
  PAW double counting   =     11395.40457733   -11264.30462362
  entropy T*S    EENTRO =        -0.00047607
  eigenvalues    EBANDS =       153.02733664
  atomic energy  EATOM  =      2411.37598431
  Solvation  Ediel_sol  =         0.00000000
  ---------------------------------------------------
  free energy    TOTEN  =       -92.18335915 eV

  energy without entropy =      -92.18288308  energy(sigma->0) =      -92.18324014


--------------------------------------------------------------------------------------------------------




--------------------------------------- Iteration      1(   9)  ---------------------------------------


    POTLOK:  cpu time    0.0168: real time    0.0170
    SETDIJ:  cpu time    0.0022: real time    0.0022
    EDDIAG:  cpu time    0.3843: real time    0.3845
  RMM-DIIS:  cpu time    1.5355: real time    1.5364
    ORTHCH:  cpu time    0.0374: real time    0.0374
       DOS:  cpu time    0.0029: real time    0.0029
    CHARGE:  cpu time    0.1262: real time    0.1263
    MIXING:  cpu time    0.0006: real time    0.0006
    --------------------------------------------
      LOOP:  cpu time    2.1060: real time    2.1072

 eigenvalue-minimisations  :  6511
 total energy-change (2. order) :-0.5614490E-03  (-0.9538149E-02)
 number of electron      61.9999994 magnetization 
 augmentation part       -0.2248309 magnetization 

 Broyden mixing:
  rms(total) = 0.52395E-01    rms(broyden)= 0.52375E-01
  rms(prec ) = 0.70641E-01
  weight for this iteration     100.00

 eigenvalues of (default mixing * dielectric matrix)
  average eigenvalue GAMMA=   1.6631
  1.0281  1.0281  2.2981  2.2981

 Free energy of the ion-electron system (eV)
  ---------------------------------------------------
  alpha Z        PSCENC =        92.47747623
  Ewald energy   TEWEN  =     -2364.32131305
  -Hartree energ DENC   =      -587.14845000
  -exchange      EXHF   =         0.00000000
  -V(xc)+E(xc)   XCENC  =        67.44761456
  PAW double counting   =     11741.10690349   -11610.07760050
  entropy T*S    EENTRO =        -0.00044891
  eigenvalues    EBANDS =       156.95591326
  atomic energy  EATOM  =      2411.37598431
  Solvation  Ediel_sol  =         0.00000000
  ---------------------------------------------------
  free energy    TOTEN  =       -92.18392060 eV

  energy without entropy =      -92.18347170  energy(sigma->0) =      -92.18380838


--------------------------------------------------------------------------------------------------------




--------------------------------------- Iteration      1(  10)  ---------------------------------------


    POTLOK:  cpu time    0.0167: real time    0.0220
    SETDIJ:  cpu time    0.0025: real time    0.0028
    EDDIAG:  cpu time    0.3808: real time    0.3811
  RMM-DIIS:  cpu time    1.5917: real time    1.5924
    ORTHCH:  cpu time    0.0362: real time    0.0362
       DOS:  cpu time    0.0029: real time    0.0029
    CHARGE:  cpu time    0.1249: real time    0.1250
    MIXING:  cpu time    0.0006: real time    0.0006
    --------------------------------------------
      LOOP:  cpu time    2.1563: real time    2.1629

 eigenvalue-minimisations  :  6500
 total energy-change (2. order) : 0.1744060E-02  (-0.9606850E-03)
 number of electron      61.9999994 magnetization 
 augmentation part       -0.2175856 magnetization 

 Broyden mixing:
  rms(total) = 0.19054E-01    rms(broyden)= 0.19053E-01
  rms(prec ) = 0.25219E-01
  weight for this iteration     100.00

 eigenvalues of (default mixing * dielectric matrix)
  average eigenvalue GAMMA=   1.8383
  2.9148  2.6360  1.0450  1.0450  1.5505

 Free energy of the ion-electron system (eV)
  ---------------------------------------------------
  alpha Z        PSCENC =        92.47747623
  Ewald energy   TEWEN  =     -2364.32131305
  -Hartree energ DENC   =      -585.81979387
  -exchange      EXHF   =         0.00000000
  -V(xc)+E(xc)   XCENC  =        67.34582904
  PAW double counting   =     11562.33327760   -11431.27645113
  entropy T*S    EENTRO =        -0.00048504
  eigenvalues    EBANDS =       155.70329936
  atomic energy  EATOM  =      2411.37598431
  Solvation  Ediel_sol  =         0.00000000
  ---------------------------------------------------
  free energy    TOTEN  =       -92.18217654 eV

  energy without entropy =      -92.18169150  energy(sigma->0) =      -92.18205528


--------------------------------------------------------------------------------------------------------




--------------------------------------- Iteration      1(  11)  ---------------------------------------


    POTLOK:  cpu time    0.0152: real time    0.0177
    SETDIJ:  cpu time    0.0022: real time    0.0022
    EDDIAG:  cpu time    0.3697: real time    0.3697
  RMM-DIIS:  cpu time    1.4688: real time    1.4687
    ORTHCH:  cpu time    0.0369: real time    0.0369
       DOS:  cpu time    0.0029: real time    0.0029
    CHARGE:  cpu time    0.1264: real time    0.1264
    MIXING:  cpu time    0.0006: real time    0.0006
    --------------------------------------------
      LOOP:  cpu time    2.0227: real time    2.0250

 eigenvalue-minimisations  :  6485
 total energy-change (2. order) :-0.1264346E-02  (-0.5728334E-03)
 number of electron      61.9999994 magnetization 
 augmentation part       -0.2110482 magnetization 

 Broyden mixing:
  rms(total) = 0.12492E-01    rms(broyden)= 0.12486E-01
  rms(prec ) = 0.19485E-01
  weight for this iteration     100.00

 eigenvalues of (default mixing * dielectric matrix)
  average eigenvalue GAMMA=   1.6594
  2.5517  2.5517  1.8048  1.0058  1.0213  1.0213

 Free energy of the ion-electron system (eV)
  ---------------------------------------------------
  alpha Z        PSCENC =        92.47747623
  Ewald energy   TEWEN  =     -2364.32131305
  -Hartree energ DENC   =      -585.63534152
  -exchange      EXHF   =         0.00000000
  -V(xc)+E(xc)   XCENC  =        67.32916480
  PAW double counting   =     11478.18689119   -11347.12671594
  entropy T*S    EENTRO =        -0.00050281
  eigenvalues    EBANDS =       155.53091589
  atomic energy  EATOM  =      2411.37598431
  Solvation  Ediel_sol  =         0.00000000
  ---------------------------------------------------
  free energy    TOTEN  =       -92.18344089 eV

  energy without entropy =      -92.18293808  energy(sigma->0) =      -92.18331519


--------------------------------------------------------------------------------------------------------




--------------------------------------- Iteration      1(  12)  ---------------------------------------


    POTLOK:  cpu time    0.0155: real time    0.0194
    SETDIJ:  cpu time    0.0022: real time    0.0022
    EDDIAG:  cpu time    0.3641: real time    0.3643
  RMM-DIIS:  cpu time    1.5314: real time    1.5313
    ORTHCH:  cpu time    0.0368: real time    0.0368
       DOS:  cpu time    0.0027: real time    0.0027
    CHARGE:  cpu time    0.1264: real time    0.1263
    MIXING:  cpu time    0.0006: real time    0.0006
    --------------------------------------------
      LOOP:  cpu time    2.0797: real time    2.0837

 eigenvalue-minimisations  :  6447
 total energy-change (2. order) : 0.3865300E-03  (-0.9608861E-04)
 number of electron      61.9999994 magnetization 
 augmentation part       -0.2137224 magnetization 

 Broyden mixing:
  rms(total) = 0.32123E-02    rms(broyden)= 0.32117E-02
  rms(prec ) = 0.47683E-02
  weight for this iteration     100.00

 eigenvalues of (default mixing * dielectric matrix)
  average eigenvalue GAMMA=   1.7745
  3.4096  2.5092  1.8377  1.4248  0.9742  1.1329  1.1329

 Free energy of the ion-electron system (eV)
  ---------------------------------------------------
  alpha Z        PSCENC =        92.47747623
  Ewald energy   TEWEN  =     -2364.32131305
  -Hartree energ DENC   =      -586.13975455
  -exchange      EXHF   =         0.00000000
  -V(xc)+E(xc)   XCENC  =        67.36395798
  PAW double counting   =     11501.20584599   -11370.15076847
  entropy T*S    EENTRO =        -0.00049646
  eigenvalues    EBANDS =       156.00601366
  atomic energy  EATOM  =      2411.37598431
  Solvation  Ediel_sol  =         0.00000000
  ---------------------------------------------------
  free energy    TOTEN  =       -92.18305436 eV

  energy without entropy =      -92.18255790  energy(sigma->0) =      -92.18293024


--------------------------------------------------------------------------------------------------------




--------------------------------------- Iteration      1(  13)  ---------------------------------------


    POTLOK:  cpu time    0.0152: real time    0.0169
    SETDIJ:  cpu time    0.0024: real time    0.0026
    EDDIAG:  cpu time    0.3718: real time    0.3718
  RMM-DIIS:  cpu time    1.0757: real time    1.0756
    ORTHCH:  cpu time    0.0367: real time    0.0367
       DOS:  cpu time    0.0029: real time    0.0029
    --------------------------------------------
      LOOP:  cpu time    1.5046: real time    1.5065

 eigenvalue-minimisations  :  4049
 total energy-change (2. order) :-0.3083652E-04  (-0.1793821E-04)
 number of electron      61.9999994 magnetization 
 augmentation part       -0.2137224 magnetization 

 Free energy of the ion-electron system (eV)
  ---------------------------------------------------
  alpha Z        PSCENC =        92.47747623
  Ewald energy   TEWEN  =     -2364.32131305
  -Hartree energ DENC   =      -586.27439392
  -exchange      EXHF   =         0.00000000
  -V(xc)+E(xc)   XCENC  =        67.37177315
  PAW double counting   =     11494.12953597   -11363.07359360
  entropy T*S    EENTRO =        -0.00049494
  eigenvalues    EBANDS =       156.13194065
  atomic energy  EATOM  =      2411.37598431
  Solvation  Ediel_sol  =         0.00000000
  ---------------------------------------------------
  free energy    TOTEN  =       -92.18308519 eV

  energy without entropy =      -92.18259025  energy(sigma->0) =      -92.18296146


--------------------------------------------------------------------------------------------------------




 average (electrostatic) potential at core
  the test charge radii are     0.7089  0.9892
  (the norm of the test charge is              1.0000)
       1 -58.3235       2 -58.3235       3 -58.3235       4 -58.3235       5 -58.3235
       6 -58.3235       7 -79.4537       8 -79.4537       9 -78.5847      10 -78.5847
      11 -78.5847      12 -78.5847      13 -78.5847      14 -78.5847
 
 
 
 E-fermi :  12.1655     XC(G=0): -11.7298     alpha+bet :-18.5104


 k-point     1 :       0.0000    0.0000    0.0000
  band No.  band energies     occupation 
      1      -9.6499      2.00000
      2      -8.2344      2.00000
      3      -8.2344      2.00000
      4      -7.5671      2.00000
      5      -7.5671      2.00000
      6      -7.4478      2.00000
      7      -0.8847      2.00000
      8      -0.8847      2.00000
      9      -0.7824      2.00000
     10       0.0152      2.00000
     11       1.6334      2.00000
     12       1.8328      2.00000
     13       1.8328      2.00000
     14       3.9161      2.00000
     15       3.9161      2.00000
     16       5.1423      2.00000
     17       5.2263      2.00000
     18       5.2263      2.00000
     19       6.0730      2.00000
     20       6.1346      2.00000
     21       6.7171      2.00000
     22       6.7171      2.00000
     23       7.2640      2.00000
     24       7.2640      2.00000
     25       7.4314      2.00000
     26       8.7838      2.00000
     27       8.7838      2.00000
     28       8.8086      2.00000
     29      10.9124      2.00000
     30      11.1496      2.00000
     31      11.1496      2.00000
     32      15.6955      0.00000
     33      15.8853      0.00000
     34      15.8856      0.00000
     35      16.5676      0.00000
     36      16.5694      0.00000
     37      16.8473      0.00000
     38      17.2659      0.00000
     39      17.8580      0.00000
     40      17.9803      0.00000

 k-point     2 :       0.1429    0.0000    0.0000
  band No.  band energies     occupation 
      1      -9.6054      2.00000
      2      -8.3453      2.00000
      3      -8.2839      2.00000
      4      -7.7705      2.00000
      5      -7.4919      2.00000
      6      -7.1612      2.00000
      7      -1.2108      2.00000
      8      -0.8907      2.00000
      9      -0.7105      2.00000
     10       0.3254      2.00000
     11       1.4552      2.00000
     12       1.7560      2.00000
     13       1.9749      2.00000
     14       3.8144      2.00000
     15       3.9934      2.00000
     16       4.9959      2.00000
     17       5.1626      2.00000
     18       5.3806      2.00000
     19       6.1579      2.00000
     20       6.3699      2.00000
     21       6.6841      2.00000
     22       6.7081      2.00000
     23       7.2105      2.00000
     24       7.2741      2.00000
     25       7.4911      2.00000
     26       8.5318      2.00000
     27       8.5852      2.00000
     28       8.9258      2.00000
     29      10.8545      2.00000
     30      11.3036      2.00000
     31      11.3641      2.00000
     32      15.3814      0.00000
     33      15.7389      0.00000
     34      15.8346      0.00000
     35      16.3769      0.00000
     36      16.5864      0.00000
     37      17.1957      0.00000
     38      17.4578      0.00000
     39      17.6831      0.00000
     40      17.8011      0.00000

 k-point     3 :       0.2857    0.0000    0.0000
  band No.  band energies     occupation 
      1      -9.4743      2.00000
      2      -8.6311      2.00000
      3      -8.3710      2.00000
      4      -7.8703      2.00000
      5      -7.3441      2.00000
      6      -6.8686      2.00000
      7      -1.6533      2.00000
      8      -0.9056      2.00000
      9      -0.5063      2.00000
     10       0.6323      2.00000
     11       1.1086      2.00000
     12       1.5952      2.00000
     13       2.4311      2.00000
     14       3.6213      2.00000
     15       3.9556      2.00000
     16       4.8390      2.00000
     17       5.1764      2.00000
     18       5.6613      2.00000
     19       6.2243      2.00000
     20       6.5939      2.00000
     21       6.6892      2.00000
     22       6.8387      2.00000
     23       7.1465      2.00000
     24       7.2980      2.00000
     25       7.5753      2.00000
     26       8.0310      2.00000
     27       8.2174      2.00000
     28       9.2484      2.00000
     29      10.6719      2.00000
     30      11.5681      2.00000
     31      11.8563      1.99961
     32      14.4257      0.00000
     33      15.4824      0.00000
     34      15.9075      0.00000
     35      16.3210      0.00000
     36      16.5944      0.00000
     37      17.0730      0.00000
     38      17.3310      0.00000
     39      17.5009      0.00000
     40      17.8667      0.00000

 k-point     4 :       0.4286    0.0000    0.0000
  band No.  band energies     occupation 
      1      -9.2718      2.00000
      2      -8.9429      2.00000
      3      -8.4268      2.00000
      4      -7.8984      2.00000
      5      -7.2362      2.00000
      6      -6.7007      2.00000
      7      -1.9133      2.00000
      8      -0.9195      2.00000
      9      -0.2372      2.00000
     10       0.4801      2.00000
     11       1.0225      2.00000
     12       1.4748      2.00000
     13       3.0853      2.00000
     14       3.4895      2.00000
     15       3.7250      2.00000
     16       4.4215      2.00000
     17       5.5502      2.00000
     18       5.8760      2.00000
     19       6.3231      2.00000
     20       6.4737      2.00000
     21       6.6755      2.00000
     22       7.0227      2.00000
     23       7.1165      2.00000
     24       7.3177      2.00000
     25       7.6202      2.00000
     26       7.6255      2.00000
     27       8.0501      2.00000
     28       9.6430      2.00000
     29      10.3997      2.00000
     30      11.7191      2.00000
     31      12.5022      0.00009
     32      13.4286      0.00000
     33      15.3035      0.00000
     34      16.1289      0.00000
     35      16.3196      0.00000
     36      16.4768      0.00000
     37      16.8505      0.00000
     38      17.2309      0.00000
     39      17.5246      0.00000
     40      17.6061      0.00000

 k-point     5 :       0.1429    0.1429    0.0000
  band No.  band energies     occupation 
      1      -9.5175      2.00000
      2      -8.4659      2.00000
      3      -8.4568      2.00000
      4      -7.8022      2.00000
      5      -7.4146      2.00000
      6      -6.9302      2.00000
      7      -1.5624      2.00000
      8      -0.8666      2.00000
      9      -0.5679      2.00000
     10       0.5155      2.00000
     11       1.1785      2.00000
     12       1.7841      2.00000
     13       2.1957      2.00000
     14       3.5792      2.00000
     15       4.1658      2.00000
     16       4.8681      2.00000
     17       5.0234      2.00000
     18       5.6424      2.00000
     19       6.2026      2.00000
     20       6.6351      2.00000
     21       6.6797      2.00000
     22       6.7235      2.00000
     23       7.1684      2.00000
     24       7.2851      2.00000
     25       7.5557      2.00000
     26       8.1614      2.00000
     27       8.3250      2.00000
     28       9.1404      2.00000
     29      10.7368      2.00000
     30      11.5347      2.00000
     31      11.6744      2.00000
     32      14.7875      0.00000
     33      15.3397      0.00000
     34      15.8908      0.00000
     35      16.3416      0.00000
     36      16.6439      0.00000
     37      17.1550      0.00000
     38      17.3994      0.00000
     39      17.6329      0.00000
     40      17.6874      0.00000

 k-point     6 :       0.2857    0.1429    0.0000
  band No.  band energies     occupation 
      1      -9.3476      2.00000
      2      -8.7707      2.00000
      3      -8.5515      2.00000
      4      -7.7747      2.00000
      5      -7.3292      2.00000
      6      -6.7224      2.00000
      7      -1.8883      2.00000
      8      -0.8034      2.00000
      9      -0.3110      2.00000
     10       0.4246      2.00000
     11       0.8044      2.00000
     12       1.9420      2.00000
     13       2.6901      2.00000
     14       3.3002      2.00000
     15       4.2118      2.00000
     16       4.5375      2.00000
     17       5.1400      2.00000
     18       5.9296      2.00000
     19       6.2861      2.00000
     20       6.5414      2.00000
     21       6.6419      2.00000
     22       6.9730      2.00000
     23       7.1485      2.00000
     24       7.2941      2.00000
     25       7.6163      2.00000
     26       7.9023      2.00000
     27       7.9652      2.00000
     28       9.5064      2.00000
     29      10.5032      2.00000
     30      11.8000      1.99998
     31      12.1354      1.59316
     32      13.8748      0.00000
     33      14.9650      0.00000
     34      16.0349      0.00000
     35      16.3492      0.00000
     36      16.7269      0.00000
     37      16.8888      0.00000
     38      17.4735      0.00000
     39      17.5091      0.00000
     40      17.6850      0.00000

 k-point     7 :       0.4286    0.1429    0.0000
  band No.  band energies     occupation 
      1      -9.1625      2.00000
      2      -9.0124      2.00000
      3      -8.5836      2.00000
      4      -7.7633      2.00000
      5      -7.2889      2.00000
      6      -6.6445      2.00000
      7      -2.0114      2.00000
      8      -0.7651      2.00000
      9      -0.1078      2.00000
     10       0.2766      2.00000
     11       0.6139      2.00000
     12       1.9948      2.00000
     13       3.0589      2.00000
     14       3.3175      2.00000
     15       3.8948      2.00000
     16       4.3848      2.00000
     17       5.3461      2.00000
     18       6.0363      2.00000
     19       6.3678      2.00000
     20       6.4508      2.00000
     21       6.6266      2.00000
     22       6.9812      2.00000
     23       7.1443      2.00000
     24       7.2978      2.00000
     25       7.6386      2.00000
     26       7.6628      2.00000
     27       8.0000      2.00000
     28       9.7891      2.00000
     29      10.2842      2.00000
     30      11.8558      1.99962
     31      12.7110      0.00000
     32      13.1061      0.00000
     33      14.8747      0.00000
     34      16.2503      0.00000
     35      16.2936      0.00000
     36      16.5441      0.00000
     37      16.8434      0.00000
     38      17.4792      0.00000
     39      17.5387      0.00000
     40      17.7084      0.00000

[...]
     39      15.7133      0.00000
     40      15.7953      0.00000

 k-point    75 :       0.2857    0.0000    0.4706
  band No.  band energies     occupation 
      1      -6.7233      2.00000
      2      -6.4690      2.00000
      3      -6.0982      2.00000
      4      -6.0529      2.00000
      5      -5.8878      2.00000
      6      -5.8837      2.00000
      7      -0.3873      2.00000
      8      -0.1761      2.00000
      9       0.3119      2.00000
     10       0.5568      2.00000
     11       0.8904      2.00000
     12       1.2094      2.00000
     13       2.1833      2.00000
     14       2.7260      2.00000
     15       2.8810      2.00000
     16       3.1231      2.00000
     17       3.3365      2.00000
     18       3.5368      2.00000
     19       3.9583      2.00000
     20       4.2976      2.00000
     21       5.6742      2.00000
     22       5.9379      2.00000
     23       5.9550      2.00000
     24       6.2060      2.00000
     25       7.1188      2.00000
     26       7.3937      2.00000
     27       7.9600      2.00000
     28       8.2566      2.00000
     29       8.3257      2.00000
     30       8.6552      2.00000
     31      10.3570      2.00000
     32      10.7932      2.00000
     33      12.9361      0.00000
     34      13.2632      0.00000
     35      13.4369      0.00000
     36      13.9407      0.00000
     37      14.2261      0.00000
     38      14.8199      0.00000
     39      15.6786      0.00000
     40      15.8074      0.00000

 k-point    76 :       0.4286    0.0000    0.4706
  band No.  band energies     occupation 
      1      -6.6534      2.00000
      2      -6.5198      2.00000
      3      -6.1258      2.00000
      4      -6.0650      2.00000
      5      -5.8878      2.00000
      6      -5.8759      2.00000
      7      -0.4883      2.00000
      8      -0.3057      2.00000
      9       0.5359      2.00000
     10       0.6580      2.00000
     11       1.1419      2.00000
     12       1.4351      2.00000
     13       1.9339      2.00000
     14       2.4865      2.00000
     15       2.8118      2.00000
     16       3.0395      2.00000
     17       3.2835      2.00000
     18       3.3601      2.00000
     19       4.0750      2.00000
     20       4.4041      2.00000
     21       5.5547      2.00000
     22       5.8295      2.00000
     23       5.9332      2.00000
     24       6.2593      2.00000
     25       7.2123      2.00000
     26       7.4285      2.00000
     27       7.8230      2.00000
     28       8.2041      2.00000
     29       8.5291      2.00000
     30       8.8439      2.00000
     31      10.6404      2.00000
     32      10.8647      2.00000
     33      12.9156      0.00000
     34      13.0999      0.00000
     35      13.1831      0.00000
     36      13.6272      0.00000
     37      14.4567      0.00000
     38      14.9961      0.00000
     39      15.7283      0.00000
     40      15.8270      0.00000

 k-point    77 :       0.1429    0.1429    0.4706
  band No.  band energies     occupation 
      1      -6.7407      2.00000
      2      -6.4584      2.00000
      3      -6.0966      2.00000
      4      -6.0372      2.00000
      5      -5.8963      2.00000
      6      -5.8815      2.00000
      7      -0.3386      2.00000
      8      -0.1325      2.00000
      9       0.2679      2.00000
     10       0.5190      2.00000
     11       0.7869      2.00000
     12       1.1131      2.00000
     13       2.2878      2.00000
     14       2.7659      2.00000
     15       2.9147      2.00000
     16       3.2225      2.00000
     17       3.3515      2.00000
     18       3.5510      2.00000
     19       3.9322      2.00000
     20       4.2281      2.00000
     21       5.7549      2.00000
     22       5.8655      2.00000
     23       6.0484      2.00000
     24       6.1601      2.00000
     25       7.1131      2.00000
     26       7.3855      2.00000
     27       8.0290      2.00000
     28       8.0899      2.00000
     29       8.4315      2.00000
     30       8.5816      2.00000
     31      10.2519      2.00000
     32      10.7702      2.00000
     33      12.9396      0.00000
     34      13.2921      0.00000
     35      13.5360      0.00000
     36      13.9855      0.00000
     37      14.1947      0.00000
     38      14.7609      0.00000
     39      15.6633      0.00000
     40      15.8377      0.00000

 k-point    78 :       0.2857    0.1429    0.4706
  band No.  band energies     occupation 
      1      -6.6757      2.00000
      2      -6.4981      2.00000
      3      -6.1464      2.00000
      4      -6.0310      2.00000
      5      -5.9026      2.00000
      6      -5.8710      2.00000
      7      -0.4542      2.00000
      8      -0.3009      2.00000
      9       0.4818      2.00000
     10       0.6730      2.00000
     11       1.0587      2.00000
     12       1.3681      2.00000
     13       1.9715      2.00000
     14       2.5372      2.00000
     15       2.9447      2.00000
     16       3.0121      2.00000
     17       3.3044      2.00000
     18       3.3809      2.00000
     19       4.0667      2.00000
     20       4.3334      2.00000
     21       5.6191      2.00000
     22       5.8265      2.00000
     23       5.9363      2.00000
     24       6.2385      2.00000
     25       7.2067      2.00000
     26       7.3941      2.00000
     27       7.8568      2.00000
     28       8.0889      2.00000
     29       8.6543      2.00000
     30       8.8466      2.00000
     31      10.5556      2.00000
     32      10.7734      2.00000
     33      12.9330      0.00000
     34      13.0896      0.00000
     35      13.2790      0.00000
     36      13.6469      0.00000
     37      14.4799      0.00000
     38      15.0204      0.00000
     39      15.6798      0.00000
     40      15.7710      0.00000

 k-point    79 :       0.4286    0.1429    0.4706
  band No.  band energies     occupation 
      1      -6.6241      2.00000
      2      -6.5393      2.00000
      3      -6.1665      2.00000
      4      -6.0264      2.00000
      5      -5.9075      2.00000
      6      -5.8674      2.00000
      7      -0.4936      2.00000
      8      -0.3617      2.00000
      9       0.6735      2.00000
     10       0.6993      2.00000
     11       1.1237      2.00000
     12       1.4327      2.00000
     13       1.9087      2.00000
     14       2.4310      2.00000
     15       2.8345      2.00000
     16       3.0756      2.00000
     17       3.2365      2.00000
     18       3.3022      2.00000
     19       4.1061      2.00000
     20       4.3658      2.00000
     21       5.5741      2.00000
     22       5.7793      2.00000
     23       5.8935      2.00000
     24       6.2723      2.00000
     25       7.2543      2.00000
     26       7.4066      2.00000
     27       7.8195      2.00000
     28       8.0576      2.00000
     29       8.7137      2.00000
     30       9.0250      2.00000
     31      10.6601      2.00000
     32      10.8000      2.00000
     33      12.9149      0.00000
     34      13.0465      0.00000
     35      13.1045      0.00000
     36      13.4704      0.00000
     37      14.6391      0.00000
     38      15.0929      0.00000
     39      15.7294      0.00000
     40      15.7365      0.00000

 k-point    80 :      -0.4286    0.1429    0.4706
  band No.  band energies     occupation 
      1      -6.6756      2.00000
      2      -6.4981      2.00000
      3      -6.1464      2.00000
      4      -6.0310      2.00000
      5      -5.9026      2.00000
      6      -5.8710      2.00000
      7      -0.4556      2.00000
      8      -0.2983      2.00000
      9       0.4701      2.00000
     10       0.6878      2.00000
     11       1.0552      2.00000
     12       1.3664      2.00000
     13       1.9727      2.00000
     14       2.5358      2.00000
     15       2.9150      2.00000
     16       3.0521      2.00000
     17       3.3116      2.00000
     18       3.3645      2.00000
     19       4.0655      2.00000
     20       4.3335      2.00000
     21       5.6209      2.00000
     22       5.8139      2.00000
     23       5.9481      2.00000
     24       6.2491      2.00000
     25       7.1660      2.00000
     26       7.3980      2.00000
     27       7.9196      2.00000
     28       8.0814      2.00000
     29       8.5728      2.00000
     30       8.9044      2.00000
     31      10.5333      2.00000
     32      10.7888      2.00000
     33      12.9333      0.00000
     34      13.1267      0.00000
     35      13.2431      0.00000
     36      13.6516      0.00000
     37      14.4761      0.00000
     38      15.0078      0.00000
     39      15.6900      0.00000
     40      15.7900      0.00000

 k-point    81 :       0.2857    0.2857    0.4706
  band No.  band energies     occupation 
      1      -6.6123      2.00000
      2      -6.5431      2.00000
      3      -6.1930      2.00000
      4      -5.9875      2.00000
      5      -5.9332      2.00000
      6      -5.8639      2.00000
      7      -0.4737      2.00000
      8      -0.4103      2.00000
      9       0.7139      2.00000
     10       0.8353      2.00000
     11       1.0147      2.00000
     12       1.3945      2.00000
     13       1.9135      2.00000
     14       2.4142      2.00000
     15       2.9555      2.00000
     16       3.0436      2.00000
     17       3.2030      2.00000
     18       3.2657      2.00000
     19       4.1572      2.00000
     20       4.2796      2.00000
     21       5.6368      2.00000
     22       5.7277      2.00000
     23       5.8503      2.00000
     24       6.2777      2.00000
     25       7.2767      2.00000
     26       7.3697      2.00000
     27       7.8639      2.00000
     28       7.9502      2.00000
     29       8.8325      2.00000
     30       9.1885      2.00000
     31      10.6422      2.00000
     32      10.6834      2.00000
     33      12.9451      0.00000
     34      12.9778      0.00000
     35      13.0975      0.00000
     36      13.3626      0.00000
     37      14.8368      0.00000
     38      15.1258      0.00000
     39      15.6540      0.00000
     40      15.6779      0.00000


--------------------------------------------------------------------------------------------------------


 soft charge-density along one line, spin component           1
         0         1         2         3         4         5         6         7         8         9
 total charge-density along one line
 
 pseudopotential strength for first ion, spin component:           1
 12.071  14.460   0.002  -0.000  -0.001   0.007  -0.000  -0.002
 14.460  17.323   0.002  -0.000  -0.001   0.008  -0.000  -0.002
  0.002   0.002  -5.474   0.000   0.002  -7.192   0.000   0.003
 -0.000  -0.000   0.000  -5.482   0.000   0.000  -7.207   0.000
 -0.001  -0.001   0.002   0.000  -5.501   0.003   0.000  -7.236
  0.007   0.008  -7.192   0.000   0.003  -8.708   0.000   0.005
 -0.000  -0.000   0.000  -7.207   0.000   0.000  -8.731   0.000
 -0.002  -0.002   0.003   0.000  -7.236   0.005   0.000  -8.778
 total augmentation occupancy for first ion, spin component:           1
  8.308  -4.048  -0.383   0.000   0.098   0.158   0.000  -0.042
 -4.048   2.162   0.361   0.000  -0.081  -0.128   0.000   0.032
 -0.383   0.361   2.075   0.000  -0.046  -0.320   0.000   0.013
  0.000   0.000   0.000   2.391  -0.000  -0.000  -0.402   0.000
  0.098  -0.081  -0.046   0.000   2.511   0.014  -0.000  -0.469
  0.158  -0.128  -0.320   0.000   0.014   0.067  -0.000  -0.005
  0.000   0.000   0.000  -0.402  -0.000  -0.000   0.081  -0.000
 -0.042   0.032   0.013   0.000  -0.469  -0.005   0.000   0.106


------------------------ aborting loop because EDIFF is reached ----------------------------------------


    CHARGE:  cpu time    0.1225: real time    0.1225
    FORLOC:  cpu time    0.0036: real time    0.0036
    FORNL :  cpu time    0.8620: real time    0.8622
    STRESS:  cpu time    2.5987: real time    2.5990
    FORCOR:  cpu time    0.0170: real time    0.0170
    FORHAR:  cpu time    0.0052: real time    0.0052
    MIXING:  cpu time    0.0004: real time    0.0005
    OFIELD:  cpu time    0.0000: real time    0.0000

  FORCE on cell =-STRESS in cart. coord.  units (eV):
  Direction    XX          YY          ZZ          XY          YZ          ZX
  --------------------------------------------------------------------------------------
  Alpha Z    92.47748    92.47748    92.47748
  Ewald    -901.00421  -901.00421  -586.32877    -0.00000    -0.00000    -0.00000
  Hartree   120.89159   120.89159   323.36122     0.00000    -0.00000    -0.00000
  E(xc)    -246.11459  -246.11458  -246.09542    -0.00000     0.00000     0.00000
  Local    -102.72818  -102.72786  -621.55933    -0.00000    -0.00000    -0.00000
  n-local   213.81754   213.73219   215.63812    -0.51545     0.21875    -0.63597
  augment   -36.80999   -36.81026   -36.39275     0.00187     0.00000     0.00000
  Kinetic   891.40956   894.40192   891.41998    -0.77995     0.01739     0.52388
  Fock        0.00000     0.00000     0.00000     0.00000     0.00000     0.00000
  -------------------------------------------------------------------------------------
  Total      33.39274    33.39274    32.52052     0.00000     0.00000    -0.00000
  in kB     405.85977   405.85977   395.25876     0.00000     0.00000    -0.00000
  external pressure =      402.33 kB  Pullay stress =        0.00 kB


 VOLUME and BASIS-vectors are now :
 -----------------------------------------------------------------------------
  energy-cutoff  :      400.00
  volume of cell :      131.82
      direct lattice vectors                 reciprocal lattice vectors
     3.781976442 -6.550575340  0.000000000     0.132206006 -0.076329173  0.000000000
     3.781976432  6.550575345  0.000000000     0.132206006  0.076329173  0.000000000
     0.000000000  0.000000000  2.660469761     0.000000000  0.000000000  0.375873470

  length of vectors
     7.563952875  7.563952875  2.660469761     0.152658346  0.152658346  0.375873470


 FORCES acting on ions
    electron-ion (+dipol)            ewald-force                    non-local-force                 convergence-correction
 -----------------------------------------------------------------------------------------------
   0.107E+02 -.787E+02 -.287E-07   -.124E+02 0.887E+02 0.144E-14   0.166E+01 -.990E+01 0.217E-17   0.734E-02 -.209E-01 0.136E-12
   0.736E+02 -.301E+02 -.116E-06   -.830E+02 0.336E+02 0.584E-14   0.940E+01 -.351E+01 -.866E-17   0.218E-01 -.411E-02 -.120E-14
   -.628E+02 -.487E+02 -.761E-07   0.706E+02 0.551E+02 0.506E-14   -.774E+01 -.639E+01 0.952E-18   -.144E-01 -.168E-01 -.114E-11
   0.628E+02 0.487E+02 0.761E-07   -.706E+02 -.551E+02 0.455E-14   0.774E+01 0.639E+01 -.265E-17   0.144E-01 0.168E-01 -.486E-14
   -.736E+02 0.301E+02 0.116E-06   0.830E+02 -.336E+02 0.379E-14   -.940E+01 0.351E+01 0.236E-19   -.218E-01 0.411E-02 -.128E-11
   -.107E+02 0.787E+02 0.287E-07   0.124E+02 -.887E+02 0.512E-14   -.166E+01 0.990E+01 -.394E-17   -.734E-02 0.209E-01 -.980E-12
   -.181E-05 0.518E-06 0.249E-07   -.426E-13 0.965E-11 -.907E-15   -.693E-17 -.348E-16 -.172E-18   0.846E-07 0.463E-07 -.217E-13
   0.181E-05 -.518E-06 -.249E-07   0.782E-13 -.964E-11 -.857E-15   -.169E-16 0.387E-16 0.389E-17   -.846E-07 -.463E-07 0.420E-14
   0.452E+01 0.192E+02 -.651E-07   -.541E+01 -.206E+02 -.737E-15   0.894E+00 0.138E+01 -.552E-18   -.474E-02 -.577E-02 0.696E-13
   -.144E+02 0.135E+02 -.797E-07   0.151E+02 -.150E+02 -.137E-14   -.745E+00 0.146E+01 -.104E-16   0.263E-02 -.699E-02 -.119E-13
   0.189E+02 0.568E+01 -.160E-06   -.205E+02 -.560E+01 -.936E-15   0.164E+01 -.860E-01 0.165E-16   -.737E-02 0.122E-02 0.596E-13
   -.189E+02 -.568E+01 0.160E-06   0.205E+02 0.560E+01 -.132E-14   -.164E+01 0.860E-01 -.109E-16   0.737E-02 -.122E-02 -.960E-14
   -.452E+01 -.192E+02 0.651E-07   0.541E+01 0.206E+02 -.334E-14   -.894E+00 -.138E+01 0.360E-18   0.474E-02 0.577E-02 -.255E-13
   0.144E+02 -.135E+02 0.797E-07   -.151E+02 0.150E+02 -.209E-14   0.745E+00 -.146E+01 0.100E-16   -.263E-02 0.699E-02 0.270E-13
 -----------------------------------------------------------------------------------------------
   -.257E-11 -.238E-12 0.160E-10   -.124E-13 0.302E-13 0.142E-13   -.211E-14 0.422E-14 -.338E-17   0.628E-13 -.638E-12 -.317E-11
 
 
 POSITION                                       TOTAL-FORCE (eV/Angst)
 -----------------------------------------------------------------------------------
      3.87778      4.19694      1.99535        -0.006015      0.000861      0.000000
      2.08621     -1.09385      0.66512        -0.003753     -0.004779      0.000000
      5.57355     -1.25978      0.66512        -0.002262      0.005640      0.000000
      1.99041      1.25978      1.99535         0.002262     -0.005640      0.000000
      5.47774      1.09385      1.99535         0.003753      0.004779     -0.000000
      3.68618     -4.19694      0.66512         0.006015     -0.000861      0.000000
      3.78198      2.18353      1.99535        -0.000000     -0.000000      0.000000
      3.78198     -2.18353      0.66512        -0.000000     -0.000000      0.000000
      5.94529     -2.30396      1.99535        -0.000869     -0.010105      0.000000
      4.96793      3.99680      0.66512         0.008317     -0.005805     -0.000000
      4.75934      0.24982      0.66512        -0.009186     -0.004300      0.000000
      2.80461     -0.24982      1.99535         0.009186      0.004300     -0.000000
      1.61866      2.30396      0.66512         0.000869      0.010105     -0.000000
      2.59602     -3.99680      1.99535        -0.008317      0.005805     -0.000000
 -----------------------------------------------------------------------------------
    total drift:                               -0.000000     -0.000000      0.000000


--------------------------------------------------------------------------------------------------------



  FREE ENERGIE OF THE ION-ELECTRON SYSTEM (eV)
  ---------------------------------------------------
  free  energy   TOTEN  =       -92.31808474 eV

  energy  without entropy=      -92.31783577  energy(sigma->0) =      -92.31802250
 
 d Force = 0.1805524E-04[-0.126E-04, 0.487E-04]  d Energy = 0.1699394E-04 0.106E-05
 d Force = 0.2568425E+00[ 0.256E+00, 0.257E+00]  d Ewald  = 0.2568425E+00-0.365E-08


--------------------------------------------------------------------------------------------------------


    POTLOK:  cpu time    0.0174: real time    0.0258


--------------------------------------------------------------------------------------------------------




--------------------------------------------------------------------------------------------------------


  
 reached required accuracy - stopping structural energy minimisation
     LOOP+:  cpu time    8.1603: real time    8.2387
    4ORBIT:  cpu time    0.0000: real time    0.0000

 total amount of memory used by VASP MPI-rank0    44745. kBytes
=======================================================================

   base      :      30000. kBytes
   nonlr-proj:       3067. kBytes
   fftplans  :       1220. kBytes
   grid      :       1945. kBytes
   one-center:         12. kBytes
   wavefun   :       8501. kBytes
 
  
  
 General timing and accounting informations for this job:
 ========================================================
  
                  Total CPU time used (sec):      159.085
                            User time (sec):      158.387
                          System time (sec):        0.697
                         Elapsed time (sec):      161.271
  
                   Maximum memory used (kb):       60652.
                   Average memory used (kb):           0.
  
                          Minor page faults:        84224
                          Major page faults:            0
                 Voluntary context switches:         5018
