<?xml version="1.0" encoding="ISO-8859-1"?>
<modeling>
 <generator>
  <i name="program" type="string">vasp </i>
  <i name="version" type="string">5.4.4.18Apr17-6-g9f103f2a35  </i>
  <i name="subversion" type="string">(build Nov 01 2019 12:17:22) complex            parallel </i>
  <i name="platform" type="string">LinuxIFC </i>
  <i name="date" type="string">2023 05 19 </i>
  <i name="time" type="string">18:18:47 </i>
 </generator>
 <incar>
  <i type="string" name="PREC">accurate</i>
  <i type="string" name="ALGO"> Fast</i>
  <i type="int" name="IBRION">     2</i>
  <i type="int" name="NSW">   100</i>
  <i type="int" name="ISIF">     2</i>
  <i type="string" name="LREAL"> Auto</i>
  <i type="int" name="ISMEAR">     2</i>
  <i name="SIGMA">      0.10000000</i>
  <i type="logical" name="LWAVE"> F  </i>
  <i type="logical" name="LCHARG"> F  </i>
  <v type="int" name="KPOINT_BSE">    -1     0     0     0</v>
 </incar>
 <structure name="primitive_cell" >
  <crystal>
   <varray name="basis" >
    <v>       3.78197644      -6.55057534       0.00000000 </v>
    <v>       3.78197643       6.55057535       0.00000000 </v>
    <v>       0.00000000       0.00000000       2.66046976 </v>
   </varray>
   <i name="volume">    131.82160271 </i>
   <varray name="rec_basis" >
    <v>       0.13220601      -0.07632917       0.00000000 </v>
    <v>       0.13220601       0.07632917       0.00000000 </v>
    <v>       0.00000000       0.00000000       0.37587347 </v>
   </varray>
  </crystal>
  <varray name="positions" >
   <v>       0.19708959      -0.16848230      -0.25000000 </v>
   <v>      -0.03641246      -0.38753655      -0.25000000 </v>
   <v>       0.35112409      -0.03641246       0.25000000 </v>
   <v>       0.33333333      -0.33333333      -0.25000000 </v>
   <v>       0.36557189       0.19708959       0.25000000 </v>
   <v>      -0.16848230      -0.36557189       0.25000000 </v>
   <v>      -0.35112409       0.03641246      -0.25000000 </v>
   <v>       0.03641246       0.38753655       0.25000000 </v>
   <v>       0.16848230       0.36557189      -0.25000000 </v>
   <v>      -0.36557189      -0.19708959      -0.25000000 </v>
   <v>       0.38753655       0.35112409      -0.25000000 </v>
   <v>      -0.33333333       0.33333333       0.25000000 </v>
   <v>      -0.38753655      -0.35112409       0.25000000 </v>
   <v>      -0.19708959       0.16848230       0.25000000 </v>
  </varray>
 </structure>
 <varray name="primitive_index" >
  <v type="int" >        1 </v>
  <v type="int" >        9 </v>
  <v type="int" >       10 </v>
  <v type="int" >        7 </v>
  <v type="int" >        2 </v>
  <v type="int" >        3 </v>
  <v type="int" >       14 </v>
  <v type="int" >       13 </v>
  <v type="int" >        4 </v>
  <v type="int" >        5 </v>
  <v type="int" >       12 </v>
  <v type="int" >        8 </v>
  <v type="int" >       11 </v>
  <v type="int" >        6 </v>
 </varray>
 <kpoints>
  <generation param="Auto">
   <i name="subdivisionlength">     45.00000000 </i>
   <v type="int" name="divisions">       7        7       17 </v>
   <v name="usershift">      0.00000000       0.00000000       0.00000000 </v>
   <v name="genvec1">      0.14285714       0.00000000       0.00000000 </v>
   <v name="genvec2">     -0.00000000       0.14285714       0.00000000 </v>
   <v name="genvec3">      0.00000000       0.00000000       0.05882353 </v>
   <v name="shift">      0.00000000       0.00000000       0.00000000 </v>
  </generation>
  <varray name="kpointlist" >
   <v>       0.00000000       0.00000000       0.00000000 </v>
   <v>       0.14285714       0.00000000       0.00000000 </v>
   <v>       0.28571429       0.00000000       0.00000000 </v>
   <v>       0.42857143       0.00000000       0.00000000 </v>
   <v>       0.14285714       0.14285714       0.00000000 </v>
   <v>       0.28571429       0.14285714       0.00000000 </v>
   <v>       0.42857143       0.14285714       0.00000000 </v>
   <v>      -0.42857143       0.14285714       0.00000000 </v>
   <v>       0.28571429       0.28571429       0.00000000 </v>
   <v>       0.00000000       0.00000000       0.05882353 </v>
   <v>       0.14285714       0.00000000       0.05882353 </v>
   <v>       0.28571429       0.00000000       0.05882353 </v>
   <v>       0.42857143       0.00000000       0.05882353 </v>
   <v>       0.14285714       0.14285714       0.05882353 </v>
   <v>       0.28571429       0.14285714       0.05882353 </v>
   <v>       0.42857143       0.14285714       0.05882353 </v>
   <v>      -0.42857143       0.14285714       0.05882353 </v>
   <v>       0.28571429       0.28571429       0.05882353 </v>
   <v>       0.00000000       0.00000000       0.11764706 </v>
   <v>       0.14285714       0.00000000       0.11764706 </v>
   <v>       0.28571429       0.00000000       0.11764706 </v>
   <v>       0.42857143       0.00000000       0.11764706 </v>
   <v>       0.14285714       0.14285714       0.11764706 </v>
   <v>       0.28571429       0.14285714       0.11764706 </v>
   <v>       0.42857143       0.14285714       0.11764706 </v>
   <v>      -0.42857143       0.14285714       0.11764706 </v>
   <v>       0.28571429       0.28571429       0.11764706 </v>
   <v>       0.00000000       0.00000000       0.17647059 </v>
   <v>       0.14285714       0.00000000       0.17647059 </v>
   <v>       0.28571429       0.00000000       0.17647059 </v>
   <v>       0.42857143       0.00000000       0.17647059 </v>
   <v>       0.14285714       0.14285714       0.17647059 </v>
   <v>       0.28571429       0.14285714       0.17647059 </v>
   <v>       0.42857143       0.14285714       0.17647059 </v>
   <v>      -0.42857143       0.14285714       0.17647059 </v>
   <v>       0.28571429       0.28571429       0.17647059 </v>
   <v>       0.00000000       0.00000000       0.23529412 </v>
   <v>       0.14285714       0.00000000       0.23529412 </v>
   <v>       0.28571429       0.00000000       0.23529412 </v>
   <v>       0.42857143       0.00000000       0.23529412 </v>
   <v>       0.14285714       0.14285714       0.23529412 </v>
   <v>       0.28571429       0.14285714       0.23529412 </v>
   <v>       0.42857143       0.14285714       0.23529412 </v>
   <v>      -0.42857143       0.14285714       0.23529412 </v>
   <v>       0.28571429       0.28571429       0.23529412 </v>
   <v>       0.00000000       0.00000000       0.29411765 </v>
   <v>       0.14285714       0.00000000       0.29411765 </v>
   <v>       0.28571429       0.00000000       0.29411765 </v>
   <v>       0.42857143       0.00000000       0.29411765 </v>
   <v>       0.14285714       0.14285714       0.29411765 </v>
   <v>       0.28571429       0.14285714       0.29411765 </v>
   <v>       0.42857143       0.14285714       0.29411765 </v>
   <v>      -0.42857143       0.14285714       0.29411765 </v>
   <v>       0.28571429       0.28571429       0.29411765 </v>
   <v>       0.00000000       0.00000000       0.35294118 </v>
   <v>       0.14285714       0.00000000       0.35294118 </v>
   <v>       0.28571429       0.00000000       0.35294118 </v>
   <v>       0.42857143       0.00000000       0.35294118 </v>
   <v>       0.14285714       0.14285714       0.35294118 </v>
   <v>       0.28571429       0.14285714       0.35294118 </v>
   <v>       0.42857143       0.14285714       0.35294118 </v>
   <v>      -0.42857143       0.14285714       0.35294118 </v>
   <v>       0.28571429       0.28571429       0.35294118 </v>
   <v>       0.00000000       0.00000000       0.41176471 </v>
   <v>       0.14285714       0.00000000       0.41176471 </v>
   <v>       0.28571429       0.00000000       0.41176471 </v>
   <v>       0.42857143       0.00000000       0.41176471 </v>
   <v>       0.14285714       0.14285714       0.41176471 </v>
   <v>       0.28571429       0.14285714       0.41176471 </v>
   <v>       0.42857143       0.14285714       0.41176471 </v>
   <v>      -0.42857143       0.14285714       0.41176471 </v>
   <v>       0.28571429       0.28571429       0.41176471 </v>
   <v>       0.00000000       0.00000000       0.47058824 </v>
   <v>       0.14285714       0.00000000       0.47058824 </v>
   <v>       0.28571429       0.00000000       0.47058824 </v>
   <v>       0.42857143       0.00000000       0.47058824 </v>
   <v>       0.14285714       0.14285714       0.47058824 </v>
   <v>       0.28571429       0.14285714       0.47058824 </v>
   <v>       0.42857143       0.14285714       0.47058824 </v>
   <v>      -0.42857143       0.14285714       0.47058824 </v>
   <v>       0.28571429       0.28571429       0.47058824 </v>
  </varray>
  <varray name="weights" >
   <v>       0.00120048 </v>
   <v>       0.00720288 </v>
   <v>       0.00720288 </v>
   <v>       0.00720288 </v>
   <v>       0.00720288 </v>
   <v>       0.00720288 </v>
   <v>       0.00720288 </v>
   <v>       0.00720288 </v>
   <v>       0.00720288 </v>
   <v>       0.00240096 </v>
   <v>       0.01440576 </v>
   <v>       0.01440576 </v>
   <v>       0.01440576 </v>
   <v>       0.01440576 </v>
   <v>       0.01440576 </v>
   <v>       0.01440576 </v>
   <v>       0.01440576 </v>
   <v>       0.01440576 </v>
   <v>       0.00240096 </v>
   <v>       0.01440576 </v>
   <v>       0.01440576 </v>
   <v>       0.01440576 </v>
   <v>       0.01440576 </v>
   <v>       0.01440576 </v>
   <v>       0.01440576 </v>
   <v>       0.01440576 </v>
   <v>       0.01440576 </v>
   <v>       0.00240096 </v>
   <v>       0.01440576 </v>
   <v>       0.01440576 </v>
   <v>       0.01440576 </v>
   <v>       0.01440576 </v>
   <v>       0.01440576 </v>
   <v>       0.01440576 </v>
   <v>       0.01440576 </v>
   <v>       0.01440576 </v>
   <v>       0.00240096 </v>
   <v>       0.01440576 </v>
   <v>       0.01440576 </v>
   <v>       0.01440576 </v>
   <v>       0.01440576 </v>
   <v>       0.01440576 </v>
   <v>       0.01440576 </v>
   <v>       0.01440576 </v>
   <v>       0.01440576 </v>
   <v>       0.00240096 </v>
   <v>       0.01440576 </v>
   <v>       0.01440576 </v>
   <v>       0.01440576 </v>
   <v>       0.01440576 </v>
   <v>       0.01440576 </v>
   <v>       0.01440576 </v>
   <v>       0.01440576 </v>
   <v>       0.01440576 </v>
   <v>       0.00240096 </v>
   <v>       0.01440576 </v>
   <v>       0.01440576 </v>
   <v>       0.01440576 </v>
   <v>       0.01440576 </v>
   <v>       0.01440576 </v>
   <v>       0.01440576 </v>
   <v>       0.01440576 </v>
   <v>       0.01440576 </v>
   <v>       0.00240096 </v>
   <v>       0.01440576 </v>
   <v>       0.01440576 </v>
   <v>       0.01440576 </v>
   <v>       0.01440576 </v>
   <v>       0.01440576 </v>
   <v>       0.01440576 </v>
   <v>       0.01440576 </v>
   <v>       0.01440576 </v>
   <v>       0.00240096 </v>
   <v>       0.01440576 </v>
   <v>       0.01440576 </v>
   <v>       0.01440576 </v>
   <v>       0.01440576 </v>
   <v>       0.01440576 </v>
   <v>       0.01440576 </v>
   <v>       0.01440576 </v>
   <v>       0.01440576 </v>
  </varray>
 </kpoints>
 <parameters>
  <separator name="general" >
   <i type="string" name="SYSTEM">unknown system</i>
   <i type="logical" name="LCOMPAT"> F  </i>
  </separator>
  <separator name="electronic" >
   <i type="string" name="PREC">accura</i>
   <i name="ENMAX">    400.00000000</i>
   <i name="ENAUG">    627.11200000</i>
   <i name="EDIFF">      0.00010000</i>
   <i type="int" name="IALGO">    68</i>
   <i type="int" name="IWAVPR">    11</i>
   <i type="int" name="NBANDS">    40</i>
   <i name="NELECT">     62.00000000</i>
   <i type="int" name="TURBO">     0</i>
   <i type="int" name="IRESTART">     0</i>
   <i type="int" name="NREBOOT">     0</i>
   <i type="int" name="NMIN">     0</i>
   <i name="EREF">      0.00000000</i>
   <separator name="electronic smearing" >
    <i type="int" name="ISMEAR">     2</i>
    <i name="SIGMA">      0.10000000</i>
    <i name="KSPACING">      0.50000000</i>
    <i type="logical" name="KGAMMA"> T  </i>
   </separator>
   <separator name="electronic projectors" >
    <i type="logical" name="LREAL"> T  </i>
    <v name="ROPT">     -0.00025000     -0.00025000</v>
    <i type="int" name="LMAXPAW">  -100</i>
    <i type="int" name="LMAXMIX">     2</i>
    <i type="logical" name="NLSPLINE"> F  </i>
   </separator>
   <separator name="electronic startup" >
    <i type="int" name="ISTART">     0</i>
    <i type="int" name="ICHARG">     2</i>
    <i type="int" name="INIWAV">     1</i>
   </separator>
   <separator name="electronic spin" >
    <i type="int" name="ISPIN">     1</i>
    <i type="logical" name="LNONCOLLINEAR"> F  </i>
    <v name="MAGMOM">      1.00000000      1.00000000      1.00000000      1.00000000      1.00000000      1.00000000      1.00000000      1.00000000      1.00000000      1.00000000      1.00000000      1.00000000      1.00000000      1.00000000</v>
    <i name="NUPDOWN">     -1.00000000</i>
    <i type="logical" name="LSORBIT"> F  </i>
    <v name="SAXIS">      0.00000000      0.00000000      1.00000000</v>
    <i type="logical" name="LSPIRAL"> F  </i>
    <v name="QSPIRAL">      0.00000000      0.00000000      0.00000000</v>
    <i type="logical" name="LZEROZ"> F  </i>
   </separator>
   <separator name="electronic exchange-correlation" >
    <i type="logical" name="LASPH"> F  </i>
    <i type="logical" name="LMETAGGA"> F  </i>
   </separator>
   <separator name="electronic convergence" >
    <i type="int" name="NELM">    60</i>
    <i type="int" name="NELMDL">    -5</i>
    <i type="int" name="NELMIN">     2</i>
    <i name="ENINI">    400.00000000</i>
    <separator name="electronic convergence detail" >
     <i type="logical" name="LDIAG"> T  </i>
     <i type="logical" name="LSUBROT"> F  </i>
     <i name="WEIMIN">      0.00100000</i>
     <i name="EBREAK">      0.00000063</i>
     <i name="DEPER">      0.30000000</i>
     <i type="int" name="NRMM">     4</i>
     <i name="TIME">      0.40000000</i>
    </separator>
   </separator>
   <separator name="electronic mixer" >
    <i name="AMIX">      0.40000000</i>
    <i name="BMIX">      1.00000000</i>
    <i name="AMIN">      0.10000000</i>
    <i name="AMIX_MAG">      1.60000000</i>
    <i name="BMIX_MAG">      1.00000000</i>
    <separator name="electronic mixer details" >
     <i type="int" name="IMIX">     4</i>
     <i type="logical" name="MIXFIRST"> F  </i>
     <i type="int" name="MAXMIX">   -45</i>
     <i name="WC">    100.00000000</i>
     <i type="int" name="INIMIX">     1</i>
     <i type="int" name="MIXPRE">     1</i>
     <i type="int" name="MREMOVE">     5</i>
    </separator>
   </separator>
   <separator name="electronic dipolcorrection" >
    <i type="logical" name="LDIPOL"> F  </i>
    <i type="logical" name="LMONO"> F  </i>
    <i type="int" name="IDIPOL">     0</i>
    <i name="EPSILON">      1.00000000</i>
    <v name="DIPOL">   -100.00000000   -100.00000000   -100.00000000</v>
    <i name="EFIELD">      0.00000000</i>
   </separator>
  </separator>
  <separator name="grids" >
   <i type="int" name="NGX">    50</i>
   <i type="int" name="NGY">    50</i>
   <i type="int" name="NGZ">    18</i>
   <i type="int" name="NGXF">   100</i>
   <i type="int" name="NGYF">   100</i>
   <i type="int" name="NGZF">    36</i>
   <i type="logical" name="ADDGRID"> F  </i>
  </separator>
  <separator name="ionic" >
   <i type="int" name="NSW">   100</i>
   <i type="int" name="IBRION">     2</i>
   <i type="int" name="MDALGO">     0</i>
   <i type="int" name="ISIF">     2</i>
   <i name="PSTRESS">      0.00000000</i>
   <i name="EDIFFG">      0.00100000</i>
   <i type="int" name="NFREE">     1</i>
   <i name="POTIM">      0.50000000</i>
   <i name="SMASS">     -3.00000000</i>
   <i name="SCALEE">      1.00000000</i>
  </separator>
  <separator name="ionic md" >
   <i name="TEBEG">      0.00010000</i>
   <i name="TEEND">      0.00010000</i>
   <i type="int" name="NBLOCK">     1</i>
   <i type="int" name="KBLOCK">   100</i>
   <i type="int" name="NPACO">   256</i>
   <i name="APACO">     16.00000000</i>
  </separator>
  <separator name="symmetry" >
   <i type="int" name="ISYM">     2</i>
   <i name="SYMPREC">      0.00001000</i>
  </separator>
  <separator name="dos" >
   <i type="int" name="LORBIT">     0</i>
   <v name="RWIGS">     -1.00000000     -1.00000000</v>
   <i type="int" name="NEDOS">   301</i>
   <i name="EMIN">     10.00000000</i>
   <i name="EMAX">    -10.00000000</i>
   <i name="EFERMI">      0.00000000</i>
  </separator>
  <separator name="writing" >
   <i type="int" name="NWRITE">     2</i>
   <i type="logical" name="LWAVE"> F  </i>
   <i type="logical" name="LDOWNSAMPLE"> F  </i>
   <i type="logical" name="LCHARG"> F  </i>
   <i type="logical" name="LPARD"> F  </i>
   <i type="logical" name="LVTOT"> F  </i>
   <i type="logical" name="LVHAR"> F  </i>
   <i type="logical" name="LELF"> F  </i>
   <i type="logical" name="LOPTICS"> F  </i>
   <v name="STM">      0.00000000      0.00000000      0.00000000      0.00000000      0.00000000      0.00000000      0.00000000</v>
  </separator>
  <separator name="performance" >
   <i type="int" name="NPAR">     4</i>
   <i type="int" name="NSIM">     4</i>
   <i type="int" name="NBLK">    -1</i>
   <i type="logical" name="LPLANE"> T  </i>
   <i type="logical" name="LSCALAPACK"> F  </i>
   <i type="logical" name="LSCAAWARE"> F  </i>
   <i type="logical" name="LSCALU"> F  </i>
   <i type="logical" name="LASYNC"> F  </i>
   <i type="logical" name="LORBITALREAL"> F  </i>
  </separator>
  <separator name="miscellaneous" >
   <i type="int" name="IDIOT">     3</i>
   <i type="int" name="ISPECIAL">     0</i>
   <i type="logical" name="LMUSIC"> F  </i>
   <v name="POMASS">     14.00100000     28.08500000</v>
   <v name="DARWINR">      0.00000000      0.00000000</v>
   <v name="DARWINV">      1.00000000      1.00000000</v>
   <i type="logical" name="LCORR"> T  </i>
  </separator>
  <i type="logical" name="GGA_COMPAT"> T  </i>
  <i type="logical" name="LBERRY"> F  </i>
  <i type="int" name="ICORELEVEL">     0</i>
  <i type="logical" name="LDAU"> F  </i>
  <i type="int" name="I_CONSTRAINED_M">     0</i>
  <separator name="electronic exchange-correlation" >
   <i type="string" name="GGA">--</i>
   <i type="int" name="VOSKOWN">     0</i>
   <i type="logical" name="LHFCALC"> F  </i>
   <i type="string" name="PRECFOCK"></i>
   <i type="logical" name="LSYMGRAD"> F  </i>
   <i type="logical" name="LHFONE"> F  </i>
   <i type="logical" name="LRHFCALC"> F  </i>
   <i type="logical" name="LTHOMAS"> F  </i>
   <i type="logical" name="LMODELHF"> F  </i>
   <i name="ENCUT4O">     -1.00000000</i>
   <i type="int" name="EXXOEP">     0</i>
   <i type="int" name="FOURORBIT">     0</i>
   <i name="AEXX">      0.00000000</i>
   <i name="HFALPHA">      0.00000000</i>
   <i name="MCALPHA">      0.00000000</i>
   <i name="ALDAX">      1.00000000</i>
   <i name="AGGAX">      1.00000000</i>
   <i name="ALDAC">      1.00000000</i>
   <i name="AGGAC">      1.00000000</i>
   <i type="int" name="NKREDX">     1</i>
   <i type="int" name="NKREDY">     1</i>
   <i type="int" name="NKREDZ">     1</i>
   <i type="logical" name="SHIFTRED"> F  </i>
   <i type="logical" name="ODDONLY"> F  </i>
   <i type="logical" name="EVENONLY"> F  </i>
   <i type="int" name="LMAXFOCK">     0</i>
   <i type="int" name="NMAXFOCKAE">     0</i>
   <i type="logical" name="LFOCKAEDFT"> F  </i>
   <i name="HFSCREEN">      0.00000000</i>
   <i name="HFSCREENC">      0.00000000</i>
   <i type="int" name="NBANDSGWLOW">     0</i>
  </separator>
  <separator name="vdW DFT" >
   <i type="logical" name="LUSE_VDW"> F  </i>
   <i name="Zab_VDW">     -0.84910000</i>
   <i name="PARAM1">      0.12340000</i>
   <i name="PARAM2">      1.00000000</i>
   <i name="PARAM3">      0.00000000</i>
  </separator>
  <separator name="model GW" >
   <i type="int" name="MODEL_GW">     0</i>
   <i name="MODEL_EPS0">      5.64949726</i>
   <i name="MODEL_ALPHA">      1.00000000</i>
  </separator>
  <separator name="linear response parameters" >
   <i type="logical" name="LEPSILON"> F  </i>
   <i type="logical" name="LRPA"> F  </i>
   <i type="logical" name="LNABLA"> F  </i>
   <i type="logical" name="LVEL"> F  </i>
   <i type="int" name="KINTER">     0</i>
   <i name="CSHIFT">      0.10000000</i>
   <i name="OMEGAMAX">     -1.00000000</i>
   <i name="DEG_THRESHOLD">      0.00200000</i>
   <i name="RTIME">     -0.10000000</i>
   <i name="WPLASMAI">      0.00000000</i>
   <v name="DFIELD">      0.00000000      0.00000000      0.00000000</v>
   <v name="WPLASMA">      0.00000000      0.00000000      0.00000000      0.00000000      0.00000000      0.00000000      0.00000000      0.00000000      0.00000000</v>
  </separator>
  <separator name="orbital magnetization" >
   <i type="logical" name="NUCIND"> F  </i>
   <v name="MAGPOS">      0.00000000      0.00000000      0.00000000</v>
   <i type="logical" name="LNICSALL"> T  </i>
   <i type="logical" name="ORBITALMAG"> F  </i>
   <i type="logical" name="LMAGBLOCH"> F  </i>
   <i type="logical" name="LCHIMAG"> F  </i>
   <i type="logical" name="LGAUGE"> T  </i>
   <i type="int" name="MAGATOM">     0</i>
   <v name="MAGDIPOL">      0.00000000      0.00000000      0.00000000</v>
   <v name="AVECCONST">      0.00000000      0.00000000      0.00000000</v>
  </separator>
  <separator name="response functions" >
   <i type="logical" name="LADDER"> F  </i>
   <i type="logical" name="LRPAFORCE"> F  </i>
   <i type="logical" name="LFXC"> F  </i>
   <i type="logical" name="LHARTREE"> T  </i>
   <i type="int" name="IBSE">     0</i>
   <v type="int" name="KPOINT">    -1     0     0     0</v>
   <i type="logical" name="LTCTE"> F  </i>
   <i type="logical" name="LTETE"> F  </i>
   <i type="logical" name="LTRIPLET"> F  </i>
   <i type="logical" name="LFXCEPS"> F  </i>
   <i type="logical" name="LFXHEG"> F  </i>
   <i type="int" name="NATURALO">     2</i>
   <i type="logical" name="L2ORDER"> F  </i>
   <i type="logical" name="LMP2LT"> F  </i>
   <i type="logical" name="LUSEW"> F  </i>
   <i name="ENCUTGW">     -2.00000000</i>
   <i name="ENCUTGWSOFT">     -2.00000000</i>
   <i name="ENCUTLF">     -1.00000000</i>
   <i type="int" name="LMAXMP2">    -1</i>
   <i name="SCISSOR">      0.00000000</i>
   <i type="int" name="NOMEGA">     0</i>
   <i type="int" name="NOMEGAR">     0</i>
   <i type="int" name="NBANDSGW">    -1</i>
   <i type="int" name="NBANDSO">    -1</i>
   <i type="int" name="NBANDSV">    -1</i>
   <i type="int" name="NELM">     1</i>
   <i type="int" name="NELMHF">     1</i>
   <i type="int" name="DIM">     3</i>
   <i type="int" name="ANTIRES">     0</i>
   <i name="OMEGAMAX">    -30.00000000</i>
   <i name="OMEGAMIN">    -30.00000000</i>
   <i name="OMEGATL">   -200.00000000</i>
   <i type="int" name="OMEGAGRID">   140</i>
   <i name="CSHIFT">     -0.10000000</i>
   <i type="logical" name="SELFENERGY"> F  </i>
   <i type="logical" name="LSPECTRAL"> F  </i>
   <i type="logical" name="LSPECTRALGW"> F  </i>
   <i type="logical" name="LSINGLES"> F  </i>
   <i type="logical" name="LFERMIGW"> F  </i>
   <i type="logical" name="ODDONLYGW"> F  </i>
   <i type="logical" name="EVENONLYGW"> F  </i>
   <i type="int" name="NKREDLFX">     1</i>
   <i type="int" name="NKREDLFY">     1</i>
   <i type="int" name="NKREDLFZ">     1</i>
   <i type="int" name="MAXMEM">  2800</i>
   <i type="int" name="TELESCOPE">     0</i>
   <i type="int" name="TAUPAR">     1</i>
   <i type="int" name="OMEGAPAR">    -1</i>
   <i name="LAMBDA">      1.00000000</i>
  </separator>
  <separator name="External order field" >
   <i name="OFIELD_KAPPA">      0.00000000</i>
   <v name="OFIELD_K">      0.00000000      0.00000000      0.00000000</v>
   <i name="OFIELD_Q6_NEAR">      0.00000000</i>
   <i name="OFIELD_Q6_FAR">      0.00000000</i>
   <i name="OFIELD_A">      0.00000000</i>
  </separator>
 </parameters>
 <atominfo>
  <atoms>      14 </atoms>
  <types>       2 </types>
  <array name="atoms" >
   <dimension dim="1">ion</dimension>
   <field type="string">element</field>
   <field type="int">atomtype</field>
   <set>
    <rc><c>N </c><c>   1</c></rc>
    <rc><c>N </c><c>   1</c></rc>
    <rc><c>N </c><c>   1</c></rc>
    <rc><c>N </c><c>   1</c></rc>
    <rc><c>N </c><c>   1</c></rc>
    <rc><c>N </c><c>   1</c></rc>
    <rc><c>Si</c><c>   2</c></rc>
    <rc><c>Si</c><c>   2</c></rc>
    <rc><c>Si</c><c>   2</c></rc>
    <rc><c>Si</c><c>   2</c></rc>
    <rc><c>Si</c><c>   2</c></rc>
    <rc><c>Si</c><c>   2</c></rc>
    <rc><c>Si</c><c>   2</c></rc>
    <rc><c>Si</c><c>   2</c></rc>
   </set>
  </array>
  <array name="atomtypes" >
   <dimension dim="1">type</dimension>
   <field type="int">atomspertype</field>
   <field type="string">element</field>
   <field>mass</field>
   <field>valence</field>
   <field type="string">pseudopotential</field>
   <set>
    <rc><c>   6</c><c>N </c><c>     14.00100000</c><c>      5.00000000</c><c>  PAW_PBE N 08Apr2002                   </c></rc>
    <rc><c>   8</c><c>Si</c><c>     28.08500000</c><c>      4.00000000</c><c>  PAW_PBE Si 05Jan2001                  </c></rc>
   </set>
  </array>
 </atominfo>
 <structure name="initialpos" >
  <crystal>
   <varray name="basis" >
    <v>       3.78197644      -6.55057534       0.00000000 </v>
    <v>       3.78197643       6.55057535       0.00000000 </v>
    <v>       0.00000000       0.00000000       2.66046976 </v>
   </varray>
   <i name="volume">    131.82160271 </i>
   <varray name="rec_basis" >
    <v>       0.13220601      -0.07632917       0.00000000 </v>
    <v>       0.13220601       0.07632917       0.00000000 </v>
    <v>       0.00000000       0.00000000       0.37587347 </v>
   </varray>
  </crystal>
  <varray name="positions" >
   <v>       0.19708959       0.83151770       0.75000000 </v>
   <v>       0.36557189       0.19708959       0.25000000 </v>
   <v>       0.83151770       0.63442811       0.25000000 </v>
   <v>       0.16848230       0.36557189       0.75000000 </v>
   <v>       0.63442811       0.80291041       0.75000000 </v>
   <v>       0.80291041       0.16848230       0.25000000 </v>
   <v>       0.33333333       0.66666667       0.75000000 </v>
   <v>       0.66666667       0.33333333       0.25000000 </v>
   <v>       0.96358754       0.61246345       0.75000000 </v>
   <v>       0.35112409       0.96358754       0.25000000 </v>
   <v>       0.61246345       0.64887591       0.25000000 </v>
   <v>       0.38753655       0.35112409       0.75000000 </v>
   <v>       0.03641246       0.38753655       0.25000000 </v>
   <v>       0.64887591       0.03641246       0.75000000 </v>
  </varray>
 </structure>
 <calculation>
  <scstep>
   <time name="dav">    2.40    2.40</time>
   <time name="total">    2.97    2.97</time>
   <energy>
    <i name="alphaZ">     92.47747623 </i>
    <i name="ewald">  -2364.32131305 </i>
    <i name="hartreedc">   -482.49964513 </i>
    <i name="XCdc">     59.16640039 </i>
    <i name="pawpsdc">   1934.58678659 </i>
    <i name="pawaedc">  -1800.98643654 </i>
    <i name="eentropy">     -0.00030286 </i>
    <i name="bandstr">    389.14528229 </i>
    <i name="atom">   2411.37598431 </i>
    <i name="e_fr_energy">    238.94423224 </i>
    <i name="e_wo_entrp">    238.94453510 </i>
    <i name="e_0_energy">    238.94430795 </i>
   </energy>
  </scstep>
  <scstep>
   <time name="dav">    2.75    2.75</time>
   <time name="total">    2.76    2.76</time>
   <energy>
    <i name="e_fr_energy">    -83.45423492 </i>
    <i name="e_wo_entrp">    -83.45401546 </i>
    <i name="e_0_energy">    -83.45418006 </i>
   </energy>
  </scstep>
  <scstep>
   <time name="dav">    2.73    2.73</time>
   <time name="total">    2.73    2.73</time>
   <energy>
    <i name="e_fr_energy">   -102.94454966 </i>
    <i name="e_wo_entrp">   -102.94386810 </i>
    <i name="e_0_energy">   -102.94437927 </i>
   </energy>
  </scstep>
  <scstep>
   <time name="dav">    2.86    2.86</time>
   <time name="total">    2.86    2.86</time>
   <energy>
    <i name="e_fr_energy">   -103.33863139 </i>
    <i name="e_wo_entrp">   -103.33792301 </i>
    <i name="e_0_energy">   -103.33845429 </i>
   </energy>
  </scstep>
  <scstep>
   <time name="dav">    2.95    3.24</time>
   <time name="total">    3.09    3.38</time>
   <energy>
    <i name="e_fr_energy">   -103.34645330 </i>
    <i name="e_wo_entrp">   -103.34574860 </i>
    <i name="e_0_energy">   -103.34627712 </i>
   </energy>
  </scstep>
  <scstep>
   <time name="diag">    0.36    0.36</time>
   <time name="diis">    1.55    1.55</time>
   <time name="orth">    0.04    0.04</time>
   <time name="total">    2.10    2.10</time>
   <energy>
    <i name="e_fr_energy">    -92.83496429 </i>
    <i name="e_wo_entrp">    -92.83461951 </i>
    <i name="e_0_energy">    -92.83487809 </i>
   </energy>
  </scstep>
  <scstep>
   <time name="diag">    0.36    0.36</time>
   <time name="diis">    1.45    1.45</time>
   <time name="orth">    0.04    0.04</time>
   <time name="total">    1.99    2.00</time>
   <energy>
    <i name="e_fr_energy">    -92.30515975 </i>
    <i name="e_wo_entrp">    -92.30476812 </i>
    <i name="e_0_energy">    -92.30506184 </i>
   </energy>
  </scstep>
  <scstep>
   <time name="diag">    0.36    0.36</time>
   <time name="diis">    1.54    1.54</time>
   <time name="orth">    0.04    0.04</time>
   <time name="total">    2.08    2.09</time>
   <energy>
    <i name="e_fr_energy">    -92.18335915 </i>
    <i name="e_wo_entrp">    -92.18288308 </i>
    <i name="e_0_energy">    -92.18324014 </i>
   </energy>
  </scstep>
  <scstep>
   <time name="diag">    0.38    0.38</time>
   <time name="diis">    1.54    1.54</time>
   <time name="orth">    0.04    0.04</time>
   <time name="total">    2.11    2.11</time>
   <energy>
    <i name="e_fr_energy">    -92.18392060 </i>
    <i name="e_wo_entrp">    -92.18347170 </i>
    <i name="e_0_energy">    -92.18380838 </i>
   </energy>
  </scstep>
  <scstep>
   <time name="diag">    0.38    0.38</time>
   <time name="diis">    1.59    1.59</time>
   <time name="orth">    0.04    0.04</time>
   <time name="total">    2.16    2.16</time>
   <energy>
    <i name="e_fr_energy">    -92.18217654 </i>
    <i name="e_wo_entrp">    -92.18169150 </i>
    <i name="e_0_energy">    -92.18205528 </i>
   </energy>
  </scstep>
  <scstep>
   <time name="diag">    0.37    0.37</time>
   <time name="diis">    1.47    1.47</time>
   <time name="orth">    0.04    0.04</time>
   <time name="total">    2.02    2.03</time>
   <energy>
    <i name="e_fr_energy">    -92.18344089 </i>
    <i name="e_wo_entrp">    -92.18293808 </i>
    <i name="e_0_energy">    -92.18331519 </i>
   </energy>
  </scstep>
  <scstep>
   <time name="diag">    0.36    0.36</time>
   <time name="diis">    1.53    1.53</time>
   <time name="orth">    0.04    0.04</time>
   <time name="total">    2.08    2.08</time>
   <energy>
    <i name="e_fr_energy">    -92.18305436 </i>
    <i name="e_wo_entrp">    -92.18255790 </i>
    <i name="e_0_energy">    -92.18293024 </i>
   </energy>
  </scstep>
  <scstep>
   <time name="diag">    0.37    0.37</time>
   <time name="diis">    1.08    1.08</time>
   <time name="orth">    0.04    0.04</time>
   <time name="total">    1.50    1.51</time>
   <energy>
    <i name="alphaZ">     92.47747623 </i>
    <i name="ewald">  -2364.32131305 </i>
    <i name="hartreedc">   -586.27439392 </i>
    <i name="XCdc">     67.37177315 </i>
    <i name="pawpsdc">  11494.12953597 </i>
    <i name="pawaedc"> -11363.07359360 </i>
    <i name="eentropy">     -0.00049494 </i>
    <i name="bandstr">    156.13194065 </i>
    <i name="atom">   2411.37598431 </i>
    <i name="e_fr_energy">    -92.18308519 </i>
    <i name="e_wo_entrp">    -92.18259025 </i>
    <i name="e_0_energy">    -92.18296146 </i>
   </energy>
  </scstep>
  <structure>
   <crystal>
    <varray name="basis" >
     <v>       3.78197644      -6.55057534       0.00000000 </v>
     <v>       3.78197643       6.55057535       0.00000000 </v>
     <v>       0.00000000       0.00000000       2.66046976 </v>
    </varray>
    <i name="volume">    131.82160271 </i>
    <varray name="rec_basis" >
     <v>       0.13220601      -0.07632917       0.00000000 </v>
     <v>       0.13220601       0.07632917       0.00000000 </v>
     <v>       0.00000000       0.00000000       0.37587347 </v>
    </varray>
   </crystal>
   <varray name="positions" >
    <v>       0.19708959       0.83151770       0.75000000 </v>
    <v>       0.36557189       0.19708959       0.25000000 </v>
    <v>       0.83151770       0.63442811       0.25000000 </v>
    <v>       0.16848230       0.36557189       0.75000000 </v>
    <v>       0.63442811       0.80291041       0.75000000 </v>
    <v>       0.80291041       0.16848230       0.25000000 </v>
    <v>       0.33333333       0.66666667       0.75000000 </v>
    <v>       0.66666667       0.33333333       0.25000000 </v>
    <v>       0.96358754       0.61246345       0.75000000 </v>
    <v>       0.35112409       0.96358754       0.25000000 </v>
    <v>       0.61246345       0.64887591       0.25000000 </v>
    <v>       0.38753655       0.35112409       0.75000000 </v>
    <v>       0.03641246       0.38753655       0.25000000 </v>
    <v>       0.64887591       0.03641246       0.75000000 </v>
   </varray>
  </structure>
  <varray name="forces" >
   <v>      -0.39417300       0.77689324       0.00000000 </v>
   <v>      -0.86989578       0.04708279       0.00000000 </v>
   <v>       0.47572278       0.72981045       0.00000000 </v>
   <v>      -0.47572278      -0.72981045      -0.00000000 </v>
   <v>       0.86989578      -0.04708279      -0.00000000 </v>
   <v>       0.39417300      -0.77689324       0.00000000 </v>
   <v>       0.00000000      -0.00000000      -0.00000000 </v>
   <v>       0.00000000      -0.00000000       0.00000000 </v>
   <v>      -0.32491252      -0.81748679      -0.00000000 </v>
   <v>       0.54550807      -0.69012589       0.00000000 </v>
   <v>      -0.87042059      -0.12736090      -0.00000000 </v>
   <v>       0.87042059       0.12736090      -0.00000000 </v>
   <v>       0.32491252       0.81748679       0.00000000 </v>
   <v>      -0.54550807       0.69012589       0.00000000 </v>
  </varray>
  <varray name="stress" >
   <v>     434.92823663       0.00000009       0.00000000 </v>
   <v>      -0.00000009     434.92823663       0.00000000 </v>
   <v>       0.00000000       0.00000000     408.88226483 </v>
  </varray>
  <energy>
   <i name="e_fr_energy">    -92.18308519 </i>
   <i name="e_wo_entrp">    -92.18296146 </i>
   <i name="e_0_energy">     -0.00049494 </i>
  </energy>
  <time name="totalsc">   34.57   34.91</time>
 </calculation>
 <calculation>
  <scstep>
   <time name="dav">    2.42    2.42</time>
   <time name="total">    2.57    2.57</time>
   <energy>
    <i name="alphaZ">     92.47747623 </i>
    <i name="ewald">  -2390.63183659 </i>
    <i name="hartreedc">   -569.41555980 </i>
    <i name="XCdc">     66.94209497 </i>
    <i name="pawpsdc">  11501.32332070 </i>
    <i name="pawaedc"> -11370.26792965 </i>
    <i name="eentropy">     -0.00120314 </i>
    <i name="bandstr">    166.04832362 </i>
    <i name="atom">   2411.37598431 </i>
    <i name="e_fr_energy">    -92.14932935 </i>
    <i name="e_wo_entrp">    -92.14812621 </i>
    <i name="e_0_energy">    -92.14902857 </i>
   </energy>
  </scstep>
  <scstep>
   <time name="diag">    0.37    0.37</time>
   <time name="diis">    1.52    1.52</time>
   <time name="orth">    0.04    0.04</time>
   <time name="total">    2.07    2.08</time>
   <energy>
    <i name="e_fr_energy">    -92.16860042 </i>
    <i name="e_wo_entrp">    -92.16740612 </i>
    <i name="e_0_energy">    -92.16830185 </i>
   </energy>
  </scstep>
  <scstep>
   <time name="diag">    0.37    0.37</time>
   <time name="diis">    1.55    1.55</time>
   <time name="orth">    0.04    0.04</time>
   <time name="total">    2.10    2.10</time>
   <energy>
    <i name="e_fr_energy">    -92.15545363 </i>
    <i name="e_wo_entrp">    -92.15426939 </i>
    <i name="e_0_energy">    -92.15515757 </i>
   </energy>
  </scstep>
  <scstep>
   <time name="diag">    8.41    8.41</time>
   <time name="diis">    2.90    2.90</time>
   <time name="orth">    0.79    0.79</time>
   <time name="total">   13.16   13.16</time>
   <energy>
    <i name="e_fr_energy">    -92.15306740 </i>
    <i name="e_wo_entrp">    -92.15191692 </i>
    <i name="e_0_energy">    -92.15277978 </i>
   </energy>
  </scstep>
  <scstep>
   <time name="diag">    0.36    0.36</time>
   <time name="diis">    1.54    1.54</time>
   <time name="orth">    0.04    0.04</time>
   <time name="total">    2.09    2.09</time>
   <energy>
    <i name="e_fr_energy">    -92.15318557 </i>
    <i name="e_wo_entrp">    -92.15204831 </i>
    <i name="e_0_energy">    -92.15290126 </i>
   </energy>
  </scstep>
  <scstep>
   <time name="diag">    0.36    0.36</time>
   <time name="diis">    1.01    1.01</time>
   <time name="orth">    0.04    0.04</time>
   <time name="total">    1.43    1.44</time>
   <energy>
    <i name="alphaZ">     92.47747623 </i>
    <i name="ewald">  -2390.63183659 </i>
    <i name="hartreedc">   -563.71268741 </i>
    <i name="XCdc">     66.65176731 </i>
    <i name="pawpsdc">  11087.25775597 </i>
    <i name="pawaedc"> -10956.07776856 </i>
    <i name="eentropy">     -0.00114075 </i>
    <i name="bandstr">    160.50725375 </i>
    <i name="atom">   2411.37598431 </i>
    <i name="e_fr_energy">    -92.15319574 </i>
    <i name="e_wo_entrp">    -92.15205499 </i>
    <i name="e_0_energy">    -92.15291055 </i>
   </energy>
  </scstep>
  <structure>
   <crystal>
    <varray name="basis" >
     <v>       3.78197644      -6.55057534       0.00000000 </v>
     <v>       3.78197643       6.55057535       0.00000000 </v>
     <v>       0.00000000       0.00000000       2.66046976 </v>
    </varray>
    <i name="volume">    131.82160271 </i>
    <varray name="rec_basis" >
     <v>       0.13220601      -0.07632917       0.00000000 </v>
     <v>       0.13220601       0.07632917       0.00000000 </v>
     <v>       0.00000000       0.00000000       0.37587347 </v>
    </varray>
   </crystal>
   <varray name="positions" >
    <v>       0.19171480       0.83186445       0.75000000 </v>
    <v>       0.35985035       0.19171480       0.25000000 </v>
    <v>       0.83186445       0.64014965       0.25000000 </v>
    <v>       0.16813555       0.35985035       0.75000000 </v>
    <v>       0.64014965       0.80828520       0.75000000 </v>
    <v>       0.80828520       0.16813555       0.25000000 </v>
    <v>       0.33333333       0.66666667       0.75000000 </v>
    <v>       0.66666667       0.33333333       0.25000000 </v>
    <v>       0.96452551       0.60738092       0.75000000 </v>
    <v>       0.35714459       0.96452551       0.25000000 </v>
    <v>       0.60738092       0.64285541       0.25000000 </v>
    <v>       0.39261908       0.35714459       0.75000000 </v>
    <v>       0.03547449       0.39261908       0.25000000 </v>
    <v>       0.64285541       0.03547449       0.75000000 </v>
   </varray>
  </structure>
  <varray name="forces" >
   <v>       0.70503521      -0.34875059       0.00000000 </v>
   <v>       0.65454448       0.43620311      -0.00000000 </v>
   <v>       0.05049073      -0.78495370       0.00000000 </v>
   <v>      -0.05049073       0.78495370       0.00000000 </v>
   <v>      -0.65454448      -0.43620311       0.00000000 </v>
   <v>      -0.70503521       0.34875059      -0.00000000 </v>
   <v>      -0.00000000       0.00000000       0.00000000 </v>
   <v>       0.00000000       0.00000000      -0.00000000 </v>
   <v>      -0.04990691       1.46667386      -0.00000000 </v>
   <v>      -1.29513028       0.69011628       0.00000000 </v>
   <v>       1.24522337       0.77655758      -0.00000000 </v>
   <v>      -1.24522337      -0.77655758       0.00000000 </v>
   <v>       0.04990691      -1.46667386       0.00000000 </v>
   <v>       1.29513028      -0.69011628      -0.00000000 </v>
  </varray>
  <varray name="stress" >
   <v>     405.00228568       0.00000001       0.00000000 </v>
   <v>      -0.00000001     405.00228568       0.00000000 </v>
   <v>       0.00000000       0.00000000     369.81952825 </v>
  </varray>
  <energy>
   <i name="e_fr_energy">    -92.15319574 </i>
   <i name="e_wo_entrp">    -92.15291055 </i>
   <i name="e_0_energy">     -0.00114075 </i>
  </energy>
  <time name="totalsc">   27.54   27.60</time>
 </calculation>
 <calculation>
  <scstep>
   <time name="dav">    2.53    2.53</time>
   <time name="total">    2.76    2.76</time>
   <energy>
    <i name="alphaZ">     92.47747623 </i>
    <i name="ewald">  -2376.56972773 </i>
    <i name="hartreedc">   -572.55687813 </i>
    <i name="XCdc">     66.87263391 </i>
    <i name="pawpsdc">  11085.85160962 </i>
    <i name="pawaedc"> -10954.67161178 </i>
    <i name="eentropy">     -0.00067885 </i>
    <i name="bandstr">    154.93571883 </i>
    <i name="atom">   2411.37598431 </i>
    <i name="e_fr_energy">    -92.28547359 </i>
    <i name="e_wo_entrp">    -92.28479474 </i>
    <i name="e_0_energy">    -92.28530388 </i>
   </energy>
  </scstep>
  <scstep>
   <time name="diag">    0.37    0.37</time>
   <time name="diis">    1.45    1.45</time>
   <time name="orth">    0.04    0.04</time>
   <time name="total">    2.00    2.00</time>
   <energy>
    <i name="e_fr_energy">    -92.29226016 </i>
    <i name="e_wo_entrp">    -92.29158275 </i>
    <i name="e_0_energy">    -92.29209080 </i>
   </energy>
  </scstep>
  <scstep>
   <time name="diag">    0.36    0.36</time>
   <time name="diis">    1.45    1.45</time>
   <time name="orth">    0.04    0.04</time>
   <time name="total">    1.99    2.00</time>
   <energy>
    <i name="e_fr_energy">    -92.28714630 </i>
    <i name="e_wo_entrp">    -92.28644644 </i>
    <i name="e_0_energy">    -92.28697133 </i>
   </energy>
  </scstep>
  <scstep>
   <time name="diag">    0.36    0.36</time>
   <time name="diis">    1.51    1.51</time>
   <time name="orth">    0.04    0.04</time>
   <time name="total">    2.06    2.06</time>
   <energy>
    <i name="e_fr_energy">    -92.28687127 </i>
    <i name="e_wo_entrp">    -92.28617490 </i>
    <i name="e_0_energy">    -92.28669718 </i>
   </energy>
  </scstep>
  <scstep>
   <time name="diag">   10.44   10.44</time>
   <time name="diis">    2.08    2.08</time>
   <time name="orth">    5.81    5.81</time>
   <time name="total">   18.89   19.39</time>
   <energy>
    <i name="alphaZ">     92.47747623 </i>
    <i name="ewald">  -2376.56972773 </i>
    <i name="hartreedc">   -575.77617498 </i>
    <i name="XCdc">     67.03957742 </i>
    <i name="pawpsdc">  11286.69358258 </i>
    <i name="pawaedc"> -11155.57797806 </i>
    <i name="eentropy">     -0.00069052 </i>
    <i name="bandstr">    158.05106984 </i>
    <i name="atom">   2411.37598431 </i>
    <i name="e_fr_energy">    -92.28688092 </i>
    <i name="e_wo_entrp">    -92.28619040 </i>
    <i name="e_0_energy">    -92.28670829 </i>
   </energy>
  </scstep>
  <structure>
   <crystal>
    <varray name="basis" >
     <v>       3.78197644      -6.55057534       0.00000000 </v>
     <v>       3.78197643       6.55057535       0.00000000 </v>
     <v>       0.00000000       0.00000000       2.66046976 </v>
    </varray>
    <i name="volume">    131.82160271 </i>
    <varray name="rec_basis" >
     <v>       0.13220601      -0.07632917       0.00000000 </v>
     <v>       0.13220601       0.07632917       0.00000000 </v>
     <v>       0.00000000       0.00000000       0.37587347 </v>
    </varray>
   </crystal>
   <varray name="positions" >
    <v>       0.19457534       0.83167991       0.75000000 </v>
    <v>       0.36289543       0.19457534       0.25000000 </v>
    <v>       0.83167991       0.63710457       0.25000000 </v>
    <v>       0.16832009       0.36289543       0.75000000 </v>
    <v>       0.63710457       0.80542466       0.75000000 </v>
    <v>       0.80542466       0.16832009       0.25000000 </v>
    <v>       0.33333333       0.66666667       0.75000000 </v>
    <v>       0.66666667       0.33333333       0.25000000 </v>
    <v>       0.96402631       0.61008591       0.75000000 </v>
    <v>       0.35394040       0.96402631       0.25000000 </v>
    <v>       0.61008591       0.64605960       0.25000000 </v>
    <v>       0.38991409       0.35394040       0.75000000 </v>
    <v>       0.03597369       0.38991409       0.25000000 </v>
    <v>       0.64605960       0.03597369       0.75000000 </v>
   </varray>
  </structure>
  <varray name="forces" >
   <v>       0.14514343       0.24223072       0.00000000 </v>
   <v>      -0.13720624       0.24681326       0.00000000 </v>
   <v>       0.28234967      -0.00458254      -0.00000000 </v>
   <v>      -0.28234967       0.00458254       0.00000000 </v>
   <v>       0.13720624      -0.24681326      -0.00000000 </v>
   <v>      -0.14514343      -0.24223072      -0.00000000 </v>
   <v>       0.00000000      -0.00000000       0.00000000 </v>
   <v>       0.00000000      -0.00000000      -0.00000000 </v>
   <v>      -0.21945140       0.24975080       0.00000000 </v>
   <v>      -0.32601624      -0.06517509       0.00000000 </v>
   <v>       0.10656483       0.31492589      -0.00000000 </v>
   <v>      -0.10656483      -0.31492589       0.00000000 </v>
   <v>       0.21945140      -0.24975080       0.00000000 </v>
   <v>       0.32601624       0.06517509      -0.00000000 </v>
  </varray>
  <varray name="stress" >
   <v>     420.79861395       0.00000003       0.00000000 </v>
   <v>      -0.00000003     420.79861395       0.00000000 </v>
   <v>      -0.00000000       0.00000000     386.87927399 </v>
  </varray>
  <energy>
   <i name="e_fr_energy">    -92.28688092 </i>
   <i name="e_wo_entrp">    -92.28670829 </i>
   <i name="e_0_energy">     -0.00069052 </i>
  </energy>
  <time name="totalsc">   32.61   33.15</time>
 </calculation>
 <calculation>
  <scstep>
   <time name="dav">    2.37    2.37</time>
   <time name="total">    2.69    2.72</time>
   <energy>
    <i name="alphaZ">     92.47747623 </i>
    <i name="ewald">  -2383.94946418 </i>
    <i name="hartreedc">   -569.81966897 </i>
    <i name="XCdc">     66.94881886 </i>
    <i name="pawpsdc">  11296.56686349 </i>
    <i name="pawaedc"> -11165.45312050 </i>
    <i name="eentropy">     -0.00039811 </i>
    <i name="bandstr">    159.55354225 </i>
    <i name="atom">   2411.37598431 </i>
    <i name="e_fr_energy">    -92.29996660 </i>
    <i name="e_wo_entrp">    -92.29956850 </i>
    <i name="e_0_energy">    -92.29986708 </i>
   </energy>
  </scstep>
  <scstep>
   <time name="diag">    0.36    0.36</time>
   <time name="diis">    1.53    1.53</time>
   <time name="orth">    0.04    0.04</time>
   <time name="total">    2.07    2.08</time>
   <energy>
    <i name="e_fr_energy">    -92.30602872 </i>
    <i name="e_wo_entrp">    -92.30563484 </i>
    <i name="e_0_energy">    -92.30593025 </i>
   </energy>
  </scstep>
  <scstep>
   <time name="diag">    0.36    0.36</time>
   <time name="diis">    1.46    1.46</time>
   <time name="orth">    0.04    0.04</time>
   <time name="total">    2.01    2.01</time>
   <energy>
    <i name="e_fr_energy">    -92.30439477 </i>
    <i name="e_wo_entrp">    -92.30399498 </i>
    <i name="e_0_energy">    -92.30429482 </i>
   </energy>
  </scstep>
  <scstep>
   <time name="diag">    0.36    0.36</time>
   <time name="diis">    1.55    1.55</time>
   <time name="orth">    0.04    0.04</time>
   <time name="total">    2.09    2.10</time>
   <energy>
    <i name="e_fr_energy">    -92.30401959 </i>
    <i name="e_wo_entrp">    -92.30360666 </i>
    <i name="e_0_energy">    -92.30391636 </i>
   </energy>
  </scstep>
  <scstep>
   <time name="diag">    0.36    0.36</time>
   <time name="diis">    1.00    1.00</time>
   <time name="orth">    0.04    0.04</time>
   <time name="total">    1.41    1.42</time>
   <energy>
    <i name="alphaZ">     92.47747623 </i>
    <i name="ewald">  -2383.94946418 </i>
    <i name="hartreedc">   -569.10021998 </i>
    <i name="XCdc">     66.91553798 </i>
    <i name="pawpsdc">  11251.37100625 </i>
    <i name="pawaedc"> -11120.23788845 </i>
    <i name="eentropy">     -0.00041595 </i>
    <i name="bandstr">    158.84396119 </i>
    <i name="atom">   2411.37598431 </i>
    <i name="e_fr_energy">    -92.30402260 </i>
    <i name="e_wo_entrp">    -92.30360666 </i>
    <i name="e_0_energy">    -92.30391862 </i>
   </energy>
  </scstep>
  <structure>
   <crystal>
    <varray name="basis" >
     <v>       3.78197644      -6.55057534       0.00000000 </v>
     <v>       3.78197643       6.55057535       0.00000000 </v>
     <v>       0.00000000       0.00000000       2.66046976 </v>
    </varray>
    <i name="volume">    131.82160271 </i>
    <varray name="rec_basis" >
     <v>       0.13220601      -0.07632917       0.00000000 </v>
     <v>       0.13220601       0.07632917       0.00000000 </v>
     <v>       0.00000000       0.00000000       0.37587347 </v>
    </varray>
   </crystal>
   <varray name="positions" >
    <v>       0.19400338       0.83334296       0.75000000 </v>
    <v>       0.36066042       0.19400338       0.25000000 </v>
    <v>       0.83334296       0.63933958       0.25000000 </v>
    <v>       0.16665704       0.36066042       0.75000000 </v>
    <v>       0.63933958       0.80599662       0.75000000 </v>
    <v>       0.80599662       0.16665704       0.25000000 </v>
    <v>       0.33333333       0.66666667       0.75000000 </v>
    <v>       0.66666667       0.33333333       0.25000000 </v>
    <v>       0.96205894       0.60908764       0.75000000 </v>
    <v>       0.35297130       0.96205894       0.25000000 </v>
    <v>       0.60908764       0.64702870       0.25000000 </v>
    <v>       0.39091236       0.35297130       0.75000000 </v>
    <v>       0.03794106       0.39091236       0.25000000 </v>
    <v>       0.64702870       0.03794106       0.75000000 </v>
   </varray>
  </structure>
  <varray name="forces" >
   <v>      -0.29725895       0.07088815       0.00000000 </v>
   <v>      -0.21002041      -0.22198973      -0.00000000 </v>
   <v>      -0.08723854       0.29287788      -0.00000000 </v>
   <v>       0.08723854      -0.29287788      -0.00000000 </v>
   <v>       0.21002041       0.22198973      -0.00000000 </v>
   <v>       0.29725895      -0.07088815      -0.00000000 </v>
   <v>       0.00000000      -0.00000000       0.00000000 </v>
   <v>       0.00000000      -0.00000000       0.00000000 </v>
   <v>       0.26118074       0.11551625       0.00000000 </v>
   <v>       0.03055037       0.28394728       0.00000000 </v>
   <v>       0.23063037      -0.16843103       0.00000000 </v>
   <v>      -0.23063037       0.16843103      -0.00000000 </v>
   <v>      -0.26118074      -0.11551625       0.00000000 </v>
   <v>      -0.03055037      -0.28394728      -0.00000000 </v>
  </varray>
  <varray name="stress" >
   <v>     404.26226337      -0.00000006      -0.00000000 </v>
   <v>       0.00000006     404.26226337       0.00000000 </v>
   <v>      -0.00000000       0.00000000     403.29728281 </v>
  </varray>
  <energy>
   <i name="e_fr_energy">    -92.30402260 </i>
   <i name="e_wo_entrp">    -92.30391862 </i>
   <i name="e_0_energy">     -0.00041595 </i>
  </energy>
  <time name="totalsc">   14.40   14.47</time>
 </calculation>
 <calculation>
  <scstep>
   <time name="dav">   15.70   15.70</time>
   <time name="total">   16.79   16.79</time>
   <energy>
    <i name="alphaZ">     92.47747623 </i>
    <i name="ewald">  -2382.31287011 </i>
    <i name="hartreedc">   -570.46493043 </i>
    <i name="XCdc">     66.93871787 </i>
    <i name="pawpsdc">  11247.78271571 </i>
    <i name="pawaedc"> -11116.64859469 </i>
    <i name="eentropy">     -0.00049553 </i>
    <i name="bandstr">    158.54647518 </i>
    <i name="atom">   2411.37598431 </i>
    <i name="e_fr_energy">    -92.30552146 </i>
    <i name="e_wo_entrp">    -92.30502593 </i>
    <i name="e_0_energy">    -92.30539757 </i>
   </energy>
  </scstep>
  <scstep>
   <time name="diag">    0.37    0.37</time>
   <time name="diis">    1.53    1.53</time>
   <time name="orth">    0.03    0.03</time>
   <time name="total">    2.46    2.87</time>
   <energy>
    <i name="e_fr_energy">    -92.30580880 </i>
    <i name="e_wo_entrp">    -92.30531730 </i>
    <i name="e_0_energy">    -92.30568593 </i>
   </energy>
  </scstep>
  <scstep>
   <time name="diag">    0.37    0.37</time>
   <time name="diis">    1.12    1.12</time>
   <time name="orth">    0.04    0.04</time>
   <time name="total">    1.55    1.56</time>
   <energy>
    <i name="alphaZ">     92.47747623 </i>
    <i name="ewald">  -2382.31287011 </i>
    <i name="hartreedc">   -570.59498999 </i>
    <i name="XCdc">     66.94462824 </i>
    <i name="pawpsdc">  11254.64761943 </i>
    <i name="pawaedc"> -11123.51599453 </i>
    <i name="eentropy">     -0.00048836 </i>
    <i name="bandstr">    158.67291913 </i>
    <i name="atom">   2411.37598431 </i>
    <i name="e_fr_energy">    -92.30571566 </i>
    <i name="e_wo_entrp">    -92.30522730 </i>
    <i name="e_0_energy">    -92.30559357 </i>
   </energy>
  </scstep>
  <structure>
   <crystal>
    <varray name="basis" >
     <v>       3.78197644      -6.55057534       0.00000000 </v>
     <v>       3.78197643       6.55057535       0.00000000 </v>
     <v>       0.00000000       0.00000000       2.66046976 </v>
    </varray>
    <i name="volume">    131.82160271 </i>
    <varray name="rec_basis" >
     <v>       0.13220601      -0.07632917       0.00000000 </v>
     <v>       0.13220601       0.07632917       0.00000000 </v>
     <v>       0.00000000       0.00000000       0.37587347 </v>
    </varray>
   </crystal>
   <varray name="positions" >
    <v>       0.19413234       0.83296798       0.75000000 </v>
    <v>       0.36116436       0.19413234       0.25000000 </v>
    <v>       0.83296798       0.63883564       0.25000000 </v>
    <v>       0.16703202       0.36116436       0.75000000 </v>
    <v>       0.63883564       0.80586766       0.75000000 </v>
    <v>       0.80586766       0.16703202       0.25000000 </v>
    <v>       0.33333333       0.66666667       0.75000000 </v>
    <v>       0.66666667       0.33333333       0.25000000 </v>
    <v>       0.96250254       0.60931273       0.75000000 </v>
    <v>       0.35318981       0.96250254       0.25000000 </v>
    <v>       0.60931273       0.64681019       0.25000000 </v>
    <v>       0.39068727       0.35318981       0.75000000 </v>
    <v>       0.03749746       0.39068727       0.25000000 </v>
    <v>       0.64681019       0.03749746       0.75000000 </v>
   </varray>
  </structure>
  <varray name="forces" >
   <v>      -0.20680452       0.10063342      -0.00000000 </v>
   <v>      -0.19055335      -0.12878126       0.00000000 </v>
   <v>      -0.01625116       0.22941467      -0.00000000 </v>
   <v>       0.01625116      -0.22941467       0.00000000 </v>
   <v>       0.19055335       0.12878126      -0.00000000 </v>
   <v>       0.20680452      -0.10063342       0.00000000 </v>
   <v>       0.00000000       0.00000000      -0.00000000 </v>
   <v>      -0.00000000      -0.00000000       0.00000000 </v>
   <v>       0.15672330       0.14460525      -0.00000000 </v>
   <v>      -0.04687017       0.20802899       0.00000000 </v>
   <v>       0.20359347      -0.06342374       0.00000000 </v>
   <v>      -0.20359347       0.06342374       0.00000000 </v>
   <v>      -0.15672330      -0.14460525       0.00000000 </v>
   <v>       0.04687017      -0.20802899      -0.00000000 </v>
  </varray>
  <varray name="stress" >
   <v>     407.55329907       0.00000023      -0.00000000 </v>
   <v>      -0.00000023     407.55329907       0.00000000 </v>
   <v>       0.00000000       0.00000000     400.03179100 </v>
  </varray>
  <energy>
   <i name="e_fr_energy">    -92.30571566 </i>
   <i name="e_wo_entrp">    -92.30559357 </i>
   <i name="e_0_energy">     -0.00048836 </i>
  </energy>
  <time name="totalsc">   24.93   25.36</time>
 </calculation>
 <calculation>
  <scstep>
   <time name="dav">    2.33    2.33</time>
   <time name="total">    2.52    2.52</time>
   <energy>
    <i name="alphaZ">     92.47747623 </i>
    <i name="ewald">  -2388.07538494 </i>
    <i name="hartreedc">   -565.20571825 </i>
    <i name="XCdc">     66.86824005 </i>
    <i name="pawpsdc">  11257.56585543 </i>
    <i name="pawaedc"> -11126.43561830 </i>
    <i name="eentropy">     -0.00012937 </i>
    <i name="bandstr">    159.11572616 </i>
    <i name="atom">   2411.37598431 </i>
    <i name="e_fr_energy">    -92.31356868 </i>
    <i name="e_wo_entrp">    -92.31343931 </i>
    <i name="e_0_energy">    -92.31353634 </i>
   </energy>
  </scstep>
  <scstep>
   <time name="diag">    0.37    0.37</time>
   <time name="diis">    1.47    1.47</time>
   <time name="orth">    0.04    0.04</time>
   <time name="total">    2.02    2.03</time>
   <energy>
    <i name="e_fr_energy">    -92.31924390 </i>
    <i name="e_wo_entrp">    -92.31906428 </i>
    <i name="e_0_energy">    -92.31919900 </i>
   </energy>
  </scstep>
  <scstep>
   <time name="diag">    0.36    0.36</time>
   <time name="diis">    1.46    1.46</time>
   <time name="orth">    0.04    0.04</time>
   <time name="total">    2.01    2.01</time>
   <energy>
    <i name="e_fr_energy">    -92.31829463 </i>
    <i name="e_wo_entrp">    -92.31806702 </i>
    <i name="e_0_energy">    -92.31823773 </i>
   </energy>
  </scstep>
  <scstep>
   <time name="diag">    0.38    0.38</time>
   <time name="diis">    1.41    1.41</time>
   <time name="orth">    0.04    0.04</time>
   <time name="total">    1.97    1.97</time>
   <energy>
    <i name="e_fr_energy">    -92.31807023 </i>
    <i name="e_wo_entrp">    -92.31780809 </i>
    <i name="e_0_energy">    -92.31800469 </i>
   </energy>
  </scstep>
  <scstep>
   <time name="diag">    0.36    0.36</time>
   <time name="diis">    0.99    1.00</time>
   <time name="orth">    0.04    0.04</time>
   <time name="total">    1.41    1.42</time>
   <energy>
    <i name="alphaZ">     92.47747623 </i>
    <i name="ewald">  -2388.07538494 </i>
    <i name="hartreedc">   -565.32910883 </i>
    <i name="XCdc">     66.88323044 </i>
    <i name="pawpsdc">  11240.86576909 </i>
    <i name="pawaedc"> -11109.73143468 </i>
    <i name="eentropy">     -0.00026744 </i>
    <i name="bandstr">    159.21566806 </i>
    <i name="atom">   2411.37598431 </i>
    <i name="e_fr_energy">    -92.31806775 </i>
    <i name="e_wo_entrp">    -92.31780031 </i>
    <i name="e_0_energy">    -92.31800089 </i>
   </energy>
  </scstep>
  <structure>
   <crystal>
    <varray name="basis" >
     <v>       3.78197644      -6.55057534       0.00000000 </v>
     <v>       3.78197643       6.55057535       0.00000000 </v>
     <v>       0.00000000       0.00000000       2.66046976 </v>
    </varray>
    <i name="volume">    131.82160271 </i>
    <varray name="rec_basis" >
     <v>       0.13220601      -0.07632917       0.00000000 </v>
     <v>       0.13220601       0.07632917       0.00000000 </v>
     <v>       0.00000000       0.00000000       0.37587347 </v>
    </varray>
   </crystal>
   <varray name="positions" >
    <v>       0.19239711       0.83301241       0.75000000 </v>
    <v>       0.35938470       0.19239711       0.25000000 </v>
    <v>       0.83301241       0.64061530       0.25000000 </v>
    <v>       0.16698759       0.35938470       0.75000000 </v>
    <v>       0.64061530       0.80760289       0.75000000 </v>
    <v>       0.80760289       0.16698759       0.25000000 </v>
    <v>       0.33333333       0.66666667       0.75000000 </v>
    <v>       0.66666667       0.33333333       0.25000000 </v>
    <v>       0.96189120       0.61010754       0.75000000 </v>
    <v>       0.35178366       0.96189120       0.25000000 </v>
    <v>       0.61010754       0.64821634       0.25000000 </v>
    <v>       0.38989246       0.35178366       0.75000000 </v>
    <v>       0.03810880       0.38989246       0.25000000 </v>
    <v>       0.64821634       0.03810880       0.75000000 </v>
   </varray>
  </structure>
  <varray name="forces" >
   <v>      -0.01785911       0.00635913       0.00000000 </v>
   <v>      -0.01443672      -0.01228688       0.00000000 </v>
   <v>      -0.00342239       0.01864601      -0.00000000 </v>
   <v>       0.00342239      -0.01864601      -0.00000000 </v>
   <v>       0.01443672       0.01228688      -0.00000000 </v>
   <v>       0.01785911      -0.00635913       0.00000000 </v>
   <v>      -0.00000000       0.00000000      -0.00000000 </v>
   <v>      -0.00000000       0.00000000       0.00000000 </v>
   <v>       0.00734279      -0.00202934       0.00000000 </v>
   <v>       0.00542886       0.00534437       0.00000000 </v>
   <v>       0.00191394      -0.00737371       0.00000000 </v>
   <v>      -0.00191394       0.00737371      -0.00000000 </v>
   <v>      -0.00734279       0.00202934       0.00000000 </v>
   <v>      -0.00542886      -0.00534437      -0.00000000 </v>
  </varray>
  <varray name="stress" >
   <v>     406.24778558      -0.00000013       0.00000000 </v>
   <v>       0.00000013     406.24778558       0.00000000 </v>
   <v>      -0.00000000       0.00000000     395.62541956 </v>
  </varray>
  <energy>
   <i name="e_fr_energy">    -92.31806775 </i>
   <i name="e_wo_entrp">    -92.31800089 </i>
   <i name="e_0_energy">     -0.00026744 </i>
  </energy>
  <time name="totalsc">   14.18   14.23</time>
 </calculation>
 <calculation>
  <scstep>
   <time name="dav">    2.80    2.80</time>
   <time name="total">    3.14    3.19</time>
   <energy>
    <i name="alphaZ">     92.47747623 </i>
    <i name="ewald">  -2388.33222746 </i>
    <i name="hartreedc">   -565.14465549 </i>
    <i name="XCdc">     66.88297535 </i>
    <i name="pawpsdc">  11243.15538500 </i>
    <i name="pawaedc"> -11112.02041293 </i>
    <i name="eentropy">     -0.00024730 </i>
    <i name="bandstr">    159.28764948 </i>
    <i name="atom">   2411.37598431 </i>
    <i name="e_fr_energy">    -92.31807282 </i>
    <i name="e_wo_entrp">    -92.31782552 </i>
    <i name="e_0_energy">    -92.31801099 </i>
   </energy>
  </scstep>
  <scstep>
   <time name="diag">    0.36    0.36</time>
   <time name="diis">    0.95    0.95</time>
   <time name="orth">    0.04    0.04</time>
   <time name="total">    1.37    1.38</time>
   <energy>
    <i name="alphaZ">     92.47747623 </i>
    <i name="ewald">  -2388.33222746 </i>
    <i name="hartreedc">   -565.14077254 </i>
    <i name="XCdc">     66.88266335 </i>
    <i name="pawpsdc">  11241.59785453 </i>
    <i name="pawaedc"> -11110.46293180 </i>
    <i name="eentropy">     -0.00024897 </i>
    <i name="bandstr">    159.28411762 </i>
    <i name="atom">   2411.37598431 </i>
    <i name="e_fr_energy">    -92.31808474 </i>
    <i name="e_wo_entrp">    -92.31783577 </i>
    <i name="e_0_energy">    -92.31802250 </i>
   </energy>
  </scstep>
  <structure>
   <crystal>
    <varray name="basis" >
     <v>       3.78197644      -6.55057534       0.00000000 </v>
     <v>       3.78197643       6.55057535       0.00000000 </v>
     <v>       0.00000000       0.00000000       2.66046976 </v>
    </varray>
    <i name="volume">    131.82160271 </i>
    <varray name="rec_basis" >
     <v>       0.13220601      -0.07632917       0.00000000 </v>
     <v>       0.13220601       0.07632917       0.00000000 </v>
     <v>       0.00000000       0.00000000       0.37587347 </v>
    </varray>
   </crystal>
   <varray name="positions" >
    <v>       0.19231650       0.83301447       0.75000000 </v>
    <v>       0.35930203       0.19231650       0.25000000 </v>
    <v>       0.83301447       0.64069797       0.25000000 </v>
    <v>       0.16698553       0.35930203       0.75000000 </v>
    <v>       0.64069797       0.80768350       0.75000000 </v>
    <v>       0.80768350       0.16698553       0.25000000 </v>
    <v>       0.33333333       0.66666667       0.75000000 </v>
    <v>       0.66666667       0.33333333       0.25000000 </v>
    <v>       0.96186280       0.61014446       0.75000000 </v>
    <v>       0.35171834       0.96186280       0.25000000 </v>
    <v>       0.61014446       0.64828166       0.25000000 </v>
    <v>       0.38985554       0.35171834       0.75000000 </v>
    <v>       0.03813720       0.38985554       0.25000000 </v>
    <v>       0.64828166       0.03813720       0.75000000 </v>
   </varray>
  </structure>
  <varray name="forces" >
   <v>      -0.00601520       0.00086116       0.00000000 </v>
   <v>      -0.00375338      -0.00477874       0.00000000 </v>
   <v>      -0.00226182       0.00563990       0.00000000 </v>
   <v>       0.00226182      -0.00563990       0.00000000 </v>
   <v>       0.00375338       0.00477874      -0.00000000 </v>
   <v>       0.00601520      -0.00086116       0.00000000 </v>
   <v>      -0.00000000      -0.00000000       0.00000000 </v>
   <v>      -0.00000000      -0.00000000       0.00000000 </v>
   <v>      -0.00086923      -0.01010524       0.00000000 </v>
   <v>       0.00831678      -0.00580539      -0.00000000 </v>
   <v>      -0.00918601      -0.00429985       0.00000000 </v>
   <v>       0.00918601       0.00429985      -0.00000000 </v>
   <v>       0.00086923       0.01010524      -0.00000000 </v>
   <v>      -0.00831678       0.00580539      -0.00000000 </v>
  </varray>
  <varray name="stress" >
   <v>     405.85977473      -0.00000001      -0.00000000 </v>
   <v>       0.00000001     405.85977473       0.00000000 </v>
   <v>       0.00000000       0.00000000     395.25875961 </v>
  </varray>
  <energy>
   <i name="e_fr_energy">    -92.31808474 </i>
   <i name="e_wo_entrp">    -92.31802250 </i>
   <i name="e_0_energy">     -0.00024897 </i>
  </energy>
  <time name="totalsc">    8.16    8.24</time>
  <eigenvalues>
   <array>
    <dimension dim="1">band</dimension>
    <dimension dim="2">kpoint</dimension>
    <dimension dim="3">spin</dimension>
    <field>eigene</field>
    <field>occ</field>
    <set>
     <set comment="spin 1">
      <set comment="kpoint 1">
       <r>   -9.5483    1.0000 </r>
       <r>   -8.1268    1.0000 </r>
       <r>   -8.1268    1.0000 </r>
       <r>   -7.4240    1.0000 </r>
       <r>   -7.4240    1.0000 </r>
       <r>   -7.2469    1.0000 </r>
       <r>   -0.9038    1.0000 </r>
       <r>   -0.8758    1.0000 </r>
       <r>   -0.8758    1.0000 </r>
       <r>    0.0597    1.0000 </r>
       <r>    1.5155    1.0000 </r>
       <r>    1.9676    1.0000 </r>
       <r>    1.9676    1.0000 </r>
       <r>    3.8985    1.0000 </r>
       <r>    3.8985    1.0000 </r>
       <r>    5.3125    1.0000 </r>
       <r>    5.3750    1.0000 </r>
       <r>    5.3750    1.0000 </r>
       <r>    6.0550    1.0000 </r>
       <r>    6.2885    1.0000 </r>
       <r>    6.8853    1.0000 </r>
       <r>    6.8853    1.0000 </r>
       <r>    7.4843    1.0000 </r>
       <r>    7.4843    1.0000 </r>
       <r>    7.6902    1.0000 </r>
       <r>    8.5832    1.0000 </r>
       <r>    8.7455    1.0000 </r>
       <r>    8.7455    1.0000 </r>
       <r>   10.8360    1.0000 </r>
       <r>   10.8743    1.0000 </r>
       <r>   10.8743    1.0000 </r>
       <r>   15.6239    0.0000 </r>
       <r>   15.6239    0.0000 </r>
       <r>   15.6296    0.0000 </r>
       <r>   16.5011    0.0000 </r>
       <r>   16.5011    0.0000 </r>
       <r>   16.9151    0.0000 </r>
       <r>   17.1425    0.0000 </r>
       <r>   17.5977    0.0000 </r>
       <r>   17.5977    0.0000 </r>
      </set>
      <set comment="kpoint 2">
       <r>   -9.5032    1.0000 </r>
       <r>   -8.2380    1.0000 </r>
       <r>   -8.1767    1.0000 </r>
       <r>   -7.6109    1.0000 </r>
       <r>   -7.3463    1.0000 </r>
       <r>   -6.9753    1.0000 </r>
       <r>   -1.2098    1.0000 </r>
       <r>   -0.8797    1.0000 </r>
       <r>   -0.8316    1.0000 </r>
       <r>    0.3812    1.0000 </r>
       <r>    1.3390    1.0000 </r>
       <r>    1.8763    1.0000 </r>
       <r>    2.1082    1.0000 </r>
       <r>    3.8012    1.0000 </r>
       <r>    3.9921    1.0000 </r>
       <r>    5.0999    1.0000 </r>
       <r>    5.3563    1.0000 </r>
       <r>    5.5516    1.0000 </r>
       <r>    6.3123    1.0000 </r>
       <r>    6.3293    1.0000 </r>
       <r>    6.8516    1.0000 </r>
       <r>    6.8761    1.0000 </r>
       <r>    7.4352    1.0000 </r>
       <r>    7.4946    1.0000 </r>
       <r>    7.7457    1.0000 </r>
       <r>    8.4748    1.0000 </r>
       <r>    8.5255    1.0000 </r>
       <r>    8.7214    1.0000 </r>
       <r>   10.7716    1.0000 </r>
       <r>   11.0468    1.0000 </r>
       <r>   11.1016    1.0000 </r>
       <r>   15.1715    0.0000 </r>
       <r>   15.4933    0.0000 </r>
       <r>   15.7311    0.0000 </r>
       <r>   16.3373    0.0000 </r>
       <r>   16.5252    0.0000 </r>
       <r>   16.9476    0.0000 </r>
       <r>   17.2599    0.0000 </r>
       <r>   17.5380    0.0000 </r>
       <r>   17.5814    0.0000 </r>
      </set>
      <set comment="kpoint 3">
       <r>   -9.3700    1.0000 </r>
       <r>   -8.5232    1.0000 </r>
       <r>   -8.2649    1.0000 </r>
       <r>   -7.7156    1.0000 </r>
       <r>   -7.1925    1.0000 </r>
       <r>   -6.6761    1.0000 </r>
       <r>   -1.6654    1.0000 </r>
       <r>   -0.8896    1.0000 </r>
       <r>   -0.6272    1.0000 </r>
       <r>    0.6705    1.0000 </r>
       <r>    1.0347    1.0000 </r>
       <r>    1.6857    1.0000 </r>
       <r>    2.5634    1.0000 </r>
       <r>    3.6101    1.0000 </r>
       <r>    4.0083    1.0000 </r>
       <r>    5.0074    1.0000 </r>
       <r>    5.2772    1.0000 </r>
       <r>    5.8284    1.0000 </r>
       <r>    6.3795    1.0000 </r>
       <r>    6.7550    1.0000 </r>
       <r>    6.7611    1.0000 </r>
       <r>    6.8574    1.0000 </r>
       <r>    7.3717    1.0000 </r>
       <r>    7.5187    1.0000 </r>
       <r>    7.8293    1.0000 </r>
       <r>    7.9534    1.0000 </r>
       <r>    8.1557    1.0000 </r>
       <r>    9.0720    1.0000 </r>
       <r>   10.5773    1.0000 </r>
       <r>   11.3368    1.0000 </r>
       <r>   11.6081    0.9999 </r>
       <r>   14.2175    0.0000 </r>
       <r>   15.2359    0.0000 </r>
       <r>   15.8488    0.0000 </r>
       <r>   16.2522    0.0000 </r>
       <r>   16.5528    0.0000 </r>
       <r>   17.0365    0.0000 </r>
       <r>   17.1957    0.0000 </r>
       <r>   17.3526    0.0000 </r>
       <r>   17.4168    0.0000 </r>
      </set>
      <set comment="kpoint 4">
       <r>   -9.1626    1.0000 </r>
       <r>   -8.8391    1.0000 </r>
       <r>   -8.3217    1.0000 </r>
       <r>   -7.7466    1.0000 </r>
       <r>   -7.0793    1.0000 </r>
       <r>   -6.5025    1.0000 </r>
       <r>   -1.9343    1.0000 </r>
       <r>   -0.8992    1.0000 </r>
       <r>   -0.3595    1.0000 </r>
       <r>    0.4121    1.0000 </r>
       <r>    1.0713    1.0000 </r>
       <r>    1.5440    1.0000 </r>
       <r>    3.2309    1.0000 </r>
       <r>    3.4824    1.0000 </r>
       <r>    3.8062    1.0000 </r>
       <r>    4.5738    1.0000 </r>
       <r>    5.6500    1.0000 </r>
       <r>    6.0581    1.0000 </r>
       <r>    6.4757    1.0000 </r>
       <r>    6.6442    1.0000 </r>
       <r>    6.8437    1.0000 </r>
       <r>    6.8631    1.0000 </r>
       <r>    7.3406    1.0000 </r>
       <r>    7.5264    1.0000 </r>
       <r>    7.5388    1.0000 </r>
       <r>    7.8803    1.0000 </r>
       <r>    8.0082    1.0000 </r>
       <r>    9.5017    1.0000 </r>
       <r>   10.2937    1.0000 </r>
       <r>   11.5042    1.0000 </r>
       <r>   12.2658    0.0000 </r>
       <r>   13.2087    0.0000 </r>
       <r>   15.0556    0.0000 </r>
       <r>   16.0772    0.0000 </r>
       <r>   16.2367    0.0000 </r>
       <r>   16.4122    0.0000 </r>
       <r>   17.0343    0.0000 </r>
       <r>   17.1464    0.0000 </r>
       <r>   17.3058    0.0000 </r>
       <r>   17.3349    0.0000 </r>
      </set>
      <set comment="kpoint 5">
       <r>   -9.4139    1.0000 </r>
       <r>   -8.3628    1.0000 </r>
       <r>   -8.3434    1.0000 </r>
       <r>   -7.6475    1.0000 </r>
       <r>   -7.2652    1.0000 </r>
       <r>   -6.7400    1.0000 </r>
       <r>   -1.5713    1.0000 </r>
       <r>   -0.8538    1.0000 </r>
       <r>   -0.6873    1.0000 </r>
       <r>    0.5786    1.0000 </r>
       <r>    1.0748    1.0000 </r>
       <r>    1.8815    1.0000 </r>
       <r>    2.3249    1.0000 </r>
       <r>    3.5889    1.0000 </r>
       <r>    4.1757    1.0000 </r>
       <r>    4.9717    1.0000 </r>
       <r>    5.2165    1.0000 </r>
       <r>    5.8014    1.0000 </r>
       <r>    6.3576    1.0000 </r>
       <r>    6.6531    1.0000 </r>
       <r>    6.8015    1.0000 </r>
       <r>    6.8488    1.0000 </r>
       <r>    7.3933    1.0000 </r>
       <r>    7.5059    1.0000 </r>
       <r>    7.8096    1.0000 </r>
       <r>    8.0920    1.0000 </r>
       <r>    8.2589    1.0000 </r>
       <r>    8.9545    1.0000 </r>
       <r>   10.6460    1.0000 </r>
       <r>   11.2963    1.0000 </r>
       <r>   11.4229    1.0000 </r>
       <r>   14.5649    0.0000 </r>
       <r>   15.1493    0.0000 </r>
       <r>   15.8179    0.0000 </r>
       <r>   16.2627    0.0000 </r>
       <r>   16.5919    0.0000 </r>
       <r>   17.0086    0.0000 </r>
       <r>   17.2445    0.0000 </r>
       <r>   17.4417    0.0000 </r>
       <r>   17.5289    0.0000 </r>
      </set>
      <set comment="kpoint 6">
       <r>   -9.2411    1.0000 </r>
       <r>   -8.6624    1.0000 </r>
       <r>   -8.4451    1.0000 </r>
       <r>   -7.6237    1.0000 </r>
       <r>   -7.1747    1.0000 </r>
       <r>   -6.5259    1.0000 </r>
       <r>   -1.9076    1.0000 </r>
       <r>   -0.7853    1.0000 </r>
       <r>   -0.4300    1.0000 </r>
       <r>    0.4357    1.0000 </r>
       <r>    0.7588    1.0000 </r>
       <r>    2.0313    1.0000 </r>
       <r>    2.7986    1.0000 </r>
       <r>    3.3540    1.0000 </r>
       <r>    4.2441    1.0000 </r>
       <r>    4.7029    1.0000 </r>
       <r>    5.2350    1.0000 </r>
       <r>    6.1016    1.0000 </r>
       <r>    6.4405    1.0000 </r>
       <r>    6.7088    1.0000 </r>
       <r>    6.8121    1.0000 </r>
       <r>    6.8385    1.0000 </r>
       <r>    7.3718    1.0000 </r>
       <r>    7.5155    1.0000 </r>
       <r>    7.8322    1.0000 </r>
       <r>    7.8707    1.0000 </r>
       <r>    7.9011    1.0000 </r>
       <r>    9.3566    1.0000 </r>
       <r>   10.4027    1.0000 </r>
       <r>   11.5910    1.0000 </r>
       <r>   11.8844    0.9122 </r>
       <r>   13.6520    0.0000 </r>
       <r>   14.7809    0.0000 </r>
       <r>   15.9799    0.0000 </r>
       <r>   16.2435    0.0000 </r>
       <r>   16.6463    0.0000 </r>
       <r>   16.9912    0.0000 </r>
       <r>   17.1145    0.0000 </r>
       <r>   17.3270    0.0000 </r>
       <r>   17.4693    0.0000 </r>
      </set>
      <set comment="kpoint 7">
       <r>   -9.0475    1.0000 </r>
       <r>   -8.9123    1.0000 </r>
       <r>   -8.4780    1.0000 </r>
       <r>   -7.6132    1.0000 </r>
       <r>   -7.1319    1.0000 </r>
       <r>   -6.4451    1.0000 </r>
       <r>   -2.0351    1.0000 </r>
       <r>   -0.7417    1.0000 </r>
       <r>   -0.2325    1.0000 </r>
       <r>    0.2408    1.0000 </r>
       <r>    0.6137    1.0000 </r>
       <r>    2.0827    1.0000 </r>
       <r>    3.1152    1.0000 </r>
       <r>    3.4543    1.0000 </r>
       <r>    3.9657    1.0000 </r>
       <r>    4.4945    1.0000 </r>
       <r>    5.4493    1.0000 </r>
       <r>    6.2054    1.0000 </r>
       <r>    6.5155    1.0000 </r>
       <r>    6.6260    1.0000 </r>
       <r>    6.7966    1.0000 </r>
       <r>    6.8192    1.0000 </r>
       <r>    7.3667    1.0000 </r>
       <r>    7.5192    1.0000 </r>
       <r>    7.5725    1.0000 </r>
       <r>    7.8933    1.0000 </r>
       <r>    7.9530    1.0000 </r>
       <r>    9.6618    1.0000 </r>
       <r>   10.1760    1.0000 </r>
       <r>   11.6495    0.9993 </r>
       <r>   12.4792    0.0000 </r>
       <r>   12.8722    0.0000 </r>
       <r>   14.6830    0.0000 </r>
       <r>   16.1675    0.0000 </r>
       <r>   16.2371    0.0000 </r>
       <r>   16.4382    0.0000 </r>
       <r>   16.9525    0.0000 </r>
       <r>   17.1934    0.0000 </r>
       <r>   17.2897    0.0000 </r>
       <r>   17.3599    0.0000 </r>
      </set>
      <set comment="kpoint 8">
       <r>   -9.2410    1.0000 </r>
       <r>   -8.6624    1.0000 </r>
       <r>   -8.4452    1.0000 </r>
       <r>   -7.6238    1.0000 </r>
       <r>   -7.1747    1.0000 </r>
       <r>   -6.5259    1.0000 </r>
       <r>   -1.9076    1.0000 </r>
       <r>   -0.7810    1.0000 </r>
       <r>   -0.4388    1.0000 </r>
       <r>    0.4500    1.0000 </r>
       <r>    0.7506    1.0000 </r>
       <r>    2.0278    1.0000 </r>
       <r>    2.7735    1.0000 </r>
       <r>    3.4190    1.0000 </r>
       <r>    4.2145    1.0000 </r>
       <r>    4.6387    1.0000 </r>
       <r>    5.2929    1.0000 </r>
       <r>    6.1257    1.0000 </r>
       <r>    6.4406    1.0000 </r>
       <r>    6.7080    1.0000 </r>
       <r>    6.8127    1.0000 </r>
       <r>    6.8287    1.0000 </r>
       <r>    7.3723    1.0000 </r>
       <r>    7.5158    1.0000 </r>
       <r>    7.6844    1.0000 </r>
       <r>    7.8706    1.0000 </r>
       <r>    8.0327    1.0000 </r>
       <r>    9.3623    1.0000 </r>
       <r>   10.3987    1.0000 </r>
       <r>   11.5344    1.0000 </r>
       <r>   11.9545    0.2517 </r>
       <r>   13.6039    0.0000 </r>
       <r>   14.8276    0.0000 </r>
       <r>   15.9896    0.0000 </r>
       <r>   16.2753    0.0000 </r>
       <r>   16.5301    0.0000 </r>
       <r>   17.0432    0.0000 </r>
       <r>   17.1120    0.0000 </r>
       <r>   17.3389    0.0000 </r>
       <r>   17.4330    0.0000 </r>
      </set>
      <set comment="kpoint 9">
       <r>   -9.0382    1.0000 </r>
       <r>   -8.7826    1.0000 </r>
       <r>   -8.6873    1.0000 </r>
       <r>   -7.4457    1.0000 </r>
       <r>   -7.2495    1.0000 </r>
       <r>   -6.4141    1.0000 </r>
       <r>   -2.0929    1.0000 </r>
       <r>   -0.4953    1.0000 </r>
       <r>   -0.1602    1.0000 </r>
       <r>    0.0529    1.0000 </r>
       <r>    0.3201    1.0000 </r>
       <r>    2.6899    1.0000 </r>
       <r>    2.8184    1.0000 </r>
       <r>    3.2240    1.0000 </r>
       <r>    4.1627    1.0000 </r>
       <r>    4.6792    1.0000 </r>
       <r>    5.0934    1.0000 </r>
       <r>    6.2306    1.0000 </r>
       <r>    6.5199    1.0000 </r>
       <r>    6.6721    1.0000 </r>
       <r>    6.7278    1.0000 </r>
       <r>    6.8300    1.0000 </r>
       <r>    7.4134    1.0000 </r>
       <r>    7.4804    1.0000 </r>
       <r>    7.7489    1.0000 </r>
       <r>    7.8392    1.0000 </r>
       <r>    7.9002    1.0000 </r>
       <r>    9.7304    1.0000 </r>
       <r>   10.1336    1.0000 </r>
       <r>   11.8541    1.0343 </r>
       <r>   12.2817    0.0000 </r>
       <r>   12.9391    0.0000 </r>
       <r>   14.3815    0.0000 </r>
       <r>   16.1333    0.0000 </r>
       <r>   16.2756    0.0000 </r>
       <r>   16.4756    0.0000 </r>
       <r>   16.8551    0.0000 </r>
       <r>   17.2171    0.0000 </r>
       <r>   17.2624    0.0000 </r>
       <r>   17.3481    0.0000 </r>
      </set>
      <set comment="kpoint 10">
       <r>   -9.4948    1.0000 </r>
       <r>   -8.0801    1.0000 </r>
       <r>   -8.0801    1.0000 </r>
       <r>   -7.3797    1.0000 </r>
       <r>   -7.3797    1.0000 </r>
       <r>   -7.2068    1.0000 </r>
       <r>   -0.8438    1.0000 </r>
       <r>   -0.8324    1.0000 </r>
       <r>   -0.8324    1.0000 </r>
       <r>    0.1124    1.0000 </r>
       <r>    1.5418    1.0000 </r>
       <r>    2.0021    1.0000 </r>
       <r>    2.0021    1.0000 </r>
       <r>    3.9456    1.0000 </r>
       <r>    3.9456    1.0000 </r>
[...]
       <r>   13.4704    0.0000 </r>
       <r>   14.6391    0.0000 </r>
       <r>   15.0929    0.0000 </r>
       <r>   15.7294    0.0000 </r>
       <r>   15.7365    0.0000 </r>
      </set>
      <set comment="kpoint 80">
       <r>   -6.6756    1.0000 </r>
       <r>   -6.4981    1.0000 </r>
       <r>   -6.1464    1.0000 </r>
       <r>   -6.0310    1.0000 </r>
       <r>   -5.9026    1.0000 </r>
       <r>   -5.8710    1.0000 </r>
       <r>   -0.4556    1.0000 </r>
       <r>   -0.2983    1.0000 </r>
       <r>    0.4701    1.0000 </r>
       <r>    0.6878    1.0000 </r>
       <r>    1.0552    1.0000 </r>
       <r>    1.3664    1.0000 </r>
       <r>    1.9727    1.0000 </r>
       <r>    2.5358    1.0000 </r>
       <r>    2.9150    1.0000 </r>
       <r>    3.0521    1.0000 </r>
       <r>    3.3116    1.0000 </r>
       <r>    3.3645    1.0000 </r>
       <r>    4.0655    1.0000 </r>
       <r>    4.3335    1.0000 </r>
       <r>    5.6209    1.0000 </r>
       <r>    5.8139    1.0000 </r>
       <r>    5.9481    1.0000 </r>
       <r>    6.2491    1.0000 </r>
       <r>    7.1660    1.0000 </r>
       <r>    7.3980    1.0000 </r>
       <r>    7.9196    1.0000 </r>
       <r>    8.0814    1.0000 </r>
       <r>    8.5728    1.0000 </r>
       <r>    8.9044    1.0000 </r>
       <r>   10.5333    1.0000 </r>
       <r>   10.7888    1.0000 </r>
       <r>   12.9333    0.0000 </r>
       <r>   13.1267    0.0000 </r>
       <r>   13.2431    0.0000 </r>
       <r>   13.6516    0.0000 </r>
       <r>   14.4761    0.0000 </r>
       <r>   15.0078    0.0000 </r>
       <r>   15.6900    0.0000 </r>
       <r>   15.7900    0.0000 </r>
      </set>
      <set comment="kpoint 81">
       <r>   -6.6123    1.0000 </r>
       <r>   -6.5431    1.0000 </r>
       <r>   -6.1930    1.0000 </r>
       <r>   -5.9875    1.0000 </r>
       <r>   -5.9332    1.0000 </r>
       <r>   -5.8639    1.0000 </r>
       <r>   -0.4737    1.0000 </r>
       <r>   -0.4103    1.0000 </r>
       <r>    0.7139    1.0000 </r>
       <r>    0.8353    1.0000 </r>
       <r>    1.0147    1.0000 </r>
       <r>    1.3945    1.0000 </r>
       <r>    1.9135    1.0000 </r>
       <r>    2.4142    1.0000 </r>
       <r>    2.9555    1.0000 </r>
       <r>    3.0436    1.0000 </r>
       <r>    3.2030    1.0000 </r>
       <r>    3.2657    1.0000 </r>
       <r>    4.1572    1.0000 </r>
       <r>    4.2796    1.0000 </r>
       <r>    5.6368    1.0000 </r>
       <r>    5.7277    1.0000 </r>
       <r>    5.8503    1.0000 </r>
       <r>    6.2777    1.0000 </r>
       <r>    7.2767    1.0000 </r>
       <r>    7.3697    1.0000 </r>
       <r>    7.8639    1.0000 </r>
       <r>    7.9502    1.0000 </r>
       <r>    8.8325    1.0000 </r>
       <r>    9.1885    1.0000 </r>
       <r>   10.6422    1.0000 </r>
       <r>   10.6834    1.0000 </r>
       <r>   12.9451    0.0000 </r>
       <r>   12.9778    0.0000 </r>
       <r>   13.0975    0.0000 </r>
       <r>   13.3626    0.0000 </r>
       <r>   14.8368    0.0000 </r>
       <r>   15.1258    0.0000 </r>
       <r>   15.6540    0.0000 </r>
       <r>   15.6779    0.0000 </r>
      </set>
     </set>
    </set>
   </array>
  </eigenvalues>
  <separator name="orbital magnetization" >
   <v name="MAGDIPOLOUT">      0.00000000      0.00000000      0.00000000</v>
  </separator>
  <dos>
   <i name="efermi">     11.92990360 </i>
   <total>
    <array>
     <dimension dim="1">gridpoints</dimension>
     <dimension dim="2">spin</dimension>
     <field>energy</field>
     <field>total</field>
     <field>integrated</field>
     <set>
      <set comment="spin 1">
       <r>   -10.9092     0.0000     0.0000 </r>
       <r>   -10.8094     0.0000     0.0000 </r>
       <r>   -10.7096     0.0000     0.0000 </r>
       <r>   -10.6098     0.0000     0.0000 </r>
       <r>   -10.5100     0.0000     0.0000 </r>
       <r>   -10.4102     0.0000     0.0000 </r>
       <r>   -10.3104     0.0000     0.0000 </r>
       <r>   -10.2106     0.0000     0.0000 </r>
       <r>   -10.1108     0.0000     0.0000 </r>
       <r>   -10.0110     0.0000     0.0000 </r>
       <r>    -9.9112     0.0000     0.0000 </r>
       <r>    -9.8114     0.0001     0.0000 </r>
       <r>    -9.7116     0.0012     0.0001 </r>
       <r>    -9.6118    -0.0092    -0.0008 </r>
       <r>    -9.5120     0.0939     0.0086 </r>
       <r>    -9.4122     0.4710     0.0556 </r>
       <r>    -9.3124     0.7451     0.1299 </r>
       <r>    -9.2126     0.9325     0.2230 </r>
       <r>    -9.1129     1.1478     0.3376 </r>
       <r>    -9.0131     1.2311     0.4604 </r>
       <r>    -8.9133     1.4455     0.6047 </r>
       <r>    -8.8135     1.2834     0.7327 </r>
       <r>    -8.7137     1.5592     0.8883 </r>
       <r>    -8.6139     2.0911     1.0970 </r>
       <r>    -8.5141     1.8608     1.2827 </r>
       <r>    -8.4143     2.4672     1.5289 </r>
       <r>    -8.3145     2.3859     1.7671 </r>
       <r>    -8.2147     3.4414     2.1105 </r>
       <r>    -8.1149     2.7485     2.3848 </r>
       <r>    -8.0151     2.4934     2.6336 </r>
       <r>    -7.9153     2.2815     2.8613 </r>
       <r>    -7.8155     1.8462     3.0456 </r>
       <r>    -7.7157     1.9807     3.2432 </r>
       <r>    -7.6159     3.2521     3.5678 </r>
       <r>    -7.5161     4.0165     3.9686 </r>
       <r>    -7.4163     3.1496     4.2829 </r>
       <r>    -7.3165     2.4795     4.5304 </r>
       <r>    -7.2167     4.1231     4.9418 </r>
       <r>    -7.1169     4.5052     5.3915 </r>
       <r>    -7.0171     4.6822     5.8587 </r>
       <r>    -6.9173     4.1033     6.2682 </r>
       <r>    -6.8175     3.1299     6.5806 </r>
       <r>    -6.7177     4.6753     7.0472 </r>
       <r>    -6.6179     5.0993     7.5560 </r>
       <r>    -6.5181     4.3137     7.9865 </r>
       <r>    -6.4183     6.2733     8.6126 </r>
       <r>    -6.3186     5.1561     9.1272 </r>
       <r>    -6.2188     3.7519     9.5016 </r>
       <r>    -6.1190     4.1685     9.9176 </r>
       <r>    -6.0192     5.1779    10.4343 </r>
       <r>    -5.9194     5.0522    10.9385 </r>
       <r>    -5.8196     6.4975    11.5869 </r>
       <r>    -5.7198     2.5870    11.8451 </r>
       <r>    -5.6200     1.6163    12.0064 </r>
       <r>    -5.5202    -0.0703    11.9994 </r>
       <r>    -5.4204     0.0042    11.9998 </r>
       <r>    -5.3206     0.0019    12.0000 </r>
       <r>    -5.2208     0.0000    12.0000 </r>
       <r>    -5.1210     0.0000    12.0000 </r>
       <r>    -5.0212     0.0000    12.0000 </r>
       <r>    -4.9214     0.0000    12.0000 </r>
       <r>    -4.8216     0.0000    12.0000 </r>
       <r>    -4.7218     0.0000    12.0000 </r>
       <r>    -4.6220     0.0000    12.0000 </r>
       <r>    -4.5222     0.0000    12.0000 </r>
       <r>    -4.4224     0.0000    12.0000 </r>
       <r>    -4.3226     0.0000    12.0000 </r>
       <r>    -4.2228     0.0000    12.0000 </r>
       <r>    -4.1230     0.0000    12.0000 </r>
       <r>    -4.0232     0.0000    12.0000 </r>
       <r>    -3.9234     0.0000    12.0000 </r>
       <r>    -3.8236     0.0000    12.0000 </r>
       <r>    -3.7238     0.0000    12.0000 </r>
       <r>    -3.6240     0.0000    12.0000 </r>
       <r>    -3.5243     0.0000    12.0000 </r>
       <r>    -3.4245     0.0000    12.0000 </r>
       <r>    -3.3247     0.0000    12.0000 </r>
       <r>    -3.2249     0.0000    12.0000 </r>
       <r>    -3.1251     0.0000    12.0000 </r>
       <r>    -3.0253     0.0000    12.0000 </r>
       <r>    -2.9255     0.0000    12.0000 </r>
       <r>    -2.8257     0.0000    12.0000 </r>
       <r>    -2.7259     0.0000    12.0000 </r>
       <r>    -2.6261     0.0000    12.0000 </r>
       <r>    -2.5263     0.0000    12.0000 </r>
       <r>    -2.4265     0.0000    12.0000 </r>
       <r>    -2.3267     0.0006    12.0001 </r>
       <r>    -2.2269    -0.0015    11.9999 </r>
       <r>    -2.1271     0.0033    12.0002 </r>
       <r>    -2.0273     0.3916    12.0393 </r>
       <r>    -1.9275     0.6286    12.1021 </r>
       <r>    -1.8277     1.2879    12.2306 </r>
       <r>    -1.7279     0.5878    12.2893 </r>
       <r>    -1.6281     0.9050    12.3796 </r>
       <r>    -1.5283     0.8425    12.4636 </r>
       <r>    -1.4285     0.9261    12.5561 </r>
       <r>    -1.3287     0.8955    12.6454 </r>
       <r>    -1.2289     0.1116    12.6566 </r>
       <r>    -1.1291     1.0309    12.7595 </r>
       <r>    -1.0293     1.0979    12.8690 </r>
       <r>    -0.9295     0.5598    12.9249 </r>
       <r>    -0.8297     1.4745    13.0720 </r>
       <r>    -0.7299     2.7353    13.3450 </r>
       <r>    -0.6302     2.6391    13.6084 </r>
       <r>    -0.5304     2.4723    13.8551 </r>
       <r>    -0.4306     3.6565    14.2200 </r>
       <r>    -0.3308     4.6956    14.6886 </r>
       <r>    -0.2310     3.9903    15.0868 </r>
       <r>    -0.1312     4.2495    15.5109 </r>
       <r>    -0.0314     5.3737    16.0472 </r>
       <r>     0.0684     4.4025    16.4866 </r>
       <r>     0.1682     3.3313    16.8190 </r>
       <r>     0.2680     1.9185    17.0105 </r>
       <r>     0.3678     3.0051    17.3104 </r>
       <r>     0.4676     3.9238    17.7019 </r>
       <r>     0.5674     4.2406    18.1251 </r>
       <r>     0.6672     4.0467    18.5290 </r>
       <r>     0.7670     4.7486    19.0029 </r>
       <r>     0.8668     4.3958    19.4416 </r>
       <r>     0.9666     2.9158    19.7326 </r>
       <r>     1.0664     3.6621    20.0980 </r>
       <r>     1.1662     5.0098    20.5980 </r>
       <r>     1.2660     3.4243    20.9397 </r>
       <r>     1.3658     3.9769    21.3366 </r>
       <r>     1.4656     5.7235    21.9078 </r>
       <r>     1.5654     3.0509    22.2123 </r>
       <r>     1.6652     2.6743    22.4791 </r>
       <r>     1.7650     2.7734    22.7559 </r>
       <r>     1.8648     3.7282    23.1280 </r>
       <r>     1.9646     4.0224    23.5294 </r>
       <r>     2.0644     4.4738    23.9759 </r>
       <r>     2.1641     3.8847    24.3635 </r>
       <r>     2.2639     4.7005    24.8326 </r>
       <r>     2.3637     2.6110    25.0932 </r>
       <r>     2.4635     2.5229    25.3450 </r>
       <r>     2.5633     3.5241    25.6967 </r>
       <r>     2.6631     3.6873    26.0647 </r>
       <r>     2.7629     4.5360    26.5173 </r>
       <r>     2.8627     4.4727    26.9637 </r>
       <r>     2.9625     4.9507    27.4578 </r>
       <r>     3.0623     4.0473    27.8617 </r>
       <r>     3.1621     4.6012    28.3208 </r>
       <r>     3.2619     5.9784    28.9175 </r>
       <r>     3.3617     7.4987    29.6658 </r>
       <r>     3.4615     5.8459    30.2492 </r>
       <r>     3.5613     4.4292    30.6912 </r>
       <r>     3.6611     4.2198    31.1123 </r>
       <r>     3.7609     3.9912    31.5107 </r>
       <r>     3.8607     3.3527    31.8452 </r>
       <r>     3.9605     3.8697    32.2314 </r>
       <r>     4.0603     6.7028    32.9003 </r>
       <r>     4.1601     5.3258    33.4318 </r>
       <r>     4.2599     6.6107    34.0916 </r>
       <r>     4.3597     4.9169    34.5822 </r>
       <r>     4.4595     3.1418    34.8958 </r>
       <r>     4.5593     3.5078    35.2458 </r>
       <r>     4.6591     5.6035    35.8051 </r>
       <r>     4.7589     5.1060    36.3146 </r>
       <r>     4.8587     2.9799    36.6120 </r>
       <r>     4.9584     4.6036    37.0714 </r>
       <r>     5.0582     4.3130    37.5018 </r>
       <r>     5.1580     5.5302    38.0537 </r>
       <r>     5.2578     3.8183    38.4348 </r>
       <r>     5.3576     4.7655    38.9104 </r>
       <r>     5.4574     4.8368    39.3931 </r>
       <r>     5.5572     5.1852    39.9105 </r>
       <r>     5.6570     5.8357    40.4929 </r>
       <r>     5.7568     4.8176    40.9737 </r>
       <r>     5.8566     5.1861    41.4912 </r>
       <r>     5.9564     6.9401    42.1838 </r>
       <r>     6.0562     6.7355    42.8560 </r>
       <r>     6.1560     6.3597    43.4907 </r>
       <r>     6.2558     6.9897    44.1883 </r>
       <r>     6.3556     6.0086    44.7879 </r>
       <r>     6.4554     5.4333    45.3301 </r>
       <r>     6.5552     5.7842    45.9074 </r>
       <r>     6.6550     4.5652    46.3630 </r>
       <r>     6.7548     4.3366    46.7957 </r>
       <r>     6.8546     3.3257    47.1276 </r>
       <r>     6.9544     2.2270    47.3499 </r>
       <r>     7.0542     0.4591    47.3957 </r>
       <r>     7.1540     3.1537    47.7104 </r>
       <r>     7.2538     3.8870    48.0983 </r>
       <r>     7.3536     4.1825    48.5157 </r>
       <r>     7.4534     5.2607    49.0407 </r>
       <r>     7.5532     3.4476    49.3848 </r>
       <r>     7.6530     4.9980    49.8836 </r>
       <r>     7.7528     5.1110    50.3936 </r>
       <r>     7.8525     6.9057    51.0828 </r>
       <r>     7.9523     6.6849    51.7499 </r>
       <r>     8.0521     7.8531    52.5336 </r>
       <r>     8.1519     6.7766    53.2099 </r>
       <r>     8.2517     5.3711    53.7459 </r>
       <r>     8.3515     4.8978    54.2347 </r>
       <r>     8.4513     3.3063    54.5647 </r>
       <r>     8.5511     4.3082    54.9946 </r>
       <r>     8.6509     3.9348    55.3873 </r>
       <r>     8.7507     2.0007    55.5870 </r>
       <r>     8.8505     1.6596    55.7526 </r>
       <r>     8.9503     1.2471    55.8770 </r>
       <r>     9.0501     1.0011    55.9769 </r>
       <r>     9.1499     1.2997    56.1066 </r>
       <r>     9.2497     2.0665    56.3129 </r>
       <r>     9.3495     1.9337    56.5059 </r>
       <r>     9.4493     3.1098    56.8162 </r>
       <r>     9.5491     2.6134    57.0770 </r>
       <r>     9.6489     3.2058    57.3969 </r>
       <r>     9.7487     1.6993    57.5665 </r>
       <r>     9.8485     1.4240    57.7086 </r>
       <r>     9.9483     1.9725    57.9055 </r>
       <r>    10.0481     3.1307    58.2179 </r>
       <r>    10.1479     1.0261    58.3203 </r>
       <r>    10.2477     1.3905    58.4591 </r>
       <r>    10.3475     1.5102    58.6098 </r>
       <r>    10.4473     1.5512    58.7646 </r>
       <r>    10.5471     1.2564    58.8900 </r>
       <r>    10.6468     3.5590    59.2452 </r>
       <r>    10.7466     2.6053    59.5052 </r>
       <r>    10.8464     2.3004    59.7347 </r>
       <r>    10.9462     0.9270    59.8272 </r>
       <r>    11.0460     0.7425    59.9014 </r>
       <r>    11.1458     1.9849    60.0994 </r>
       <r>    11.2456     2.8220    60.3811 </r>
       <r>    11.3454     1.6981    60.5505 </r>
       <r>    11.4452     3.0857    60.8585 </r>
       <r>    11.5450     4.0309    61.2607 </r>
       <r>    11.6448     2.9696    61.5571 </r>
       <r>    11.7446     2.0645    61.7631 </r>
       <r>    11.8444     1.5160    61.9144 </r>
       <r>    11.9442     1.0476    62.0190 </r>
       <r>    12.0440     1.3130    62.1500 </r>
       <r>    12.1438     1.1700    62.2668 </r>
       <r>    12.2436     1.2416    62.3907 </r>
       <r>    12.3434     1.4619    62.5366 </r>
       <r>    12.4432     1.1331    62.6496 </r>
       <r>    12.5430     2.1881    62.8680 </r>
       <r>    12.6428     1.5311    63.0208 </r>
       <r>    12.7426     2.3941    63.2597 </r>
       <r>    12.8424     4.9031    63.7490 </r>
       <r>    12.9422     5.7214    64.3200 </r>
       <r>    13.0420     4.6766    64.7867 </r>
       <r>    13.1418     4.5488    65.2407 </r>
       <r>    13.2416     2.7469    65.5148 </r>
       <r>    13.3414     3.0080    65.8150 </r>
       <r>    13.4411     3.2000    66.1343 </r>
       <r>    13.5409     2.3322    66.3671 </r>
       <r>    13.6407     3.8832    66.7546 </r>
       <r>    13.7405     4.6152    67.2152 </r>
       <r>    13.8403     2.2316    67.4379 </r>
       <r>    13.9401     3.0557    67.7428 </r>
       <r>    14.0399     3.7517    68.1172 </r>
       <r>    14.1397     2.1109    68.3279 </r>
       <r>    14.2395     2.1186    68.5393 </r>
       <r>    14.3393     2.4926    68.7881 </r>
       <r>    14.4391     2.6048    69.0480 </r>
       <r>    14.5389     3.3850    69.3858 </r>
       <r>    14.6387     2.0343    69.5889 </r>
       <r>    14.7385     2.3634    69.8247 </r>
       <r>    14.8383     4.4878    70.2726 </r>
       <r>    14.9381     4.0181    70.6736 </r>
       <r>    15.0379     3.4947    71.0224 </r>
       <r>    15.1377     3.2990    71.3516 </r>
       <r>    15.2375     3.7213    71.7230 </r>
       <r>    15.3373     3.3400    72.0563 </r>
       <r>    15.4371     2.9967    72.3553 </r>
       <r>    15.5369     3.3670    72.6913 </r>
       <r>    15.6367     3.5703    73.0477 </r>
       <r>    15.7365     7.7018    73.8163 </r>
       <r>    15.8363     6.5770    74.4726 </r>
       <r>    15.9361     4.0132    74.8731 </r>
       <r>    16.0359     4.0956    75.2819 </r>
       <r>    16.1357     2.9255    75.5738 </r>
       <r>    16.2355     3.1757    75.8907 </r>
       <r>    16.3352     3.7341    76.2634 </r>
       <r>    16.4350     1.8450    76.4475 </r>
       <r>    16.5348     1.4028    76.5875 </r>
       <r>    16.6346     1.5540    76.7426 </r>
       <r>    16.7344     2.8129    77.0233 </r>
       <r>    16.8342     2.7062    77.2934 </r>
       <r>    16.9340     2.8151    77.5743 </r>
       <r>    17.0338     4.4058    78.0140 </r>
       <r>    17.1336     4.0134    78.4145 </r>
       <r>    17.2334     3.7547    78.7892 </r>
       <r>    17.3332     4.6882    79.2571 </r>
       <r>    17.4330     3.4385    79.6002 </r>
       <r>    17.5328     3.1087    79.9105 </r>
       <r>    17.6326     0.7780    79.9881 </r>
       <r>    17.7324     0.1264    80.0007 </r>
       <r>    17.8322    -0.0091    79.9998 </r>
       <r>    17.9320     0.0018    80.0000 </r>
       <r>    18.0318     0.0001    80.0000 </r>
       <r>    18.1316     0.0000    80.0000 </r>
       <r>    18.2314     0.0000    80.0000 </r>
       <r>    18.3312     0.0000    80.0000 </r>
       <r>    18.4310     0.0000    80.0000 </r>
       <r>    18.5308     0.0000    80.0000 </r>
       <r>    18.6306     0.0000    80.0000 </r>
       <r>    18.7304     0.0000    80.0000 </r>
       <r>    18.8302     0.0000    80.0000 </r>
       <r>    18.9300     0.0000    80.0000 </r>
       <r>    19.0298     0.0000    80.0000 </r>
      </set>
     </set>
    </array>
   </total>
  </dos>
 </calculation>
 <structure name="finalpos" >
  <crystal>
   <varray name="basis" >
    <v>       3.78197644      -6.55057534       0.00000000 </v>
    <v>       3.78197643       6.55057535       0.00000000 </v>
    <v>       0.00000000       0.00000000       2.66046976 </v>
   </varray>
   <i name="volume">    131.82160271 </i>
   <varray name="rec_basis" >
    <v>       0.13220601      -0.07632917       0.00000000 </v>
    <v>       0.13220601       0.07632917       0.00000000 </v>
    <v>       0.00000000       0.00000000       0.37587347 </v>
   </varray>
  </crystal>
  <varray name="positions" >
   <v>       0.19231650       0.83301447       0.75000000 </v>
   <v>       0.35930203       0.19231650       0.25000000 </v>
   <v>       0.83301447       0.64069797       0.25000000 </v>
   <v>       0.16698553       0.35930203       0.75000000 </v>
   <v>       0.64069797       0.80768350       0.75000000 </v>
   <v>       0.80768350       0.16698553       0.25000000 </v>
   <v>       0.33333333       0.66666667       0.75000000 </v>
   <v>       0.66666667       0.33333333       0.25000000 </v>
   <v>       0.96186280       0.61014446       0.75000000 </v>
   <v>       0.35171834       0.96186280       0.25000000 </v>
   <v>       0.61014446       0.64828166       0.25000000 </v>
   <v>       0.38985554       0.35171834       0.75000000 </v>
   <v>       0.03813720       0.38985554       0.25000000 </v>
   <v>       0.64828166       0.03813720       0.75000000 </v>
  </varray>
 </structure>
</modeling>
