unknown system                          
           1
     3.781976   -6.550575    0.000000
     3.781976    6.550575    0.000000
     0.000000    0.000000    2.660470
   Si   N 
   6   8
Direct configuration=     1
   0.19708959  0.83151770  0.75000000
   0.36557189  0.19708959  0.25000000
   0.83151770  0.63442811  0.25000000
   0.16848230  0.36557189  0.75000000
   0.63442811  0.80291041  0.75000000
   0.80291041  0.16848230  0.25000000
   0.33333333  0.66666667  0.75000000
   0.66666667  0.33333333  0.25000000
   0.96358754  0.61246345  0.75000000
   0.35112409  0.96358754  0.25000000
   0.61246345  0.64887591  0.25000000
   0.38753655  0.35112409  0.75000000
   0.03641246  0.38753655  0.25000000
   0.64887591  0.03641246  0.75000000
Direct configuration=     2
   0.19171480  0.83186445  0.75000000
   0.35985035  0.19171480  0.25000000
   0.83186445  0.64014965  0.25000000
   0.16813555  0.35985035  0.75000000
   0.64014965  0.80828520  0.75000000
   0.80828520  0.16813555  0.25000000
   0.33333333  0.66666667  0.75000000
   0.66666667  0.33333333  0.25000000
   0.96452551  0.60738092  0.75000000
   0.35714459  0.96452551  0.25000000
   0.60738092  0.64285541  0.25000000
   0.39261908  0.35714459  0.75000000
   0.03547449  0.39261908  0.25000000
   0.64285541  0.03547449  0.75000000
Direct configuration=     3
   0.19457534  0.83167991  0.75000000
   0.36289543  0.19457534  0.25000000
   0.83167991  0.63710457  0.25000000
   0.16832009  0.36289543  0.75000000
   0.63710457  0.80542466  0.75000000
   0.80542466  0.16832009  0.25000000
   0.33333333  0.66666667  0.75000000
   0.66666667  0.33333333  0.25000000
   0.96402631  0.61008591  0.75000000
   0.35394040  0.96402631  0.25000000
   0.61008591  0.64605960  0.25000000
   0.38991409  0.35394040  0.75000000
   0.03597369  0.38991409  0.25000000
   0.64605960  0.03597369  0.75000000
Direct configuration=     4
   0.19400338  0.83334296  0.75000000
   0.36066042  0.19400338  0.25000000
   0.83334296  0.63933958  0.25000000
   0.16665704  0.36066042  0.75000000
   0.63933958  0.80599662  0.75000000
   0.80599662  0.16665704  0.25000000
   0.33333333  0.66666667  0.75000000
   0.66666667  0.33333333  0.25000000
   0.96205894  0.60908764  0.75000000
   0.35297130  0.96205894  0.25000000
   0.60908764  0.64702870  0.25000000
   0.39091236  0.35297130  0.75000000
   0.03794106  0.39091236  0.25000000
   0.64702870  0.03794106  0.75000000
Direct configuration=     5
   0.19413234  0.83296798  0.75000000
   0.36116436  0.19413234  0.25000000
   0.83296798  0.63883564  0.25000000
   0.16703202  0.36116436  0.75000000
   0.63883564  0.80586766  0.75000000
   0.80586766  0.16703202  0.25000000
   0.33333333  0.66666667  0.75000000
   0.66666667  0.33333333  0.25000000
   0.96250254  0.60931273  0.75000000
   0.35318981  0.96250254  0.25000000
   0.60931273  0.64681019  0.25000000
   0.39068727  0.35318981  0.75000000
   0.03749746  0.39068727  0.25000000
   0.64681019  0.03749746  0.75000000
Direct configuration=     6
   0.19239711  0.83301241  0.75000000
   0.35938470  0.19239711  0.25000000
   0.83301241  0.64061530  0.25000000
   0.16698759  0.35938470  0.75000000
   0.64061530  0.80760289  0.75000000
   0.80760289  0.16698759  0.25000000
   0.33333333  0.66666667  0.75000000
   0.66666667  0.33333333  0.25000000
   0.96189120  0.61010754  0.75000000
   0.35178366  0.96189120  0.25000000
   0.61010754  0.64821634  0.25000000
   0.38989246  0.35178366  0.75000000
   0.03810880  0.38989246  0.25000000
   0.64821634  0.03810880  0.75000000
Direct configuration=     7
   0.19231650  0.83301447  0.75000000
   0.35930203  0.19231650  0.25000000
   0.83301447  0.64069797  0.25000000
   0.16698553  0.35930203  0.75000000
   0.64069797  0.80768350  0.75000000
   0.80768350  0.16698553  0.25000000
   0.33333333  0.66666667  0.75000000
   0.66666667  0.33333333  0.25000000
   0.96186280  0.61014446  0.75000000
   0.35171834  0.96186280  0.25000000
   0.61014446  0.64828166  0.25000000
   0.38985554  0.35171834  0.75000000
   0.03813720  0.38985554  0.25000000
   0.64828166  0.03813720  0.75000000
