  28  28   0   0
  0.1430426E+02  0.8970185E-09  0.8970185E-09  0.5747646E-09  0.5000000E-15
  1.000000000000000E-004
  CAR 
 unknown system                          
     11.91298856    -12.79467549  301      6.18781110      1.00000000
    -12.795  0.0000E+00  0.0000E+00
    -12.712  0.0000E+00  0.0000E+00
    -12.630  0.0000E+00  0.0000E+00
    -12.548  0.3597E-34  0.2962E-35
    -12.465  0.2746E-28  0.2262E-29
    -12.383  0.4959E-23  0.4084E-24
    -12.301  0.2258E-18  0.1860E-19
    -12.218  0.2589E-14  0.2132E-15
    -12.136  0.7384E-11  0.6084E-12
    -12.053  0.5146E-08  0.4244E-09
    -11.971  0.8365E-06  0.6932E-07
    -11.889  0.2753E-04  0.2337E-05
    -11.806  0.5991E-04  0.7271E-05
    -11.724 -0.7274E-03 -0.5264E-04
    -11.642  0.5232E-02  0.3783E-03
    -11.559  0.2573E-01  0.2497E-02
    -11.477  0.4471E-01  0.6179E-02
    -11.395  0.4916E-01  0.1023E-01
    -11.312  0.5445E-01  0.1471E-01
    -11.230  0.6933E-01  0.2042E-01
    -11.147  0.1193E+00  0.3025E-01
    -11.065  0.9378E-01  0.3797E-01
    -10.983  0.9813E-01  0.4605E-01
    -10.900  0.7135E-01  0.5193E-01
    -10.818  0.4814E-01  0.5589E-01
    -10.736  0.1750E-01  0.5734E-01
    -10.653  0.2641E-01  0.5951E-01
    -10.571  0.1052E+00  0.6817E-01
    -10.489  0.4811E-01  0.7214E-01
    -10.406  0.3825E-01  0.7529E-01
    -10.324  0.1568E+00  0.8820E-01
    -10.242  0.1387E+00  0.9962E-01
    -10.159  0.7394E-01  0.1057E+00
    -10.077  0.6172E-01  0.1108E+00
     -9.994  0.4480E-01  0.1145E+00
     -9.912  0.1024E+00  0.1229E+00
     -9.830  0.1676E+00  0.1367E+00
     -9.747  0.2005E+00  0.1532E+00
     -9.665  0.1752E+00  0.1677E+00
     -9.583  0.1541E+00  0.1804E+00
     -9.500  0.1099E+00  0.1894E+00
     -9.418  0.1404E+00  0.2010E+00
     -9.336  0.2432E+00  0.2210E+00
     -9.253  0.2123E+00  0.2385E+00
     -9.171  0.2347E-01  0.2404E+00
     -9.089 -0.6180E-02  0.2399E+00
     -9.006  0.8381E-03  0.2400E+00
     -8.924  0.1394E-03  0.2400E+00
     -8.841  0.2550E-05  0.2400E+00
     -8.759  0.9413E-08  0.2400E+00
     -8.677  0.7913E-11  0.2400E+00
     -8.594  0.1590E-14  0.2400E+00
     -8.512  0.0000E+00  0.2400E+00
     -8.430  0.0000E+00  0.2400E+00
     -8.347  0.0000E+00  0.2400E+00
     -8.265  0.0000E+00  0.2400E+00
     -8.183  0.0000E+00  0.2400E+00
     -8.100  0.0000E+00  0.2400E+00
     -8.018  0.0000E+00  0.2400E+00
     -7.936  0.0000E+00  0.2400E+00
     -7.853  0.0000E+00  0.2400E+00
     -7.771  0.0000E+00  0.2400E+00
     -7.688  0.0000E+00  0.2400E+00
     -7.606  0.0000E+00  0.2400E+00
     -7.524  0.0000E+00  0.2400E+00
     -7.441  0.0000E+00  0.2400E+00
     -7.359  0.0000E+00  0.2400E+00
     -7.277  0.0000E+00  0.2400E+00
     -7.194  0.0000E+00  0.2400E+00
     -7.112  0.0000E+00  0.2400E+00
     -7.030  0.0000E+00  0.2400E+00
     -6.947  0.0000E+00  0.2400E+00
     -6.865  0.0000E+00  0.2400E+00
     -6.782  0.0000E+00  0.2400E+00
     -6.700  0.0000E+00  0.2400E+00
     -6.618  0.0000E+00  0.2400E+00
     -6.535  0.0000E+00  0.2400E+00
     -6.453  0.0000E+00  0.2400E+00
     -6.371  0.0000E+00  0.2400E+00
     -6.288  0.0000E+00  0.2400E+00
     -6.206  0.0000E+00  0.2400E+00
     -6.124  0.0000E+00  0.2400E+00
     -6.041  0.0000E+00  0.2400E+00
     -5.959  0.0000E+00  0.2400E+00
     -5.877  0.0000E+00  0.2400E+00
     -5.794  0.0000E+00  0.2400E+00
     -5.712  0.0000E+00  0.2400E+00
     -5.629  0.1880E-34  0.2400E+00
     -5.547  0.1386E-28  0.2400E+00
     -5.465  0.2539E-23  0.2400E+00
     -5.382  0.1147E-18  0.2400E+00
     -5.300  0.1267E-14  0.2400E+00
     -5.218  0.3356E-11  0.2400E+00
     -5.135  0.2091E-08  0.2400E+00
     -5.053  0.2965E-06  0.2400E+00
     -4.971  0.8796E-05  0.2400E+00
     -4.888  0.2567E-04  0.2400E+00
     -4.806 -0.2614E-03  0.2400E+00
     -4.724  0.1667E-02  0.2401E+00
     -4.641  0.9766E-02  0.2409E+00
     -4.559  0.1167E-01  0.2419E+00
     -4.476  0.2268E-01  0.2438E+00
     -4.394  0.1817E-01  0.2452E+00
     -4.312  0.2689E-01  0.2475E+00
     -4.229  0.3528E-01  0.2504E+00
     -4.147  0.3441E-01  0.2532E+00
     -4.065  0.5146E-01  0.2574E+00
     -3.982  0.7511E-01  0.2636E+00
     -3.900  0.1008E+00  0.2719E+00
     -3.818  0.9543E-01  0.2798E+00
     -3.735  0.1050E+00  0.2884E+00
     -3.653  0.9020E-01  0.2959E+00
     -3.570  0.7716E-01  0.3022E+00
     -3.488  0.8063E-01  0.3089E+00
     -3.406  0.7726E-01  0.3152E+00
     -3.323  0.5450E-01  0.3197E+00
     -3.241  0.8318E-01  0.3266E+00
     -3.159  0.1037E+00  0.3351E+00
     -3.076  0.1131E+00  0.3444E+00
     -2.994  0.1136E+00  0.3538E+00
     -2.912  0.1307E+00  0.3645E+00
     -2.829  0.1108E+00  0.3737E+00
     -2.747  0.9232E-01  0.3813E+00
     -2.665  0.1090E+00  0.3902E+00
     -2.582  0.1045E+00  0.3989E+00
     -2.500  0.6429E-01  0.4042E+00
     -2.417  0.4476E-01  0.4078E+00
     -2.335  0.1528E-01  0.4091E+00
     -2.253  0.2814E-01  0.4114E+00
     -2.170  0.4296E-01  0.4150E+00
     -2.088  0.2063E-01  0.4166E+00
     -2.006  0.4236E-01  0.4201E+00
     -1.923  0.8403E-01  0.4271E+00
     -1.841  0.1011E+00  0.4354E+00
     -1.759  0.3957E-01  0.4386E+00
     -1.676  0.3374E-01  0.4414E+00
     -1.594  0.6426E-01  0.4467E+00
     -1.512  0.1182E+00  0.4565E+00
     -1.429  0.1649E+00  0.4700E+00
     -1.347  0.9887E-01  0.4782E+00
     -1.264  0.6321E-01  0.4834E+00
     -1.182  0.7471E-01  0.4895E+00
     -1.100  0.7222E-01  0.4955E+00
     -1.017  0.6688E-01  0.5010E+00
     -0.935  0.1007E+00  0.5093E+00
     -0.853  0.1079E+00  0.5182E+00
     -0.770  0.8742E-01  0.5254E+00
     -0.688  0.8758E-01  0.5326E+00
     -0.606  0.8248E-01  0.5394E+00
     -0.523  0.8474E-01  0.5464E+00
     -0.441  0.9223E-01  0.5540E+00
     -0.358  0.1139E+00  0.5633E+00
     -0.276  0.1162E+00  0.5729E+00
     -0.194  0.1245E+00  0.5832E+00
     -0.111  0.1616E+00  0.5965E+00
     -0.029  0.1845E+00  0.6117E+00
      0.053  0.1100E+00  0.6207E+00
      0.136  0.1289E+00  0.6314E+00
      0.218  0.1559E+00  0.6442E+00
      0.300  0.1401E+00  0.6557E+00
      0.383  0.1146E+00  0.6652E+00
      0.465  0.1224E+00  0.6753E+00
      0.547  0.1919E+00  0.6911E+00
      0.630  0.1951E+00  0.7071E+00
      0.712  0.1461E+00  0.7192E+00
      0.795  0.1291E+00  0.7298E+00
      0.877  0.1348E+00  0.7409E+00
      0.959  0.1099E+00  0.7499E+00
      1.042  0.1110E+00  0.7591E+00
      1.124  0.1118E+00  0.7683E+00
      1.206  0.9393E-01  0.7760E+00
      1.289  0.1199E+00  0.7859E+00
      1.371  0.1296E+00  0.7966E+00
      1.453  0.9819E-01  0.8047E+00
      1.536  0.9072E-01  0.8121E+00
      1.618  0.9336E-01  0.8198E+00
      1.700  0.9922E-01  0.8280E+00
      1.783  0.1205E+00  0.8379E+00
      1.865  0.1058E+00  0.8466E+00
      1.948  0.9510E-01  0.8545E+00
      2.030  0.5551E-01  0.8590E+00
      2.112  0.9023E-01  0.8665E+00
      2.195  0.1114E+00  0.8756E+00
      2.277  0.9678E-01  0.8836E+00
      2.359  0.1074E+00  0.8924E+00
      2.442  0.1465E+00  0.9045E+00
      2.524  0.1226E+00  0.9146E+00
      2.606  0.8528E-01  0.9216E+00
      2.689  0.9160E-01  0.9292E+00
      2.771  0.1380E+00  0.9405E+00
      2.854  0.1373E+00  0.9518E+00
      2.936  0.1068E+00  0.9606E+00
      3.018  0.1589E+00  0.9737E+00
      3.101  0.1124E+00  0.9830E+00
      3.183  0.9389E-01  0.9907E+00
      3.265  0.9963E-01  0.9989E+00
      3.348  0.1624E+00  0.1012E+01
      3.430  0.2143E+00  0.1030E+01
      3.512  0.1103E+00  0.1039E+01
      3.595  0.9639E-01  0.1047E+01
      3.677  0.1206E+00  0.1057E+01
      3.759  0.8610E-01  0.1064E+01
      3.842  0.1107E+00  0.1073E+01
      3.924  0.1878E+00  0.1089E+01
      4.007  0.1813E+00  0.1104E+01
      4.089  0.1147E+00  0.1113E+01
      4.171  0.1332E+00  0.1124E+01
      4.254  0.8711E-01  0.1131E+01
      4.336  0.7411E-01  0.1137E+01
      4.418  0.1184E+00  0.1147E+01
      4.501  0.9825E-01  0.1155E+01
      4.583  0.1394E+00  0.1167E+01
      4.665  0.1460E+00  0.1179E+01
      4.748  0.1123E+00  0.1188E+01
      4.830  0.8761E-01  0.1195E+01
      4.912  0.4113E-01  0.1198E+01
      4.995  0.2707E-01  0.1201E+01
      5.077  0.6718E-01  0.1206E+01
      5.160  0.8719E-01  0.1213E+01
      5.242  0.5004E-01  0.1217E+01
      5.324  0.1333E-02  0.1218E+01
      5.407 -0.1148E-02  0.1217E+01
      5.489  0.2594E-03  0.1217E+01
      5.571  0.1815E-04  0.1217E+01
      5.654  0.3889E-06  0.1218E+01
      5.736  0.1653E-04  0.1218E+01
      5.818  0.2237E-03  0.1218E+01
      5.901 -0.6136E-03  0.1217E+01
      5.983  0.3609E-03  0.1217E+01
      6.066  0.4062E-01  0.1221E+01
      6.148  0.1304E+00  0.1232E+01
      6.230  0.2105E+00  0.1249E+01
      6.313  0.1310E+00  0.1260E+01
      6.395  0.3530E-01  0.1263E+01
      6.477 -0.1353E-02  0.1263E+01
      6.560 -0.2497E-03  0.1262E+01
      6.642  0.1915E-03  0.1262E+01
      6.724  0.1158E-04  0.1262E+01
      6.807  0.1355E-06  0.1262E+01
      6.889  0.8043E-09  0.1263E+01
      6.971  0.1876E-06  0.1263E+01
      7.054  0.1751E-04  0.1263E+01
      7.136  0.2211E-03  0.1263E+01
      7.219 -0.1465E-02  0.1262E+01
      7.301  0.3519E-02  0.1263E+01
      7.383  0.4314E-01  0.1266E+01
      7.466  0.1803E-01  0.1268E+01
      7.548 -0.2977E-02  0.1267E+01
      7.630  0.1487E-03  0.1267E+01
      7.713  0.1236E-03  0.1268E+01
      7.795  0.5768E-03  0.1268E+01
      7.877  0.3323E-03  0.1268E+01
      7.960  0.3225E-02  0.1268E+01
      8.042  0.1264E-01  0.1269E+01
      8.124  0.3019E-01  0.1271E+01
      8.207  0.3328E-01  0.1274E+01
      8.289  0.7794E-01  0.1281E+01
      8.372  0.8265E-01  0.1287E+01
      8.454  0.1345E+00  0.1298E+01
      8.536  0.1792E+00  0.1313E+01
      8.619  0.1025E+00  0.1322E+01
      8.701  0.1058E+00  0.1330E+01
      8.783  0.1374E+00  0.1342E+01
      8.866  0.1791E+00  0.1356E+01
      8.948  0.1356E+00  0.1368E+01
      9.030  0.1078E+00  0.1376E+01
      9.113  0.7852E-01  0.1383E+01
      9.195  0.1034E+00  0.1391E+01
      9.278  0.1594E+00  0.1405E+01
      9.360  0.1506E+00  0.1417E+01
      9.442  0.1378E+00  0.1428E+01
      9.525  0.1479E+00  0.1440E+01
      9.607  0.1727E+00  0.1455E+01
      9.689  0.1519E+00  0.1467E+01
      9.772  0.1110E+00  0.1476E+01
      9.854  0.1502E+00  0.1489E+01
      9.936  0.1642E+00  0.1502E+01
     10.019  0.1595E+00  0.1515E+01
     10.101  0.1674E+00  0.1529E+01
     10.183  0.1136E+00  0.1539E+01
     10.266  0.1206E+00  0.1548E+01
     10.348  0.1386E+00  0.1560E+01
     10.431  0.1425E+00  0.1572E+01
     10.513  0.1518E+00  0.1584E+01
     10.595  0.1224E+00  0.1594E+01
     10.678  0.6286E-01  0.1599E+01
     10.760  0.6197E-02  0.1600E+01
     10.842  0.1229E-02  0.1600E+01
     10.925  0.1483E-03  0.1600E+01
     11.007  0.5467E-05  0.1600E+01
     11.089  0.1061E-04  0.1600E+01
     11.172  0.5508E-06  0.1600E+01
     11.254  0.4820E-08  0.1600E+01
     11.336  0.8816E-11  0.1600E+01
     11.419  0.3656E-14  0.1600E+01
     11.501  0.3745E-18  0.1600E+01
     11.584  0.0000E+00  0.1600E+01
     11.666  0.0000E+00  0.1600E+01
     11.748  0.0000E+00  0.1600E+01
     11.831  0.0000E+00  0.1600E+01
     11.913  0.0000E+00  0.1600E+01
