   28   28  100    1
  0.1430426E+02  0.8970185E-09  0.8970185E-09  0.5747646E-09  0.5000000E-15
  1.000000000000000E-004
  CAR 
 unknown system                          
    124     44     80
 
  0.3742002E-15  0.3742002E-15  0.3742002E-15  0.3472222E-02
    1      -11.671600   1.000000
    2      -11.125159   1.000000
    3      -11.125159   1.000000
    4      -10.412655   1.000000
    5      -10.412655   1.000000
    6       -9.783089   1.000000
    7       -9.566496   1.000000
    8       -9.497067   1.000000
    9       -9.497067   1.000000
   10       -9.487428   1.000000
   11       -9.420627   1.000000
   12       -9.420627   1.000000
   13       -4.749684   1.000000
   14       -4.036056   1.000000
   15       -4.036056   1.000000
   16       -3.734137   1.000000
   17       -3.339549   1.000000
   18       -3.000543   1.000000
   19       -3.000543   1.000000
   20       -2.467429   1.000000
   21       -2.049220   1.000000
   22       -2.049220   1.000000
   23       -1.553275   1.000000
   24       -1.423185   1.000000
   25       -1.423185   1.000000
   26       -1.098440   1.000000
   27       -0.999901   1.000000
   28       -0.274509   1.000000
   29       -0.097522   1.000000
   30       -0.097522   1.000000
   31        0.192936   1.000000
   32        0.330353   1.000000
   33        0.513900   1.000000
   34        0.513901   1.000000
   35        0.687964   1.000000
   36        0.687964   1.000000
   37        1.017397   1.000000
   38        1.120383   1.000000
   39        1.120383   1.000000
   40        1.297143   1.000000
   41        1.297143   1.000000
   42        1.971498   1.000000
   43        2.195227   1.000000
   44        2.195227   1.000000
   45        2.273185   1.000000
   46        2.273185   1.000000
   47        2.779430   1.000000
   48        2.915066   1.000000
   49        2.928849   1.000000
   50        2.928850   1.000000
   51        3.151870   1.000000
   52        3.659507   1.000000
   53        3.703017   1.000000
   54        3.758203   1.000000
   55        3.758203   1.000000
   56        4.204583   1.000000
   57        4.204583   1.000000
   58        4.700706   1.000000
   59        4.700706   1.000000
   60        5.073369   1.000000
   61        5.073369   1.000000
   62        5.995989   0.995438
   63        6.332763  -0.014799
   64        7.768504   0.000000
   65        7.949425   0.000000
   66        7.949425   0.000000
   67        8.637820   0.000000
   68        8.637820   0.000000
   69        8.708502   0.000000
   70        8.708502   0.000000
   71        9.489408   0.000000
   72        9.489409   0.000000
   73        9.511394   0.000000
   74        9.596563   0.000000
   75       10.162806   0.000000
   76       10.535851   0.000000
   77       10.562913   0.000000
   78       10.583404   0.000000
   79       10.721615   0.000000
   80       10.721630   0.000000
 
  0.1666667E+00  0.1241997E-14  0.3742002E-15  0.2083333E-01
    1      -11.645882   1.000000
    2      -11.176586   1.000000
    3      -11.143802   1.000000
    4      -10.386168   1.000000
    5      -10.356842   1.000000
    6       -9.761798   1.000000
    7       -9.654411   1.000000
    8       -9.509616   1.000000
    9       -9.497967   1.000000
   10       -9.481412   1.000000
   11       -9.420902   1.000000
   12       -9.389939   1.000000
   13       -4.683067   1.000000
   14       -4.049375   1.000000
   15       -3.963240   1.000000
   16       -3.688917   1.000000
   17       -3.395745   1.000000
   18       -3.069545   1.000000
   19       -2.997898   1.000000
   20       -2.655704   1.000000
   21       -2.260526   1.000000
   22       -2.014327   1.000000
   23       -1.582825   1.000000
   24       -1.419467   1.000000
   25       -1.226622   1.000000
   26       -0.913076   1.000000
   27       -0.893328   1.000000
   28       -0.242703   1.000000
   29       -0.170775   1.000000
   30       -0.149747   1.000000
   31        0.193772   1.000000
   32        0.248380   1.000000
   33        0.487372   1.000000
   34        0.514510   1.000000
   35        0.669533   1.000000
   36        0.706339   1.000000
   37        0.989685   1.000000
   38        1.153952   1.000000
   39        1.248277   1.000000
   40        1.335209   1.000000
   41        1.366434   1.000000
   42        1.907358   1.000000
   43        2.067849   1.000000
   44        2.124488   1.000000
   45        2.333654   1.000000
   46        2.392209   1.000000
   47        2.625785   1.000000
   48        2.762225   1.000000
   49        2.995829   1.000000
   50        3.081867   1.000000
   51        3.291154   1.000000
   52        3.656672   1.000000
   53        3.669755   1.000000
   54        3.810552   1.000000
   55        3.820223   1.000000
   56        4.099097   1.000000
   57        4.187246   1.000000
   58        4.626277   1.000000
   59        4.646222   1.000000
   60        4.954642   1.000000
   61        5.084206   1.000000
   62        6.005386   0.996647
   63        6.289938  -0.050395
   64        7.986502   0.000000
   65        8.068802   0.000000
   66        8.113110   0.000000
   67        8.535602   0.000000
   68        8.628663   0.000000
   69        8.763907   0.000000
   70        8.810270   0.000000
   71        9.241338   0.000000
   72        9.428698   0.000000
   73        9.657766   0.000000
   74        9.818736   0.000000
   75       10.010952   0.000000
   76       10.079541   0.000000
   77       10.450289   0.000000
   78       10.475922   0.000000
   79       10.599169   0.000000
   80       10.717284   0.000000
 
  0.3333333E+00  0.3509526E-15  0.3742002E-15  0.2083333E-01
    1      -11.573927   1.000000
    2      -11.293930   1.000000
    3      -11.176415   1.000000
    4      -10.342746   1.000000
    5      -10.212096   1.000000
    6       -9.824838   1.000000
    7       -9.704492   1.000000
    8       -9.546842   1.000000
    9       -9.501109   1.000000
   10       -9.472632   1.000000
   11       -9.421464   1.000000
   12       -9.365974   1.000000
   13       -4.489981   1.000000
   14       -4.080851   1.000000
   15       -3.817011   1.000000
   16       -3.631109   1.000000
   17       -3.511531   1.000000
   18       -3.193063   1.000000
   19       -3.001375   1.000000
   20       -2.937052   1.000000
   21       -2.591326   1.000000
   22       -1.883882   1.000000
   23       -1.599973   1.000000
   24       -1.489951   1.000000
   25       -1.024020   1.000000
   26       -0.723945   1.000000
   27       -0.581288   1.000000
   28       -0.322585   1.000000
   29       -0.154155   1.000000
   30       -0.152566   1.000000
   31        0.131501   1.000000
   32        0.267902   1.000000
   33        0.433185   1.000000
   34        0.485530   1.000000
   35        0.575318   1.000000
   36        0.720272   1.000000
   37        0.916466   1.000000
   38        1.211520   1.000000
   39        1.324921   1.000000
   40        1.430698   1.000000
   41        1.562612   1.000000
   42        1.774766   1.000000
   43        1.885049   1.000000
   44        2.077663   1.000000
   45        2.362748   1.000000
   46        2.510482   1.000000
   47        2.701032   1.000000
   48        2.815957   1.000000
   49        2.930781   1.000000
   50        3.210335   1.000000
   51        3.329313   1.000000
   52        3.557011   1.000000
   53        3.630365   1.000000
   54        3.706377   1.000000
   55        3.927632   1.000000
   56        4.119644   1.000000
   57        4.167263   1.000000
   58        4.431852   1.000000
   59        4.576957   1.000000
   60        4.768531   1.000000
   61        5.138542   1.000000
   62        6.032755   1.007488
   63        6.204412   0.328096
   64        8.269277   0.000000
   65        8.280489   0.000000
   66        8.408636   0.000000
   67        8.654431   0.000000
   68        8.704382   0.000000
   69        8.806919   0.000000
   70        8.889617   0.000000
   71        9.249364   0.000000
   72        9.337398   0.000000
   73        9.532511   0.000000
   74        9.674595   0.000000
   75        9.830837   0.000000
   76        9.974601   0.000000
   77       10.320034   0.000000
   78       10.330787   0.000000
   79       10.409428   0.000000
   80       10.516811   0.000000
 
  0.5000000E+00  0.3552323E-15  0.3742002E-15  0.1041667E-01
    1      -11.501795   1.000000
    2      -11.386535   1.000000
    3      -11.191038   1.000000
    4      -10.324608   1.000000
    5      -10.032345   1.000000
    6      -10.011683   1.000000
    7       -9.651911   1.000000
    8       -9.588689   1.000000
    9       -9.502349   1.000000
   10       -9.468278   1.000000
   11       -9.421855   1.000000
   12       -9.361287   1.000000
   13       -4.268068   1.000000
   14       -4.172079   1.000000
   15       -3.874617   1.000000
   16       -3.580506   1.000000
   17       -3.462406   1.000000
   18       -3.233535   1.000000
   19       -3.125866   1.000000
   20       -2.982698   1.000000
   21       -2.743420   1.000000
   22       -1.801764   1.000000
   23       -1.586821   1.000000
   24       -1.569553   1.000000
   25       -0.833555   1.000000
   26       -0.813203   1.000000
   27       -0.448670   1.000000
   28       -0.386589   1.000000
   29       -0.110124   1.000000
   30       -0.007991   1.000000
   31        0.051544   1.000000
   32        0.338603   1.000000
   33        0.413349   1.000000
   34        0.452534   1.000000
   35        0.504062   1.000000
   36        0.753470   1.000000
   37        0.804333   1.000000
   38        1.225105   1.000000
   39        1.337685   1.000000
   40        1.501979   1.000000
   41        1.626448   1.000000
   42        1.728140   1.000000
   43        1.812505   1.000000
   44        2.039056   1.000000
   45        2.367839   1.000000
   46        2.619535   1.000000
   47        2.763292   1.000000
   48        2.893227   1.000000
   49        3.023191   1.000000
   50        3.196207   1.000000
   51        3.283929   1.000000
   52        3.400896   1.000000
   53        3.513318   1.000000
   54        3.727741   1.000000
   55        4.032645   1.000000
   56        4.056567   1.000000
   57        4.108441   1.000000
   58        4.409171   1.000000
   59        4.635558   1.000000
   60        4.635569   1.000000
   61        5.174914   1.000000
   62        6.062996   1.033230
   63        6.149634   0.861489
   64        8.273818   0.000000
   65        8.417943   0.000000
   66        8.450364   0.000000
   67        8.729802   0.000000
   68        8.852762   0.000000
   69        8.888580   0.000000
   70        9.023358   0.000000
   71        9.121151   0.000000
   72        9.460919   0.000000
   73        9.619193   0.000000
   74        9.651730   0.000000
   75        9.715061   0.000000
   76        9.939673   0.000000
   77        9.976269   0.000000
   78       10.063999   0.000000
   79       10.318290   0.000000
   80       10.411050   0.000000
 
  0.1666667E+00  0.1666667E+00  0.3742002E-15  0.2083333E-01
    1      -11.596649   1.000000
    2      -11.251929   1.000000
    3      -11.178800   1.000000
    4      -10.328104   1.000000
    5      -10.280346   1.000000
    6       -9.776288   1.000000
    7       -9.721750   1.000000
    8       -9.524800   1.000000
    9       -9.508520   1.000000
   10       -9.474208   1.000000
   11       -9.419310   1.000000
   12       -9.372646   1.000000
   13       -4.551418   1.000000
   14       -4.052977   1.000000
   15       -3.866378   1.000000
   16       -3.643752   1.000000
   17       -3.477826   1.000000
   18       -3.181226   1.000000
   19       -2.991861   1.000000
   20       -2.884919   1.000000
   21       -2.464094   1.000000
   22       -1.970518   1.000000
   23       -1.593185   1.000000
   24       -1.462180   1.000000
   25       -1.064981   1.000000
   26       -0.730637   1.000000
   27       -0.661030   1.000000
   28       -0.291200   1.000000
   29       -0.192323   1.000000
   30       -0.171304   1.000000
   31        0.182862   1.000000
   32        0.229467   1.000000
   33        0.412222   1.000000
   34        0.562012   1.000000
   35        0.597299   1.000000
   36        0.685225   1.000000
   37        0.948080   1.000000
   38        1.219926   1.000000
   39        1.345432   1.000000
   40        1.387459   1.000000
   41        1.452362   1.000000
   42        1.809963   1.000000
   43        1.928217   1.000000
   44        2.117713   1.000000
   45        2.390139   1.000000
   46        2.433860   1.000000
   47        2.637290   1.000000
   48        2.798114   1.000000
   49        3.007193   1.000000
   50        3.160987   1.000000
   51        3.332510   1.000000
   52        3.605784   1.000000
   53        3.640035   1.000000
   54        3.812347   1.000000
   55        3.913933   1.000000
   56        3.939566   1.000000
   57        4.213968   1.000000
   58        4.509871   1.000000
   59        4.568849   1.000000
   60        4.834155   1.000000
   61        5.117336   1.000000
   62        6.022157   1.001784
   63        6.226532   0.134496
   64        8.237881   0.000000
   65        8.283425   0.000000
   66        8.313498   0.000000
   67        8.533919   0.000000
   68        8.658762   0.000000
   69        8.802848   0.000000
   70        8.932330   0.000000
   71        9.262893   0.000000
   72        9.358394   0.000000
   73        9.558578   0.000000
   74        9.583918   0.000000
   75        9.861205   0.000000
   76       10.068928   0.000000
   77       10.267835   0.000000
   78       10.397712   0.000000
   79       10.525441   0.000000
   80       10.619672   0.000000
 
  0.3333333E+00  0.1666667E+00  0.3742002E-15  0.4166667E-01
    1      -11.511635   1.000000
    2      -11.359366   1.000000
    3      -11.213133   1.000000
    4      -10.275839   1.000000
    5      -10.138984   1.000000
    6       -9.952561   1.000000
    7       -9.658795   1.000000
    8       -9.562161   1.000000
    9       -9.516523   1.000000
   10       -9.467111   1.000000
   11       -9.415079   1.000000
   12       -9.371298   1.000000
   13       -4.310580   1.000000
   14       -4.070912   1.000000
   15       -3.872587   1.000000
   16       -3.717984   1.000000
   17       -3.439847   1.000000
   18       -3.242580   1.000000
   19       -3.055297   1.000000
   20       -2.983255   1.000000
   21       -2.713555   1.000000
   22       -1.874786   1.000000
   23       -1.599023   1.000000
   24       -1.549918   1.000000
   25       -0.874917   1.000000
   26       -0.674984   1.000000
   27       -0.508862   1.000000
   28       -0.395740   1.000000
   29       -0.091727   1.000000
   30       -0.053526   1.000000
   31        0.128195   1.000000
   32        0.276943   1.000000
   33        0.366466   1.000000
   34        0.504058   1.000000
   35        0.565597   1.000000
   36        0.689805   1.000000
   37        0.817512   1.000000
   38        1.286530   1.000000
   39        1.379245   1.000000
   40        1.441606   1.000000
   41        1.536228   1.000000
   42        1.693271   1.000000
   43        1.759615   1.000000
   44        2.173128   1.000000
   45        2.335656   1.000000
   46        2.626369   1.000000
   47        2.785414   1.000000
   48        2.922002   1.000000
   49        2.986763   1.000000
   50        3.272097   1.000000
   51        3.309622   1.000000
   52        3.454753   1.000000
   53        3.523225   1.000000
   54        3.706604   1.000000
   55        3.892265   1.000000
   56        3.945540   1.000000
   57        4.142419   1.000000
   58        4.358490   1.000000
   59        4.656836   1.000000
   60        4.770057   1.000000
   61        5.150139   1.000000
   62        6.055998   1.026509
   63        6.151523   0.847224
   64        8.286227   0.000000
   65        8.451734   0.000000
   66        8.563900   0.000000
   67        8.714406   0.000000
   68        8.826890   0.000000
   69        8.885333   0.000000
   70        8.936369   0.000000
   71        9.135211   0.000000
   72        9.283627   0.000000
   73        9.558629   0.000000
   74        9.589946   0.000000
   75        9.789662   0.000000
   76        9.900070   0.000000
   77       10.068367   0.000000
   78       10.143528   0.000000
   79       10.467261   0.000000
   80       10.529489   0.000000
 
  0.3333333E+00  0.3333333E+00  0.3742002E-15  0.6944444E-02
    1      -11.430687   1.000000
    2      -11.430687   1.000000
    3      -11.244416   1.000000
    4      -10.174305   1.000000
    5      -10.093128   1.000000
    6      -10.093127   1.000000
    7       -9.626151   1.000000
    8       -9.549864   1.000000
    9       -9.549863   1.000000
   10       -9.464213   1.000000
   11       -9.394514   1.000000
   12       -9.394514   1.000000
   13       -4.102921   1.000000
   14       -3.986404   1.000000
   15       -3.963950   1.000000
   16       -3.963950   1.000000
   17       -3.325194   1.000000
   18       -3.325194   1.000000
   19       -2.982376   1.000000
   20       -2.910002   1.000000
   21       -2.910002   1.000000
   22       -1.876538   1.000000
   23       -1.594939   1.000000
   24       -1.594939   1.000000
   25       -0.739799   1.000000
   26       -0.621066   1.000000
   27       -0.621066   1.000000
   28       -0.390366   1.000000
   29       -0.006435   1.000000
   30       -0.006435   1.000000
   31        0.191925   1.000000
   32        0.254407   1.000000
   33        0.254407   1.000000
   34        0.576575   1.000000
   35        0.599662   1.000000
   36        0.682294   1.000000
   37        0.682294   1.000000
   38        1.357465   1.000000
   39        1.357465   1.000000
   40        1.490230   1.000000
   41        1.556812   1.000000
   42        1.609852   1.000000
   43        1.609852   1.000000
   44        2.295412   1.000000
   45        2.295412   1.000000
   46        2.668647   1.000000
   47        2.909023   1.000000
   48        2.991482   1.000000
   49        2.991482   1.000000
   50        3.305742   1.000000
   51        3.451320   1.000000
   52        3.451320   1.000000
   53        3.474988   1.000000
   54        3.622544   1.000000
   55        3.622544   1.000000
   56        4.002887   1.000000
   57        4.002887   1.000000
   58        4.287854   1.000000
   59        4.799677   1.000000
   60        4.799677   1.000000
   61        5.125675   1.000000
   62        6.096321   1.050936
   63        6.096321   1.050936
   64        8.424095   0.000000
   65        8.424095   0.000000
   66        8.760191   0.000000
   67        8.788366   0.000000
   68        8.788366   0.000000
   69        8.982561   0.000000
   70        8.982561   0.000000
   71        8.994391   0.000000
   72        9.031960   0.000000
   73        9.566310   0.000000
   74        9.764359   0.000000
   75        9.764359   0.000000
   76        9.773825   0.000000
   77       10.051200   0.000000
   78       10.051200   0.000000
   79       10.528299   0.000000
   80       10.528301   0.000000
 
  0.3742002E-15  0.3742002E-15  0.1250000E+00  0.6944444E-02
    1      -11.628303   1.000000
    2      -11.085750   1.000000
    3      -11.085750   1.000000
    4      -10.393025   1.000000
    5      -10.393025   1.000000
    6       -9.987748   1.000000
    7       -9.592245   1.000000
    8       -9.592245   1.000000
    9       -9.544605   1.000000
   10       -9.434368   1.000000
   11       -9.434368   1.000000
   12       -9.367348   1.000000
   13       -4.708311   1.000000
   14       -3.912331   1.000000
   15       -3.912331   1.000000
   16       -3.839335   1.000000
   17       -3.165473   1.000000
   18       -2.947326   1.000000
   19       -2.947326   1.000000
   20       -2.505430   1.000000
   21       -2.023624   1.000000
   22       -2.023624   1.000000
   23       -1.477151   1.000000
   24       -1.463538   1.000000
   25       -1.463538   1.000000
   26       -1.194767   1.000000
   27       -1.080163   1.000000
   28       -0.093053   1.000000
   29       -0.093053   1.000000
   30       -0.072272   1.000000
   31        0.116984   1.000000
   32        0.316798   1.000000
   33        0.466215   1.000000
   34        0.466215   1.000000
   35        0.616562   1.000000
   36        0.616562   1.000000
   37        1.028436   1.000000
   38        1.068676   1.000000
   39        1.068676   1.000000
   40        1.259575   1.000000
   41        1.259575   1.000000
   42        1.856072   1.000000
   43        2.181375   1.000000
   44        2.181375   1.000000
   45        2.321476   1.000000
   46        2.321476   1.000000
   47        2.753877   1.000000
   48        2.767799   1.000000
   49        2.896217   1.000000
   50        2.896217   1.000000
   51        3.319685   1.000000
   52        3.533701   1.000000
   53        3.760177   1.000000
   54        3.760177   1.000000
   55        3.853349   1.000000
   56        4.218662   1.000000
   57        4.218662   1.000000
   58        4.676257   1.000000
   59        4.676257   1.000000
   60        5.044169   1.000000
   61        5.044169   1.000000
   62        6.039801   1.012403
   63        6.260102  -0.026715
   64        7.908714   0.000000
   65        7.994256   0.000000
   66        7.994256   0.000000
   67        8.668900   0.000000
   68        8.668900   0.000000
   69        8.910142   0.000000
   70        8.910142   0.000000
   71        9.520892   0.000000
   72        9.520892   0.000000
   73        9.532753   0.000000
   74        9.619557   0.000000
   75       10.064388   0.000000
   76       10.331778   0.000000
   77       10.331778   0.000000
   78       10.440642   0.000000
   79       10.649578   0.000000
   80       10.688100   0.000000
 
  0.1666667E+00  0.1241997E-14  0.1250000E+00  0.4166667E-01
    1      -11.602815   1.000000
    2      -11.137248   1.000000
    3      -11.104055   1.000000
    4      -10.367596   1.000000
    5      -10.338687   1.000000
    6       -9.962210   1.000000
    7       -9.655803   1.000000
    8       -9.614337   1.000000
    9       -9.580584   1.000000
   10       -9.439222   1.000000
   11       -9.383873   1.000000
   12       -9.356415   1.000000
   13       -4.638769   1.000000
   14       -3.947854   1.000000
   15       -3.846561   1.000000
   16       -3.780285   1.000000
   17       -3.219402   1.000000
   18       -3.027848   1.000000
   19       -2.939264   1.000000
   20       -2.659523   1.000000
   21       -2.238561   1.000000
   22       -1.999637   1.000000
   23       -1.522759   1.000000
   24       -1.423034   1.000000
   25       -1.250071   1.000000
   26       -1.117599   1.000000
   27       -0.911527   1.000000
   28       -0.199968   1.000000
   29       -0.147699   1.000000
   30       -0.045246   1.000000
   31        0.127472   1.000000
   32        0.203199   1.000000
   33        0.428466   1.000000
   34        0.499211   1.000000
   35        0.571960   1.000000
   36        0.712472   1.000000
   37        0.969021   1.000000
   38        1.092176   1.000000
   39        1.190408   1.000000
   40        1.287421   1.000000
   41        1.345369   1.000000
   42        1.814461   1.000000
   43        2.062796   1.000000
   44        2.217087   1.000000
   45        2.336727   1.000000
   46        2.418978   1.000000
   47        2.560469   1.000000
   48        2.763445   1.000000
   49        2.977974   1.000000
   50        3.089803   1.000000
   51        3.314453   1.000000
   52        3.538956   1.000000
   53        3.732661   1.000000
   54        3.807829   1.000000
   55        3.876254   1.000000
   56        4.100655   1.000000
   57        4.197848   1.000000
   58        4.588346   1.000000
   59        4.634667   1.000000
   60        4.929758   1.000000
   61        5.059215   1.000000
   62        6.050443   1.021328
   63        6.244746   0.025934
   64        8.073498   0.000000
   65        8.098442   0.000000
   66        8.171951   0.000000
   67        8.626547   0.000000
   68        8.693323   0.000000
   69        8.840510   0.000000
   70        8.983743   0.000000
   71        9.281229   0.000000
   72        9.449370   0.000000
   73        9.678329   0.000000
   74        9.812155   0.000000
   75        9.951171   0.000000
   76       10.044988   0.000000
   77       10.283006   0.000000
   78       10.466473   0.000000
   79       10.498382   0.000000
   80       10.610428   0.000000
 
  0.3333333E+00  0.3509526E-15  0.1250000E+00  0.4166667E-01
    1      -11.531762   1.000000
    2      -11.254103   1.000000
    3      -11.136206   1.000000
    4      -10.328702   1.000000
    5      -10.198186   1.000000
    6       -9.889408   1.000000
    7       -9.822781   1.000000
    8       -9.682236   1.000000
    9       -9.586217   1.000000
   10       -9.444526   1.000000
   11       -9.340853   1.000000
   12       -9.337576   1.000000
   13       -4.440746   1.000000
   14       -3.993661   1.000000
   15       -3.745064   1.000000
   16       -3.689219   1.000000
   17       -3.360955   1.000000
   18       -3.156546   1.000000
   19       -2.942730   1.000000
   20       -2.883644   1.000000
   21       -2.566481   1.000000
   22       -1.859945   1.000000
   23       -1.515664   1.000000
   24       -1.460942   1.000000
   25       -1.145757   1.000000
   26       -0.884452   1.000000
   27       -0.615033   1.000000
   28       -0.369022   1.000000
   29       -0.247171   1.000000
   30       -0.058732   1.000000
   31        0.163888   1.000000
   32        0.205652   1.000000
   33        0.389669   1.000000
   34        0.472859   1.000000
   35        0.552868   1.000000
   36        0.725523   1.000000
   37        0.894593   1.000000
   38        1.147973   1.000000
   39        1.253518   1.000000
   40        1.360515   1.000000
   41        1.520008   1.000000
   42        1.738349   1.000000
   43        1.978449   1.000000
   44        2.115636   1.000000
   45        2.371929   1.000000
   46        2.515125   1.000000
   47        2.716054   1.000000
   48        2.831320   1.000000
   49        2.984824   1.000000
   50        3.214379   1.000000
   51        3.328123   1.000000
   52        3.526553   1.000000
   53        3.625569   1.000000
   54        3.676944   1.000000
   55        3.915337   1.000000
   56        4.096920   1.000000
   57        4.157659   1.000000
   58        4.405058   1.000000
   59        4.543123   1.000000
   60        4.732556   1.000000
   61        5.110433   1.000000
   62        6.081580   1.048452
   63        6.202003   0.352192
   64        8.273491   0.000000
   65        8.333287   0.000000
   66        8.482515   0.000000
   67        8.647008   0.000000
   68        8.753247   0.000000
   69        8.865742   0.000000
   70        8.978516   0.000000
   71        9.277702   0.000000
   72        9.386682   0.000000
   73        9.569733   0.000000
   74        9.670969   0.000000
   75        9.855779   0.000000
   76        9.952314   0.000000
   77       10.196560   0.000000
   78       10.329090   0.000000
   79       10.427553   0.000000
   80       10.537288   0.000000
 
  0.5000000E+00  0.3552323E-15  0.1250000E+00  0.2083333E-01
    1      -11.460727   1.000000
    2      -11.345695   1.000000
    3      -11.150574   1.000000
    4      -10.313680   1.000000
    5      -10.021352   1.000000
    6      -10.007023   1.000000
    7       -9.809400   1.000000
    8       -9.758182   1.000000
    9       -9.587745   1.000000
   10       -9.446082   1.000000
   11       -9.328506   1.000000
   12       -9.328379   1.000000
   13       -4.222412   1.000000
   14       -4.091815   1.000000
   15       -3.813205   1.000000
   16       -3.615001   1.000000
   17       -3.322677   1.000000
   18       -3.227569   1.000000
   19       -3.072092   1.000000
   20       -2.858733   1.000000
   21       -2.744285   1.000000
   22       -1.758213   1.000000
   23       -1.525566   1.000000
   24       -1.511570   1.000000
   25       -1.000074   1.000000
   26       -0.923985   1.000000
   27       -0.496184   1.000000
   28       -0.391842   1.000000
   29       -0.326049   1.000000
   30       -0.030968   1.000000
   31        0.188729   1.000000
   32        0.233189   1.000000
   33        0.418855   1.000000
   34        0.451948   1.000000
   35        0.536711   1.000000
   36        0.728663   1.000000
   37        0.806848   1.000000
   38        1.181865   1.000000
   39        1.213728   1.000000
   40        1.455770   1.000000
   41        1.521002   1.000000
   42        1.816931   1.000000
   43        1.861510   1.000000
   44        2.078363   1.000000
   45        2.392536   1.000000
   46        2.623139   1.000000
   47        2.809841   1.000000
   48        2.934283   1.000000
   49        3.013947   1.000000
   50        3.224352   1.000000
   51        3.322799   1.000000
   52        3.418251   1.000000
   53        3.480062   1.000000
   54        3.657475   1.000000
   55        4.023112   1.000000
   56        4.030747   1.000000
   57        4.086814   1.000000
   58        4.385956   1.000000
   59        4.550666   1.000000
   60        4.601348   1.000000
   61        5.142676   1.000000
   62        6.115586   1.026559
   63        6.165579   0.726376
   64        8.325056   0.000000
   65        8.438195   0.000000
   66        8.442981   0.000000
   67        8.748304   0.000000
   68        8.886413   0.000000
   69        8.938853   0.000000
   70        9.015892   0.000000
   71        9.191408   0.000000
   72        9.489577   0.000000
   73        9.535341   0.000000
   74        9.737539   0.000000
   75        9.843475   0.000000
   76        9.930816   0.000000
   77       10.000207   0.000000
   78       10.043304   0.000000
   79       10.380940   0.000000
   80       10.392597   0.000000
 
  0.1666667E+00  0.1666667E+00  0.1250000E+00  0.2083333E-01