       N       E                     dE             d eps       ncg     rms          rms(c)
DAV:   1     0.465216837683E+03    0.46522E+03   -0.48013E+04  7040   0.110E+03
DAV:   2    -0.163414483446E+03   -0.62863E+03   -0.60169E+03  8848   0.234E+02
DAV:   3    -0.219801354165E+03   -0.56387E+02   -0.55811E+02  8496   0.744E+01
DAV:   4    -0.221373944701E+03   -0.15726E+01   -0.15632E+01  8984   0.128E+01
DAV:   5    -0.221416229172E+03   -0.42284E-01   -0.42224E-01  8624   0.200E+00    0.316E+01
RMM:   6    -0.200201968564E+03    0.21214E+02   -0.11541E+02  7059   0.256E+01    0.138E+01
RMM:   7    -0.199852492186E+03    0.34948E+00   -0.34002E+00  7622   0.406E+00    0.800E+00
RMM:   8    -0.199753180125E+03    0.99312E-01   -0.16155E+00  7040   0.322E+00    0.180E+00
RMM:   9    -0.199667935016E+03    0.85245E-01   -0.84139E-02  7040   0.791E-01    0.995E-01
RMM:  10    -0.199653761280E+03    0.14174E-01   -0.26714E-01  7046   0.118E+00    0.567E-01
RMM:  11    -0.199650975678E+03    0.27856E-02   -0.11591E-02  7072   0.280E-01    0.270E-01
RMM:  12    -0.199650033352E+03    0.94233E-03   -0.81449E-03  7040   0.228E-01    0.100E-01
RMM:  13    -0.199649863879E+03    0.16947E-03   -0.77413E-04  6177   0.659E-02    0.402E-02
RMM:  14    -0.199649822251E+03    0.41628E-04   -0.54515E-05  4260   0.234E-02
   1 F= -.19964982E+03 E0= -.19964752E+03  d E =-.199650E+03
       N       E                     dE             d eps       ncg     rms          rms(c)
DAV:   1    -0.199882924365E+03   -0.23306E+00   -0.27950E+01  7440   0.202E+01    0.118E+00
RMM:   2    -0.199932534161E+03   -0.49610E-01   -0.63895E-01  7040   0.255E+00    0.680E-01
RMM:   3    -0.199925077528E+03    0.74566E-02   -0.32850E-02  7201   0.532E-01    0.430E-01
RMM:   4    -0.199922791082E+03    0.22864E-02   -0.15155E-02  7040   0.333E-01    0.143E-01
RMM:   5    -0.199922800647E+03   -0.95653E-05   -0.99863E-04  6831   0.782E-02
   2 F= -.19992280E+03 E0= -.19992013E+03  d E =-.272978E+00
       N       E                     dE             d eps       ncg     rms          rms(c)
DAV:   1    -0.199937170015E+03   -0.14379E-01   -0.31360E+00  7960   0.678E+00    0.397E-01
RMM:   2    -0.199942685720E+03   -0.55157E-02   -0.69949E-02  7042   0.836E-01    0.235E-01
RMM:   3    -0.199941967131E+03    0.71859E-03   -0.37390E-03  7219   0.179E-01    0.157E-01
RMM:   4    -0.199941743071E+03    0.22406E-03   -0.15206E-03  7032   0.106E-01    0.526E-02
RMM:   5    -0.199941751890E+03   -0.88188E-05   -0.87686E-05  4264   0.264E-02
   3 F= -.19994175E+03 E0= -.19993901E+03  d E =-.291930E+00
       N       E                     dE             d eps       ncg     rms          rms(c)
DAV:   1    -0.200050166291E+03   -0.10842E+00   -0.14932E+01  7040   0.145E+01    0.890E-01
RMM:   2    -0.200078298197E+03   -0.28132E-01   -0.32929E-01  7040   0.178E+00    0.420E-01
RMM:   3    -0.200075904894E+03    0.23933E-02   -0.16324E-02  7312   0.345E-01    0.284E-01
RMM:   4    -0.200074733888E+03    0.11710E-02   -0.52966E-03  7041   0.187E-01    0.116E-01
RMM:   5    -0.200074648671E+03    0.85217E-04   -0.88308E-04  6442   0.699E-02
   4 F= -.20007465E+03 E0= -.20007208E+03  d E =-.132897E+00
       N       E                     dE             d eps       ncg     rms          rms(c)
DAV:   1    -0.200094983271E+03   -0.20249E-01   -0.11884E+01  7056   0.129E+01    0.822E-01
RMM:   2    -0.200119007514E+03   -0.24024E-01   -0.27051E-01  7040   0.161E+00    0.446E-01
RMM:   3    -0.200115070823E+03    0.39367E-02   -0.14564E-02  7317   0.307E-01    0.323E-01
RMM:   4    -0.200113360659E+03    0.17102E-02   -0.38166E-03  7041   0.161E-01    0.175E-01
RMM:   5    -0.200113149758E+03    0.21090E-03   -0.23489E-03  7031   0.116E-01    0.509E-02
RMM:   6    -0.200113131104E+03    0.18655E-04   -0.95404E-05  4260   0.278E-02
   5 F= -.20011313E+03 E0= -.20011074E+03  d E =-.171379E+00
       N       E                     dE             d eps       ncg     rms          rms(c)
DAV:   1    -0.200138625621E+03   -0.25476E-01   -0.20780E+01  7040   0.174E+01    0.120E+00
RMM:   2    -0.200181849653E+03   -0.43224E-01   -0.49663E-01  7040   0.217E+00    0.561E-01
RMM:   3    -0.200174632248E+03    0.72174E-02   -0.27913E-02  7351   0.408E-01    0.373E-01
RMM:   4    -0.200171398677E+03    0.32336E-02   -0.49693E-03  7046   0.195E-01    0.213E-01
RMM:   5    -0.200170643463E+03    0.75521E-03   -0.44154E-03  7040   0.170E-01    0.513E-02
RMM:   6    -0.200170612049E+03    0.31414E-04   -0.11287E-04  4266   0.309E-02
   6 F= -.20017061E+03 E0= -.20016812E+03  d E =-.574809E-01
       N       E                     dE             d eps       ncg     rms          rms(c)
DAV:   1    -0.200170632805E+03    0.10658E-04   -0.13285E-02  8464   0.439E-01    0.318E-02
RMM:   2    -0.200170660172E+03   -0.27367E-04   -0.31352E-04  4801   0.561E-02
   7 F= -.20017066E+03 E0= -.20016817E+03  d E =-.575291E-01
       N       E                     dE             d eps       ncg     rms          rms(c)
DAV:   1    -0.200195194529E+03   -0.24562E-01   -0.27025E+00  7168   0.623E+00    0.529E-01
RMM:   2    -0.200203046227E+03   -0.78517E-02   -0.63370E-02  7040   0.821E-01    0.406E-01
RMM:   3    -0.200197304728E+03    0.57415E-02   -0.60597E-03  7098   0.182E-01    0.196E-01
RMM:   4    -0.200197151391E+03    0.15334E-03   -0.96752E-04  6941   0.848E-02    0.119E-01
RMM:   5    -0.200197178139E+03   -0.26749E-04   -0.39794E-04  5525   0.576E-02
   8 F= -.20019718E+03 E0= -.20019494E+03  d E =-.265180E-01
       N       E                     dE             d eps       ncg     rms          rms(c)
DAV:   1    -0.200199610912E+03   -0.24595E-02   -0.64068E-01  7600   0.304E+00    0.261E-01
RMM:   2    -0.200201792042E+03   -0.21811E-02   -0.15163E-02  7040   0.400E-01    0.227E-01
RMM:   3    -0.200200171579E+03    0.16205E-02   -0.16298E-03  6944   0.920E-02    0.100E-01
RMM:   4    -0.200200134439E+03    0.37140E-04   -0.19232E-04  4316   0.420E-02
   9 F= -.20020013E+03 E0= -.20019806E+03  d E =-.294743E-01
       N       E                     dE             d eps       ncg     rms          rms(c)
DAV:   1    -0.200203311809E+03   -0.31402E-02   -0.13971E+00  7072   0.454E+00    0.319E-01
RMM:   2    -0.200206858173E+03   -0.35464E-02   -0.37104E-02  7040   0.595E-01    0.206E-01
RMM:   3    -0.200205943318E+03    0.91485E-03   -0.21682E-03  7255   0.117E-01    0.131E-01
RMM:   4    -0.200205679276E+03    0.26404E-03   -0.51151E-04  6058   0.622E-02    0.756E-02
RMM:   5    -0.200205629264E+03    0.50012E-04   -0.30971E-04  4633   0.507E-02
  10 F= -.20020563E+03 E0= -.20020368E+03  d E =-.549482E-02
       N       E                     dE             d eps       ncg     rms          rms(c)
DAV:   1    -0.200205626221E+03    0.53055E-04   -0.90309E-03  8448   0.363E-01    0.294E-02
RMM:   2    -0.200205651216E+03   -0.24995E-04   -0.22259E-04  4351   0.492E-02
  11 F= -.20020565E+03 E0= -.20020368E+03  d E =-.551678E-02
       N       E                     dE             d eps       ncg     rms          rms(c)
DAV:   1    -0.200207489288E+03   -0.18631E-02   -0.79541E-01  7104   0.343E+00    0.165E-01
RMM:   2    -0.200208715380E+03   -0.12261E-02   -0.14498E-02  7040   0.369E-01    0.848E-02
RMM:   3    -0.200208646693E+03    0.68687E-04   -0.76337E-04  5772   0.734E-02
  12 F= -.20020865E+03 E0= -.20020659E+03  d E =-.299548E-02
       N       E                     dE             d eps       ncg     rms          rms(c)
DAV:   1    -0.200208609334E+03    0.10605E-03   -0.25822E-01  7312   0.195E+00    0.105E-01
RMM:   2    -0.200208918623E+03   -0.30929E-03   -0.44658E-03  7040   0.207E-01    0.709E-02
RMM:   3    -0.200208876510E+03    0.42113E-04   -0.25264E-04  4783   0.436E-02
  13 F= -.20020888E+03 E0= -.20020687E+03  d E =-.322529E-02
       N       E                     dE             d eps       ncg     rms          rms(c)
DAV:   1    -0.200208981537E+03   -0.62914E-04   -0.71940E-01  7040   0.321E+00    0.201E-01
RMM:   2    -0.200210285552E+03   -0.13040E-02   -0.15701E-02  7040   0.392E-01    0.104E-01
RMM:   3    -0.200210158508E+03    0.12704E-03   -0.74963E-04  6035   0.755E-02    0.815E-02
RMM:   4    -0.200210050546E+03    0.10796E-03   -0.17103E-04  4286   0.379E-02    0.473E-02
RMM:   5    -0.200210031636E+03    0.18910E-04   -0.19663E-04  4256   0.390E-02
  14 F= -.20021003E+03 E0= -.20020807E+03  d E =-.115513E-02
       N       E                     dE             d eps       ncg     rms          rms(c)
DAV:   1    -0.200210101150E+03   -0.50604E-04   -0.27537E-02  7696   0.628E-01    0.356E-02
RMM:   2    -0.200210143337E+03   -0.42187E-04   -0.54491E-04  5515   0.745E-02
  15 F= -.20021014E+03 E0= -.20020819E+03  d E =-.126683E-02
       N       E                     dE             d eps       ncg     rms          rms(c)
DAV:   1    -0.200210396902E+03   -0.29575E-03   -0.53412E-02  7240   0.901E-01    0.568E-02
RMM:   2    -0.200210500050E+03   -0.10315E-03   -0.11050E-03  6964   0.105E-01    0.380E-02
RMM:   3    -0.200210463451E+03    0.36599E-04   -0.56360E-05  4046   0.219E-02
  16 F= -.20021046E+03 E0= -.20020854E+03  d E =-.320114E-03
       N       E                     dE             d eps       ncg     rms          rms(c)
DAV:   1    -0.200210468091E+03    0.31959E-04   -0.49989E-03  8136   0.275E-01    0.244E-02
RMM:   2    -0.200210471829E+03   -0.37381E-05   -0.83437E-05  3711   0.319E-02
  17 F= -.20021047E+03 E0= -.20020851E+03  d E =-.328492E-03
