 vasp.5.4.4.18Apr17-6-g9f103f2a35 (build Nov 01 2019 12:17:22) complex          
  
 executed on             LinuxIFC date 2023.05.19  18:21:58
 running on   16 total cores
 distrk:  each k-point on   16 cores,    1 groups
 distr:  one band on NCORES_PER_BAND=   4 cores,    4 groups


--------------------------------------------------------------------------------------------------------


 INCAR:
 POTCAR:    PAW_PBE N 08Apr2002                   
 POTCAR:    PAW_PBE Si 05Jan2001                  
 POTCAR:    PAW_PBE N 08Apr2002                   
   VRHFIN =N: s2p3                                                              
   LEXCH  = PE                                                                  
   EATOM  =   264.5486 eV,   19.4438 Ry                                         
                                                                                
   TITEL  = PAW_PBE N 08Apr2002                                                 
   LULTRA =        F    use ultrasoft PP ?                                      
   IUNSCR =        1    unscreen: 0-lin 1-nonlin 2-no                           
   RPACOR =    1.200    partial core radius                                     
   POMASS =   14.001; ZVAL   =    5.000    mass and valenz                      
   RCORE  =    1.500    outmost cutoff radius                                   
   RWIGS  =    1.400; RWIGS  =    0.741    wigner-seitz radius (au A)           
   ENMAX  =  400.000; ENMIN  =  300.000 eV                                      
   ICORE  =        2    local potential                                         
   LCOR   =        T    correct aug charges                                     
   LPAW   =        T    paw PP                                                  
   EAUG   =  627.112                                                            
   DEXC   =    0.000                                                            
   RMAX   =    1.529    core radius for proj-oper                               
   RAUG   =    1.300    factor for augmentation sphere                          
   RDEP   =    1.514    radius for radial grids                                 
   RDEPT  =    1.338    core radius for aug-charge                              
                                                                                
   Atomic configuration                                                         
    4 entries                                                                   
     n  l   j            E        occ.                                          
     1  0  0.50      -384.7179   2.0000                                         
     2  0  0.50       -18.5828   2.0000                                         
     2  1  0.50        -7.0898   3.0000                                         
     3  2  1.50        -6.8029   0.0000                                         
   Description                                                                  
     l       E           TYP  RCUT    TYP  RCUT                                 
     0    -18.5828119     23  1.200                                             
     0    -13.5018863     23  1.200                                             
     1     -7.0897853     23  1.500                                             
     1      9.5240782     23  1.500                                             
     2     -6.8029130      7  1.500                                             
  local pseudopotential read in
  partial core-charges read in
  partial kinetic energy density read in
  atomic valenz-charges read in
  non local Contribution for L=           0  read in
    real space projection operators read in
  non local Contribution for L=           0  read in
    real space projection operators read in
  non local Contribution for L=           1  read in
    real space projection operators read in
  non local Contribution for L=           1  read in
    real space projection operators read in
    PAW grid and wavefunctions read in
 
   number of l-projection  operators is LMAX  =           4
   number of lm-projection operators is LMMAX =           8
 
 POTCAR:    PAW_PBE Si 05Jan2001                  
   VRHFIN =Si: s2p2                                                             
   LEXCH  = PE                                                                  
   EATOM  =   103.0669 eV,    7.5752 Ry                                         
                                                                                
   TITEL  = PAW_PBE Si 05Jan2001                                                
   LULTRA =        F    use ultrasoft PP ?                                      
   IUNSCR =        1    unscreen: 0-lin 1-nonlin 2-no                           
   RPACOR =    1.500    partial core radius                                     
   POMASS =   28.085; ZVAL   =    4.000    mass and valenz                      
   RCORE  =    1.900    outmost cutoff radius                                   
   RWIGS  =    2.480; RWIGS  =    1.312    wigner-seitz radius (au A)           
   ENMAX  =  245.345; ENMIN  =  184.009 eV                                      
   ICORE  =        2    local potential                                         
   LCOR   =        T    correct aug charges                                     
   LPAW   =        T    paw PP                                                  
   EAUG   =  322.069                                                            
   DEXC   =    0.000                                                            
   RMAX   =    1.950    core radius for proj-oper                               
   RAUG   =    1.300    factor for augmentation sphere                          
   RDEP   =    1.993    radius for radial grids                                 
   RDEPT  =    1.837    core radius for aug-charge                              
                                                                                
   Atomic configuration                                                         
    6 entries                                                                   
     n  l   j            E        occ.                                          
     1  0  0.50     -1785.8828   2.0000                                         
     2  0  0.50      -139.4969   2.0000                                         
     2  1  1.50       -95.5546   6.0000                                         
     3  0  0.50       -10.8127   2.0000                                         
     3  1  0.50        -4.0811   2.0000                                         
     3  2  1.50        -4.0817   0.0000                                         
   Description                                                                  
     l       E           TYP  RCUT    TYP  RCUT                                 
     0    -10.8127223     23  1.900                                             
     0     -7.6451159     23  1.900                                             
     1     -4.0811372     23  1.900                                             
     1      2.4879257     23  1.900                                             
     2     -4.0817478      7  1.900                                             
  local pseudopotential read in
  partial core-charges read in
  partial kinetic energy density read in
  atomic valenz-charges read in
  non local Contribution for L=           0  read in
    real space projection operators read in
  non local Contribution for L=           0  read in
    real space projection operators read in
  non local Contribution for L=           1  read in
    real space projection operators read in
  non local Contribution for L=           1  read in
    real space projection operators read in
    PAW grid and wavefunctions read in
 
   number of l-projection  operators is LMAX  =           4
   number of lm-projection operators is LMMAX =           8
 
 Optimization of the real space projectors (new method)

 maximal supplied QI-value         = 25.13
 optimisation between [QCUT,QGAM] = [ 10.05, 20.36] = [ 28.30,116.06] Ry 
 Optimized for a Real-space Cutoff    1.70 Angstroem

   l    n(q)    QCUT    max X(q) W(low)/X(q) W(high)/X(q)  e(spline) 
   0     10    10.053    79.467    0.61E-04    0.98E-04    0.61E-06
   0     10    10.053    66.151    0.60E-04    0.98E-04    0.61E-06
   1     10    10.053     8.350    0.17E-03    0.71E-03    0.45E-05
   1     10    10.053     5.531    0.18E-03    0.77E-03    0.49E-05
 Optimization of the real space projectors (new method)

 maximal supplied QI-value         = 19.84
 optimisation between [QCUT,QGAM] = [ 10.12, 20.44] = [ 28.68,116.96] Ry 
 Optimized for a Real-space Cutoff    1.38 Angstroem

   l    n(q)    QCUT    max X(q) W(low)/X(q) W(high)/X(q)  e(spline) 
   0      8    10.119   159.560    0.58E-04    0.11E-03    0.54E-07
   0      8    10.119   115.863    0.56E-04    0.11E-03    0.54E-07
   1      8    10.119    88.339    0.22E-03    0.17E-03    0.19E-06
   1      8    10.119    48.592    0.22E-03    0.17E-03    0.18E-06
  PAW_PBE N 08Apr2002                   :
 energy of atom  1       EATOM= -264.5486
 kinetic energy error for atom=    0.0736 (will be added to EATOM!!)
  PAW_PBE Si 05Jan2001                  :
 energy of atom  2       EATOM= -103.0669
 kinetic energy error for atom=    0.0012 (will be added to EATOM!!)
 
 
 POSCAR: Si12 N16                                
  positions in direct lattice
  No initial velocities read in
 exchange correlation table for  LEXCH =        8
   RHO(1)=    0.500       N(1)  =     2000
   RHO(2)=  100.500       N(2)  =     4000
 


--------------------------------------------------------------------------------------------------------


 ion  position               nearest neighbor table
   1  0.008  0.647  0.213-  14 1.82  23 1.84  25 1.86
   2  0.639  0.992  0.213-  16 1.82  22 1.84  28 1.86
   3  0.914  0.322  0.992-  22 1.83  25 1.85  18 1.86
   4  0.647  0.008  0.713-  22 1.82  16 1.84  26 1.86
   5  0.086  0.407  0.492-  13 1.83  18 1.85  25 1.86
   6  0.322  0.914  0.492-  14 1.83  26 1.85  28 1.86
   7  0.353  0.361  0.213-  13 1.82  15 1.84  21 1.86
   8  0.593  0.678  0.492-  16 1.83  27 1.85  21 1.86
   9  0.992  0.639  0.713-  23 1.82  14 1.84  18 1.86
  10  0.361  0.353  0.713-  15 1.82  13 1.84  27 1.86
  11  0.678  0.593  0.992-  23 1.83  21 1.85  27 1.86
  12  0.407  0.086  0.992-  15 1.83  28 1.85  26 1.86
  13  0.213  0.300  0.467-   7 1.82   5 1.83  10 1.84  19 2.40  21 3.07  18 3.15
  14  0.087  0.787  0.467-   1 1.82   6 1.83   9 1.84  19 2.40  25 3.07  26 3.15
  15  0.300  0.213  0.967-  10 1.82  12 1.83   7 1.84  17 2.40  27 3.07  28 3.15
  16  0.700  0.913  0.467-   2 1.82   8 1.83   4 1.84  19 2.40  28 3.07  27 3.15
  17  0.000  0.000  0.957-  22 2.40  23 2.40  15 2.40  19 2.87  19 2.87
  18  0.067  0.484  0.783-   5 1.85   3 1.86   9 1.86  24 2.39  25 3.06  25 3.06  23 3.07  13 3.15

  19  0.000  0.000  0.457-  14 2.40  16 2.40  13 2.40  17 2.87  17 2.87
  20  0.667  0.333  0.476-  21 2.39  28 2.39  25 2.39
  21  0.582  0.516  0.283-  11 1.85   8 1.86   7 1.86  20 2.39  27 3.06  27 3.06  13 3.07  23 3.15

  22  0.787  0.087  0.967-   4 1.82   3 1.83   2 1.84  17 2.40  26 3.07  25 3.15
  23  0.913  0.700  0.967-   9 1.82  11 1.83   1 1.84  17 2.40  18 3.07  21 3.15
  24  0.333  0.667  0.976-  27 2.39  18 2.39  26 2.39
  25  0.933  0.418  0.283-   3 1.85   5 1.86   1 1.86  20 2.39  18 3.06  18 3.06  14 3.07  22 3.15

  26  0.418  0.933  0.783-   6 1.85  12 1.86   4 1.86  24 2.39  28 3.06  28 3.06  22 3.07  14 3.15

  27  0.516  0.582  0.783-   8 1.85  11 1.86  10 1.86  24 2.39  21 3.06  21 3.06  15 3.07  16 3.15

  28  0.484  0.067  0.283-  12 1.85   6 1.86   2 1.86  20 2.39  26 3.06  26 3.06  16 3.07  15 3.15

 
  LATTYP: Found a hexagonal cell.
 ALAT       =     8.9701847703
 C/A-ratio  =     0.6407499831
  
  Lattice vectors:
  
 A1 = (   4.4850923851,  -7.7684078877,   0.0000000000)
 A2 = (   4.4850923851,   7.7684078877,   0.0000000000)
 A3 = (   0.0000000000,   0.0000000000,   5.7476457402)


Analysis of symmetry for initial positions (statically):
=====================================================================
 Subroutine PRICEL returns:
 Original cell was already a primitive cell.
 

 Routine SETGRP: Setting up the symmetry group for a 
 hexagonal supercell.


 Subroutine GETGRP returns: Found  6 space group operations
 (whereof  3 operations were pure point group operations)
 out of a pool of 24 trial point group operations.


The static configuration has the point symmetry C_3 .
 The point group associated with its full space group is C_3v.


Analysis of symmetry for dynamics (positions and initial velocities):
=====================================================================
 Subroutine PRICEL returns:
 Original cell was already a primitive cell.
 

 Routine SETGRP: Setting up the symmetry group for a 
 hexagonal supercell.


 Subroutine GETGRP returns: Found  6 space group operations
 (whereof  3 operations were pure point group operations)
 out of a pool of 24 trial point group operations.


The dynamic configuration has the point symmetry C_3 .
 The point group associated with its full space group is C_3v.


 Subroutine INISYM returns: Found  6 space group operations
 (whereof  3 operations are pure point group operations),
 and found     1 'primitive' translations

 
 
 KPOINTS: Automatic mesh                          

Automatic generation of k-mesh.
 generate k-points for:    6    6    8
Space group operators:
 irot       det(A)        alpha          n_x          n_y          n_z        tau_x        tau_y        tau_z
    1     1.000000     0.000000     1.000000     0.000000     0.000000     0.000000     0.000000     0.000000
    2     1.000000   120.000000     0.000000     0.000000    -1.000000     0.000000     0.000000     0.000000
    3     1.000000   120.000000     0.000000     0.000000     1.000000     0.000000     0.000000     0.000000
    4    -1.000000   179.999999    -0.000000     1.000000     0.000000     0.000000     0.000000     0.500000
    5    -1.000000   180.000000     0.866025     0.500000     0.000000     0.000000     0.000000     0.500000
    6    -1.000000   180.000000     0.866025    -0.500000     0.000000     0.000000     0.000000     0.500000
 
 Subroutine IBZKPT returns following result:
 ===========================================
 
 Found     44 irreducible k-points:
 
 Following reciprocal coordinates:
            Coordinates               Weight
  0.000000  0.000000  0.000000      1.000000
  0.166667  0.000000  0.000000      6.000000
  0.333333  0.000000  0.000000      6.000000
  0.500000  0.000000  0.000000      3.000000
  0.166667  0.166667  0.000000      6.000000
  0.333333  0.166667  0.000000     12.000000
  0.333333  0.333333  0.000000      2.000000
  0.000000  0.000000  0.125000      2.000000
  0.166667  0.000000  0.125000     12.000000
  0.333333  0.000000  0.125000     12.000000
  0.500000  0.000000  0.125000      6.000000
  0.166667  0.166667  0.125000      6.000000
  0.333333  0.166667  0.125000     12.000000
  0.333333  0.333333  0.125000      2.000000
 -0.166667  0.333333  0.125000      6.000000
 -0.333333  0.500000  0.125000     12.000000
 -0.333333 -0.333333  0.125000      2.000000
  0.000000  0.000000  0.250000      2.000000
  0.166667  0.000000  0.250000     12.000000
  0.333333  0.000000  0.250000     12.000000
  0.500000  0.000000  0.250000      6.000000
  0.166667  0.166667  0.250000      6.000000
  0.333333  0.166667  0.250000     12.000000
  0.333333  0.333333  0.250000      2.000000
 -0.166667  0.333333  0.250000      6.000000
 -0.333333  0.500000  0.250000     12.000000
 -0.333333 -0.333333  0.250000      2.000000
  0.000000  0.000000  0.375000      2.000000
  0.166667  0.000000  0.375000     12.000000
  0.333333  0.000000  0.375000     12.000000
  0.500000  0.000000  0.375000      6.000000
  0.166667  0.166667  0.375000      6.000000
  0.333333  0.166667  0.375000     12.000000
  0.333333  0.333333  0.375000      2.000000
 -0.166667  0.333333  0.375000      6.000000
 -0.333333  0.500000  0.375000     12.000000
 -0.333333 -0.333333  0.375000      2.000000
  0.000000  0.000000  0.500000      1.000000
  0.166667  0.000000  0.500000      6.000000
  0.333333  0.000000  0.500000      6.000000
  0.500000  0.000000  0.500000      3.000000
  0.166667  0.166667  0.500000      6.000000
  0.333333  0.166667  0.500000     12.000000
  0.333333  0.333333  0.500000      2.000000
 
 Following cartesian coordinates:
            Coordinates               Weight
  0.000000  0.000000  0.000000      1.000000
  0.018580 -0.010727  0.000000      6.000000
  0.037160 -0.021454  0.000000      6.000000
  0.055740 -0.032182  0.000000      3.000000
  0.037160  0.000000  0.000000      6.000000
  0.055740 -0.010727  0.000000     12.000000
  0.074320  0.000000  0.000000      2.000000
  0.000000  0.000000  0.021748      2.000000
  0.018580 -0.010727  0.021748     12.000000
  0.037160 -0.021454  0.021748     12.000000
  0.055740 -0.032182  0.021748      6.000000
  0.037160  0.000000  0.021748      6.000000
  0.055740 -0.010727  0.021748     12.000000
  0.074320  0.000000  0.021748      2.000000
  0.018580  0.032182  0.021748      6.000000
  0.018580  0.053636  0.021748     12.000000
 -0.074320 -0.000000  0.021748      2.000000
  0.000000  0.000000  0.043496      2.000000
  0.018580 -0.010727  0.043496     12.000000
  0.037160 -0.021454  0.043496     12.000000
  0.055740 -0.032182  0.043496      6.000000
  0.037160  0.000000  0.043496      6.000000
  0.055740 -0.010727  0.043496     12.000000
  0.074320  0.000000  0.043496      2.000000
  0.018580  0.032182  0.043496      6.000000
  0.018580  0.053636  0.043496     12.000000
 -0.074320 -0.000000  0.043496      2.000000
  0.000000  0.000000  0.065244      2.000000
  0.018580 -0.010727  0.065244     12.000000
  0.037160 -0.021454  0.065244     12.000000
  0.055740 -0.032182  0.065244      6.000000
  0.037160  0.000000  0.065244      6.000000
  0.055740 -0.010727  0.065244     12.000000
  0.074320  0.000000  0.065244      2.000000
  0.018580  0.032182  0.065244      6.000000
  0.018580  0.053636  0.065244     12.000000
 -0.074320 -0.000000  0.065244      2.000000
  0.000000  0.000000  0.086992      1.000000
  0.018580 -0.010727  0.086992      6.000000
  0.037160 -0.021454  0.086992      6.000000
  0.055740 -0.032182  0.086992      3.000000
  0.037160  0.000000  0.086992      6.000000
  0.055740 -0.010727  0.086992     12.000000
  0.074320  0.000000  0.086992      2.000000
 


--------------------------------------------------------------------------------------------------------




 Dimension of arrays:
   k-points           NKPTS =     44   k-points in BZ     NKDIM =     44   number of bands    NBANDS=     80
   number of dos      NEDOS =    301   number of ions     NIONS =     28
   non local maximal  LDIM  =      4   non local SUM 2l+1 LMDIM =      8
   total plane-waves  NPLWV = 144000
   max r-space proj   IRMAX =   7421   max aug-charges    IRDMAX=  12219
   dimension x,y,z NGX =    60 NGY =   60 NGZ =   40
   dimension x,y,z NGXF=   120 NGYF=  120 NGZF=   80
   support grid    NGXF=   120 NGYF=  120 NGZF=   80
   ions per type =              12  16
   NGX,Y,Z   is equivalent  to a cutoff of  11.12, 11.12, 11.57 a.u.
   NGXF,Y,Z  is equivalent  to a cutoff of  22.24, 22.24, 23.14 a.u.

 SYSTEM =  unknown system                          
 POSCAR =  Si12 N16                                

 Startparameter for this run:
   NWRITE =      2    write-flag & timer
   PREC   = accura    normal or accurate (medium, high low for compatibility)
   ISTART =      0    job   : 0-new  1-cont  2-samecut
   ICHARG =      2    charge: 1-file 2-atom 10-const
   ISPIN  =      1    spin polarized calculation?
   LNONCOLLINEAR =      F non collinear calculations
   LSORBIT =      F    spin-orbit coupling
   INIWAV =      1    electr: 0-lowe 1-rand  2-diag
   LASPH  =      F    aspherical Exc in radial PAW
   METAGGA=      F    non-selfconsistent MetaGGA calc.

 Electronic Relaxation 1
   ENCUT  =  400.0 eV  29.40 Ry    5.42 a.u.  14.63 14.63  9.37*2*pi/ulx,y,z
   ENINI  =  400.0     initial cutoff
   ENAUG  =  627.1 eV  augmentation charge cutoff
   NELM   =     60;   NELMIN=  2; NELMDL= -5     # of ELM steps 
   EDIFF  = 0.1E-03   stopping-criterion for ELM
   LREAL  =      T    real-space projection
   NLSPLINE    = F    spline interpolate recip. space projectors
   LCOMPAT=      F    compatible to vasp.4.4
   GGA_COMPAT  = T    GGA compatible to vasp.4.4-vasp.4.6
   LMAXPAW     = -100 max onsite density
   LMAXMIX     =    2 max onsite mixed and CHGCAR
   VOSKOWN=      0    Vosko Wilk Nusair interpolation
   ROPT   =   -0.00025  -0.00025
 Ionic relaxation
   EDIFFG = 0.1E-02   stopping-criterion for IOM
   NSW    =    100    number of steps for IOM
   NBLOCK =      1;   KBLOCK =    100    inner block; outer block 
   IBRION =      2    ionic relax: 0-MD 1-quasi-New 2-CG
   NFREE  =      1    steps in history (QN), initial steepest desc. (CG)
   ISIF   =      2    stress and relaxation
   IWAVPR =     11    prediction:  0-non 1-charg 2-wave 3-comb
   ISYM   =      2    0-nonsym 1-usesym 2-fastsym
   LCORR  =      T    Harris-Foulkes like correction to forces

   POTIM  = 0.5000    time-step for ionic-motion
   TEIN   =    0.0    initial temperature
   TEBEG  =    0.0;   TEEND  =   0.0 temperature during run
   SMASS  =  -3.00    Nose mass-parameter (am)
   estimated Nose-frequenzy (Omega)   =  0.10E-29 period in steps =****** mass=  -0.184E-26a.u.
   SCALEE = 1.0000    scale energy and forces
   NPACO  =    256;   APACO  = 16.0  distance and # of slots for P.C.
   PSTRESS=    0.0 pullay stress

  Mass of Ions in am
   POMASS =  14.00 28.09
  Ionic Valenz
   ZVAL   =   5.00  4.00
  Atomic Wigner-Seitz radii
   RWIGS  =  -1.00 -1.00
  virtual crystal weights 
   VCA    =   1.00  1.00
   NELECT =     124.0000    total number of electrons
   NUPDOWN=      -1.0000    fix difference up-down

 DOS related values:
   EMIN   =  10.00;   EMAX   =-10.00  energy-range for DOS
   EFERMI =   0.00
   ISMEAR =     2;   SIGMA  =   0.10  broadening in eV -4-tet -1-fermi 0-gaus

 Electronic relaxation 2 (details)
   IALGO  =     68    algorithm
   LDIAG  =      T    sub-space diagonalisation (order eigenvalues)
   LSUBROT=      F    optimize rotation matrix (better conditioning)
   TURBO    =      0    0=normal 1=particle mesh
   IRESTART =      0    0=no restart 2=restart with 2 vectors
   NREBOOT  =      0    no. of reboots
   NMIN     =      0    reboot dimension
   EREF     =   0.00    reference energy to select bands
   IMIX   =      4    mixing-type and parameters
     AMIX     =   0.40;   BMIX     =  1.00
     AMIX_MAG =   1.60;   BMIX_MAG =  1.00
     AMIN     =   0.10
     WC   =   100.;   INIMIX=   1;  MIXPRE=   1;  MAXMIX= -45

 Intra band minimization:
   WEIMIN = 0.0010     energy-eigenvalue tresh-hold
   EBREAK =  0.31E-06  absolut break condition
   DEPER  =   0.30     relativ break condition  

   TIME   =   0.40     timestep for ELM

  volume/ion in A,a.u.               =      14.30        96.53
  Fermi-wavevector in a.u.,A,eV,Ry     =   1.107493  2.092858 16.688095  1.226540
  Thomas-Fermi vector in A             =   2.244008
 
 Write flags
   LWAVE        =      F    write WAVECAR
   LDOWNSAMPLE  =      F    k-point downsampling of WAVECAR
   LCHARG       =      F    write CHGCAR
   LVTOT        =      F    write LOCPOT, total local potential
   LVHAR        =      F    write LOCPOT, Hartree potential only
   LELF         =      F    write electronic localiz. function (ELF)
   LORBIT       =      0    0 simple, 1 ext, 2 COOP (PROOUT), +10 PAW based schemes


 Dipole corrections
   LMONO  =      F    monopole corrections only (constant potential shift)
   LDIPOL =      F    correct potential (dipole corrections)
   IDIPOL =      0    1-x, 2-y, 3-z, 4-all directions 
   EPSILON=  1.0000000 bulk dielectric constant

 Exchange correlation treatment:
   GGA     =    --    GGA type
   LEXCH   =     8    internal setting for exchange type
   VOSKOWN=      0    Vosko Wilk Nusair interpolation
   LHFCALC =     F    Hartree Fock is set to
   LHFONE  =     F    Hartree Fock one center treatment
   AEXX    =    0.0000 exact exchange contribution

 Linear response parameters
   LEPSILON=     F    determine dielectric tensor
   LRPA    =     F    only Hartree local field effects (RPA)
   LNABLA  =     F    use nabla operator in PAW spheres
   LVEL    =     F    velocity operator in full k-point grid
   LINTERFAST=   F  fast interpolation
   KINTER  =     0    interpolate to denser k-point grid
   CSHIFT  =0.1000    complex shift for real part using Kramers Kronig
   OMEGAMAX=  -1.0    maximum frequency
   DEG_THRESHOLD= 0.2000000E-02 threshold for treating states as degnerate
   RTIME   =   -0.100 relaxation time in fs
  (WPLASMAI=    0.000 imaginary part of plasma frequency in eV, 0.658/RTIME)
   DFIELD  = 0.0000000 0.0000000 0.0000000 field for delta impulse in time
 
 Orbital magnetization related:
   ORBITALMAG=     F  switch on orbital magnetization
   LCHIMAG   =     F  perturbation theory with respect to B field
   DQ        =  0.001000  dq finite difference perturbation B field
   LLRAUG    =     F  two centre corrections for induced B field



--------------------------------------------------------------------------------------------------------


 conjugate gradient relaxation of ions
 charge density and potential will be updated during run
 non-spin polarized calculation
 RMM-DIIS sequential band-by-band and
  variant of blocked Davidson during initial phase
 perform sub-space diagonalisation
    before iterative eigenvector-optimisation
 modified Broyden-mixing scheme, WC =      100.0
 initial mixing is a Kerker type mixing with AMIX =  0.4000 and BMIX =      1.0000
 Hartree-type preconditioning will be used
 using additional bands           18
 real space projection scheme for non local part
 use partial core corrections
 calculate Harris-corrections to forces 
   (improved forces if not selfconsistent)
 use gradient corrections 
 use of overlap-Matrix (Vanderbilt PP)
 Methfessel and Paxton  Order N= 2 SIGMA  =   0.10


--------------------------------------------------------------------------------------------------------


  energy-cutoff  :      400.00
  volume of cell :      400.52
      direct lattice vectors                 reciprocal lattice vectors
     4.485092385 -7.768407888  0.000000000     0.111480424 -0.064363253  0.000000000
     4.485092385  7.768407888  0.000000000     0.111480424  0.064363253  0.000000000
     0.000000000  0.000000000  5.747645740     0.000000000  0.000000000  0.173984279

  length of vectors
     8.970184770  8.970184770  5.747645740     0.128726505  0.128726505  0.173984279


 
 k-points in units of 2pi/SCALE and weight: Automatic mesh                          
   0.00000000  0.00000000  0.00000000       0.003
   0.01858007 -0.01072721  0.00000000       0.021
   0.03716014 -0.02145442  0.00000000       0.021
   0.05574021 -0.03218163  0.00000000       0.010
   0.03716014  0.00000000  0.00000000       0.021
   0.05574021 -0.01072721  0.00000000       0.042
   0.07432028  0.00000000  0.00000000       0.007
   0.00000000  0.00000000  0.02174803       0.007
   0.01858007 -0.01072721  0.02174803       0.042
   0.03716014 -0.02145442  0.02174803       0.042
   0.05574021 -0.03218163  0.02174803       0.021
   0.03716014  0.00000000  0.02174803       0.021
   0.05574021 -0.01072721  0.02174803       0.042
   0.07432028  0.00000000  0.02174803       0.007
   0.01858007  0.03218163  0.02174803       0.021
   0.01858007  0.05363604  0.02174803       0.042
  -0.07432028 -0.00000000  0.02174803       0.007
   0.00000000  0.00000000  0.04349607       0.007
   0.01858007 -0.01072721  0.04349607       0.042
   0.03716014 -0.02145442  0.04349607       0.042
   0.05574021 -0.03218163  0.04349607       0.021
   0.03716014  0.00000000  0.04349607       0.021
   0.05574021 -0.01072721  0.04349607       0.042
   0.07432028  0.00000000  0.04349607       0.007
   0.01858007  0.03218163  0.04349607       0.021
   0.01858007  0.05363604  0.04349607       0.042
  -0.07432028 -0.00000000  0.04349607       0.007
   0.00000000  0.00000000  0.06524410       0.007
   0.01858007 -0.01072721  0.06524410       0.042
   0.03716014 -0.02145442  0.06524410       0.042
   0.05574021 -0.03218163  0.06524410       0.021
   0.03716014  0.00000000  0.06524410       0.021
   0.05574021 -0.01072721  0.06524410       0.042
   0.07432028  0.00000000  0.06524410       0.007
   0.01858007  0.03218163  0.06524410       0.021
   0.01858007  0.05363604  0.06524410       0.042
  -0.07432028 -0.00000000  0.06524410       0.007
   0.00000000  0.00000000  0.08699214       0.003
   0.01858007 -0.01072721  0.08699214       0.021
   0.03716014 -0.02145442  0.08699214       0.021
   0.05574021 -0.03218163  0.08699214       0.010
   0.03716014  0.00000000  0.08699214       0.021
   0.05574021 -0.01072721  0.08699214       0.042
   0.07432028  0.00000000  0.08699214       0.007
 
 k-points in reciprocal lattice and weights: Automatic mesh                          
   0.00000000  0.00000000  0.00000000       0.003
   0.16666667  0.00000000  0.00000000       0.021
   0.33333333  0.00000000  0.00000000       0.021
   0.50000000  0.00000000  0.00000000       0.010
   0.16666667  0.16666667  0.00000000       0.021
   0.33333333  0.16666667  0.00000000       0.042
   0.33333333  0.33333333  0.00000000       0.007
   0.00000000  0.00000000  0.12500000       0.007
   0.16666667  0.00000000  0.12500000       0.042
   0.33333333  0.00000000  0.12500000       0.042
   0.50000000  0.00000000  0.12500000       0.021
   0.16666667  0.16666667  0.12500000       0.021
   0.33333333  0.16666667  0.12500000       0.042
   0.33333333  0.33333333  0.12500000       0.007
  -0.16666667  0.33333333  0.12500000       0.021
  -0.33333333  0.50000000  0.12500000       0.042
  -0.33333333 -0.33333333  0.12500000       0.007
   0.00000000  0.00000000  0.25000000       0.007
   0.16666667  0.00000000  0.25000000       0.042
   0.33333333  0.00000000  0.25000000       0.042
   0.50000000  0.00000000  0.25000000       0.021
   0.16666667  0.16666667  0.25000000       0.021
   0.33333333  0.16666667  0.25000000       0.042
   0.33333333  0.33333333  0.25000000       0.007
  -0.16666667  0.33333333  0.25000000       0.021
  -0.33333333  0.50000000  0.25000000       0.042
  -0.33333333 -0.33333333  0.25000000       0.007
   0.00000000  0.00000000  0.37500000       0.007
   0.16666667  0.00000000  0.37500000       0.042
   0.33333333  0.00000000  0.37500000       0.042
   0.50000000  0.00000000  0.37500000       0.021
   0.16666667  0.16666667  0.37500000       0.021
   0.33333333  0.16666667  0.37500000       0.042
   0.33333333  0.33333333  0.37500000       0.007
  -0.16666667  0.33333333  0.37500000       0.021
  -0.33333333  0.50000000  0.37500000       0.042
  -0.33333333 -0.33333333  0.37500000       0.007
   0.00000000  0.00000000  0.50000000       0.003
   0.16666667  0.00000000  0.50000000       0.021
   0.33333333  0.00000000  0.50000000       0.021
   0.50000000  0.00000000  0.50000000       0.010
   0.16666667  0.16666667  0.50000000       0.021
   0.33333333  0.16666667  0.50000000       0.042
   0.33333333  0.33333333  0.50000000       0.007
 
 position of ions in fractional coordinates (direct lattice) 
   0.00847736  0.64712623  0.21326215
   0.63864887  0.99152264  0.21326215
   0.91417805  0.32157747  0.99187268
   0.64712623  0.00847736  0.71326215
   0.08582195  0.40739942  0.49187268
   0.32157747  0.91417805  0.49187268
   0.35287377  0.36135113  0.21326215
   0.59260058  0.67842253  0.49187268
   0.99152264  0.63864887  0.71326215
   0.36135113  0.35287377  0.71326215
   0.67842253  0.59260058  0.99187268
   0.40739942  0.08582195  0.99187268
   0.21311138  0.30040483  0.46674092
   0.08729345  0.78688862  0.46674092
   0.30040483  0.21311138  0.96674092
   0.69959517  0.91270655  0.46674092
   0.00000000  0.00000000  0.95692726
   0.06686359  0.48449764  0.78259872
   0.00000000  0.00000000  0.45692726
   0.66666667  0.33333333  0.47577702
   0.58236595  0.51550236  0.28259872
   0.78688862  0.08729345  0.96674092
   0.91270655  0.69959517  0.96674092
   0.33333333  0.66666667  0.97577702
   0.93313641  0.41763405  0.28259872
   0.41763405  0.93313641  0.78259872
   0.51550236  0.58236595  0.78259872
   0.48449764  0.06686359  0.28259872
 
 position of ions in cartesian coordinates  (Angst):
   2.94044268  4.96128493  1.22575529
   7.31146984  2.74126736  1.22575529
   5.54247769 -4.60356305  5.70093277
   2.94044268 -4.96128493  4.09957816
   2.21214338  2.49814496  2.82710990
   5.54247769  4.60356305  2.82710990
   3.20336464  0.06585559  1.22575529
   5.70065609  0.66669988  2.82710990
   7.31146984 -2.74126736  4.09957816
   3.20336464 -0.06585559  4.09957816
   5.70065609 -0.66669988  5.70093277
   2.21214338 -2.49814496  5.70093277
   2.30316763  0.67813110  2.68266143
   3.92078733  5.43474066  2.68266143
   2.30316763 -0.67813110  5.55648430
   7.23132219  1.65553613  2.68266143
   0.00000000  0.00000000  5.50007889
   2.47290603  3.24435161  4.49810022
   0.00000000  0.00000000  2.62625602
   4.48509239 -2.58946930  2.73459774
   4.92404084 -0.51942364  1.62427735
   3.92078733 -5.43474066  5.55648430
   7.23132219 -1.65553613  5.55648430
   4.48509239  2.58946930  5.60842061
   6.05833028 -4.00463264  1.62427735
   6.05833028  4.00463264  4.49810022
   4.92404084  0.51942364  4.49810022
   2.47290603 -3.24435161  1.62427735
 


--------------------------------------------------------------------------------------------------------


 k-point  1 :   0.0000 0.0000 0.0000  plane waves:    7309
 k-point  2 :   0.1667 0.0000 0.0000  plane waves:    7305
 k-point  3 :   0.3333 0.0000 0.0000  plane waves:    7280
 k-point  4 :   0.5000 0.0000 0.0000  plane waves:    7284
 k-point  5 :   0.1667 0.1667 0.0000  plane waves:    7265
 k-point  6 :   0.3333 0.1667 0.0000  plane waves:    7288
 k-point  7 :   0.3333 0.3333 0.0000  plane waves:    7284
 k-point  8 :   0.0000 0.0000 0.1250  plane waves:    7345
 k-point  9 :   0.1667 0.0000 0.1250  plane waves:    7289
 k-point 10 :   0.3333 0.0000 0.1250  plane waves:    7273
 k-point 11 :   0.5000 0.0000 0.1250  plane waves:    7260
 k-point 12 :   0.1667 0.1667 0.1250  plane waves:    7298
 k-point 13 :   0.3333 0.1667 0.1250  plane waves:    7274
 k-point 14 :   0.3333 0.3333 0.1250  plane waves:    7281
 k-point 15 :  -0.1667 0.3333 0.1250  plane waves:    7298
 k-point 16 :  -0.3333 0.5000 0.1250  plane waves:    7274
 k-point 17 :  -0.3333-0.3333 0.1250  plane waves:    7281
 k-point 18 :   0.0000 0.0000 0.2500  plane waves:    7297
 k-point 19 :   0.1667 0.0000 0.2500  plane waves:    7285
 k-point 20 :   0.3333 0.0000 0.2500  plane waves:    7280
 k-point 21 :   0.5000 0.0000 0.2500  plane waves:    7272
 k-point 22 :   0.1667 0.1667 0.2500  plane waves:    7297
 k-point 23 :   0.3333 0.1667 0.2500  plane waves:    7274
 k-point 24 :   0.3333 0.3333 0.2500  plane waves:    7257
 k-point 25 :  -0.1667 0.3333 0.2500  plane waves:    7297
 k-point 26 :  -0.3333 0.5000 0.2500  plane waves:    7274
 k-point 27 :  -0.3333-0.3333 0.2500  plane waves:    7257
 k-point 28 :   0.0000 0.0000 0.3750  plane waves:    7272
 k-point 29 :   0.1667 0.0000 0.3750  plane waves:    7271
 k-point 30 :   0.3333 0.0000 0.3750  plane waves:    7260
 k-point 31 :   0.5000 0.0000 0.3750  plane waves:    7268
 k-point 32 :   0.1667 0.1667 0.3750  plane waves:    7265
 k-point 33 :   0.3333 0.1667 0.3750  plane waves:    7270
 k-point 34 :   0.3333 0.3333 0.3750  plane waves:    7260
 k-point 35 :  -0.1667 0.3333 0.3750  plane waves:    7265
 k-point 36 :  -0.3333 0.5000 0.3750  plane waves:    7270
 k-point 37 :  -0.3333-0.3333 0.3750  plane waves:    7260
 k-point 38 :   0.0000 0.0000 0.5000  plane waves:    7278
 k-point 39 :   0.1667 0.0000 0.5000  plane waves:    7274
 k-point 40 :   0.3333 0.0000 0.5000  plane waves:    7256
 k-point 41 :   0.5000 0.0000 0.5000  plane waves:    7268
 k-point 42 :   0.1667 0.1667 0.5000  plane waves:    7256
 k-point 43 :   0.3333 0.1667 0.5000  plane waves:    7274
 k-point 44 :   0.3333 0.3333 0.5000  plane waves:    7296

 maximum and minimum number of plane-waves per node :      1847     1796

 maximum number of plane-waves:      7345
 maximum index in each direction: 
   IXMAX=   14   IYMAX=   14   IZMAX=    9
   IXMIN=  -15   IYMIN=  -15   IZMIN=   -9


 real space projection operators:
  total allocation   :       9227.88 KBytes
  max/ min on nodes  :       2309.25       2302.25


 parallel 3D FFT for wavefunctions:
    minimum data exchange during FFTs selected (reduces bandwidth)
 parallel 3D FFT for charge:
    minimum data exchange during FFTs selected (reduces bandwidth)


 total amount of memory used by VASP MPI-rank0    72696. kBytes
=======================================================================

   base      :      30000. kBytes
   nonlr-proj:       6369. kBytes
   fftplans  :       3666. kBytes
   grid      :       5832. kBytes
   one-center:         21. kBytes
   wavefun   :      26808. kBytes
 
     INWAV:  cpu time    0.0000: real time    0.0000
 Broyden mixing: mesh for mixing (old mesh)
   NGX = 29   NGY = 29   NGZ = 19
  (NGX  =120   NGY  =120   NGZ  = 80)
  gives a total of  15979 points

 initial charge density was supplied:
 charge density of overlapping atoms calculated
 number of electron     124.0000000 magnetization 
 keeping initial charge density in first step


--------------------------------------------------------------------------------------------------------


 Maximum index for non-local projection operator         1797
 Maximum index for augmentation-charges          996 (set IRDMAX)


--------------------------------------------------------------------------------------------------------


 First call to EWALD:  gamma=   0.240
 Maximum number of real-space cells 3x 3x 3
 Maximum number of reciprocal cells 3x 3x 2

    FEWALD:  cpu time    0.0023: real time    0.0024


--------------------------------------- Iteration      1(   1)  ---------------------------------------


    POTLOK:  cpu time    0.0557: real time    0.0570
    SETDIJ:  cpu time    0.0132: real time    0.0133
     EDDAV:  cpu time    8.9571: real time    8.9614
       DOS:  cpu time    0.0031: real time    0.0031
    --------------------------------------------
      LOOP:  cpu time    9.0292: real time    9.0348

 eigenvalue-minimisations  :  7040
 total energy-change (2. order) : 0.4652168E+03  (-0.4801313E+04)
 number of electron     124.0000000 magnetization 
 augmentation part      124.0000000 magnetization 

 Free energy of the ion-electron system (eV)
  ---------------------------------------------------
  alpha Z        PSCENC =       121.74724609
  Ewald energy   TEWEN  =     -4039.07664167
  -Hartree energ DENC   =     -1136.60071612
  -exchange      EXHF   =         0.00000000
  -V(xc)+E(xc)   XCENC  =        89.80287030
  PAW double counting   =      3869.17357318    -3601.97287308
  entropy T*S    EENTRO =        -0.00133823
  eigenvalues    EBANDS =       339.39274860
  atomic energy  EATOM  =      4822.75196862
  Solvation  Ediel_sol  =         0.00000000
  ---------------------------------------------------
  free energy    TOTEN  =       465.21683768 eV

  energy without entropy =      465.21817591  energy(sigma->0) =      465.21717224


--------------------------------------------------------------------------------------------------------




--------------------------------------- Iteration      1(   2)  ---------------------------------------


     EDDAV:  cpu time   10.6556: real time   10.6559
       DOS:  cpu time    0.0036: real time    0.0036
    --------------------------------------------
      LOOP:  cpu time   10.6591: real time   10.6594

 eigenvalue-minimisations  :  8848
 total energy-change (2. order) :-0.6286313E+03  (-0.6016892E+03)
 number of electron     124.0000000 magnetization 
 augmentation part      124.0000000 magnetization 

 Free energy of the ion-electron system (eV)
  ---------------------------------------------------
  alpha Z        PSCENC =       121.74724609
  Ewald energy   TEWEN  =     -4039.07664167
  -Hartree energ DENC   =     -1136.60071612
  -exchange      EXHF   =         0.00000000
  -V(xc)+E(xc)   XCENC  =        89.80287030
  PAW double counting   =      3869.17357318    -3601.97287308
  entropy T*S    EENTRO =         0.00055085
  eigenvalues    EBANDS =      -289.24046160
  atomic energy  EATOM  =      4822.75196862
  Solvation  Ediel_sol  =         0.00000000
  ---------------------------------------------------
  free energy    TOTEN  =      -163.41448345 eV

  energy without entropy =     -163.41503429  energy(sigma->0) =     -163.41462116


--------------------------------------------------------------------------------------------------------




--------------------------------------- Iteration      1(   3)  ---------------------------------------


     EDDAV:  cpu time   25.7066: real time   25.7074
       DOS:  cpu time    0.0038: real time    0.0038
    --------------------------------------------
      LOOP:  cpu time   25.7105: real time   25.7113

 eigenvalue-minimisations  :  8496
 total energy-change (2. order) :-0.5638687E+02  (-0.5581091E+02)
 number of electron     124.0000000 magnetization 
 augmentation part      124.0000000 magnetization 

 Free energy of the ion-electron system (eV)
  ---------------------------------------------------
  alpha Z        PSCENC =       121.74724609
  Ewald energy   TEWEN  =     -4039.07664167
  -Hartree energ DENC   =     -1136.60071612
  -exchange      EXHF   =         0.00000000
  -V(xc)+E(xc)   XCENC  =        89.80287030
  PAW double counting   =      3869.17357318    -3601.97287308
  entropy T*S    EENTRO =        -0.02217215
  eigenvalues    EBANDS =      -345.60460933
  atomic energy  EATOM  =      4822.75196862
  Solvation  Ediel_sol  =         0.00000000
  ---------------------------------------------------
  free energy    TOTEN  =      -219.80135417 eV

  energy without entropy =     -219.77918202  energy(sigma->0) =     -219.79581113


--------------------------------------------------------------------------------------------------------




--------------------------------------- Iteration      1(   4)  ---------------------------------------


     EDDAV:  cpu time   26.7745: real time   26.7740
       DOS:  cpu time    0.0107: real time    0.0107
    --------------------------------------------
      LOOP:  cpu time   26.7852: real time   26.7846

 eigenvalue-minimisations  :  8984
 total energy-change (2. order) :-0.1572591E+01  (-0.1563175E+01)
 number of electron     124.0000000 magnetization 
 augmentation part      124.0000000 magnetization 

 Free energy of the ion-electron system (eV)
  ---------------------------------------------------
  alpha Z        PSCENC =       121.74724609
  Ewald energy   TEWEN  =     -4039.07664167
  -Hartree energ DENC   =     -1136.60071612
  -exchange      EXHF   =         0.00000000
  -V(xc)+E(xc)   XCENC  =        89.80287030
  PAW double counting   =      3869.17357318    -3601.97287308
  entropy T*S    EENTRO =        -0.02355597
  eigenvalues    EBANDS =      -347.17581604
  atomic energy  EATOM  =      4822.75196862
  Solvation  Ediel_sol  =         0.00000000
  ---------------------------------------------------
  free energy    TOTEN  =      -221.37394470 eV

  energy without entropy =     -221.35038873  energy(sigma->0) =     -221.36805571


--------------------------------------------------------------------------------------------------------




--------------------------------------- Iteration      1(   5)  ---------------------------------------


     EDDAV:  cpu time   17.3421: real time   17.3532
       DOS:  cpu time    0.0037: real time    0.0037
    CHARGE:  cpu time    0.4167: real time    0.4169
    MIXING:  cpu time    0.0020: real time    0.0020
    --------------------------------------------
      LOOP:  cpu time   17.7645: real time   17.7758

 eigenvalue-minimisations  :  8624
 total energy-change (2. order) :-0.4228447E-01  (-0.4222382E-01)
 number of electron     123.9999988 magnetization 
 augmentation part        0.7653112 magnetization 

 Broyden mixing:
  rms(total) = 0.31631E+01    rms(broyden)= 0.31618E+01
  rms(prec ) = 0.46239E+01
  weight for this iteration     100.00

 Free energy of the ion-electron system (eV)
  ---------------------------------------------------
  alpha Z        PSCENC =       121.74724609
  Ewald energy   TEWEN  =     -4039.07664167
  -Hartree energ DENC   =     -1136.60071612
  -exchange      EXHF   =         0.00000000
  -V(xc)+E(xc)   XCENC  =        89.80287030
  PAW double counting   =      3869.17357318    -3601.97287308
  entropy T*S    EENTRO =        -0.02348593
  eigenvalues    EBANDS =      -347.21817055
  atomic energy  EATOM  =      4822.75196862
  Solvation  Ediel_sol  =         0.00000000
  ---------------------------------------------------
  free energy    TOTEN  =      -221.41622917 eV

  energy without entropy =     -221.39274324  energy(sigma->0) =     -221.41035769


--------------------------------------------------------------------------------------------------------




--------------------------------------- Iteration      1(   6)  ---------------------------------------


    POTLOK:  cpu time    0.0520: real time    0.0536
    SETDIJ:  cpu time    0.0046: real time    0.0048
    EDDIAG:  cpu time    1.0920: real time    1.0919
  RMM-DIIS:  cpu time    5.7954: real time    5.7948
    ORTHCH:  cpu time    0.1025: real time    0.1024
       DOS:  cpu time    0.0041: real time    0.0041
    CHARGE:  cpu time    0.4069: real time    0.4068
    MIXING:  cpu time    0.0014: real time    0.0014
    --------------------------------------------
      LOOP:  cpu time    7.4588: real time    7.4598

 eigenvalue-minimisations  :  7059
 total energy-change (2. order) : 0.2121426E+02  (-0.1154111E+02)
 number of electron     123.9999989 magnetization 
 augmentation part       -0.7689811 magnetization 

 Broyden mixing:
  rms(total) = 0.13803E+01    rms(broyden)= 0.13794E+01
  rms(prec ) = 0.15705E+01
  weight for this iteration     100.00

 eigenvalues of (default mixing * dielectric matrix)
  average eigenvalue GAMMA=   0.9980
  0.9980

 Free energy of the ion-electron system (eV)
  ---------------------------------------------------
  alpha Z        PSCENC =       121.74724609
  Ewald energy   TEWEN  =     -4039.07664167
  -Hartree energ DENC   =     -1320.62033134
  -exchange      EXHF   =         0.00000000
  -V(xc)+E(xc)   XCENC  =       102.43595408
  PAW double counting   =      7054.12754898    -6788.80061466
  entropy T*S    EENTRO =        -0.00145439
  eigenvalues    EBANDS =      -152.76564427
  atomic energy  EATOM  =      4822.75196862
  Solvation  Ediel_sol  =         0.00000000
  ---------------------------------------------------
  free energy    TOTEN  =      -200.20196856 eV

  energy without entropy =     -200.20051417  energy(sigma->0) =     -200.20160497


--------------------------------------------------------------------------------------------------------




--------------------------------------- Iteration      1(   7)  ---------------------------------------


    POTLOK:  cpu time    0.0508: real time    0.0508
    SETDIJ:  cpu time    0.0047: real time    0.0047
    EDDIAG:  cpu time    1.0874: real time    1.0874
  RMM-DIIS:  cpu time    6.2512: real time    6.2505
    ORTHCH:  cpu time    0.1063: real time    0.1063
       DOS:  cpu time    0.0040: real time    0.0040
    CHARGE:  cpu time    0.3993: real time    0.3993
    MIXING:  cpu time    0.0014: real time    0.0014
    --------------------------------------------
      LOOP:  cpu time    7.9051: real time    7.9044

 eigenvalue-minimisations  :  7622
 total energy-change (2. order) : 0.3494764E+00  (-0.3400183E+00)
 number of electron     123.9999989 magnetization 
 augmentation part       -0.8508590 magnetization 

 Broyden mixing:
  rms(total) = 0.79958E+00    rms(broyden)= 0.79950E+00
  rms(prec ) = 0.93239E+00
  weight for this iteration     100.00

 eigenvalues of (default mixing * dielectric matrix)
  average eigenvalue GAMMA=   1.5567
  1.0910  2.0223

 Free energy of the ion-electron system (eV)
  ---------------------------------------------------
  alpha Z        PSCENC =       121.74724609
  Ewald energy   TEWEN  =     -4039.07664167
  -Hartree energ DENC   =     -1323.32409624
  -exchange      EXHF   =         0.00000000
  -V(xc)+E(xc)   XCENC  =       103.32645825
  PAW double counting   =      9491.56577265    -9226.75376464
  entropy T*S    EENTRO =        -0.01007500
  eigenvalues    EBANDS =      -150.07936024
  atomic energy  EATOM  =      4822.75196862
  Solvation  Ediel_sol  =         0.00000000
  ---------------------------------------------------
  free energy    TOTEN  =      -199.85249219 eV

  energy without entropy =     -199.84241719  energy(sigma->0) =     -199.84997344


--------------------------------------------------------------------------------------------------------




--------------------------------------- Iteration      1(   8)  ---------------------------------------


    POTLOK:  cpu time    0.0490: real time    0.0507
    SETDIJ:  cpu time    0.0043: real time    0.0043
    EDDIAG:  cpu time    1.0900: real time    1.0911
  RMM-DIIS:  cpu time    5.8179: real time    5.8214
    ORTHCH:  cpu time    0.1030: real time    0.1032
       DOS:  cpu time    0.0040: real time    0.0040
    CHARGE:  cpu time    0.3944: real time    0.3945
    MIXING:  cpu time    0.0015: real time    0.0015
    --------------------------------------------
      LOOP:  cpu time    7.4641: real time    7.4707

 eigenvalue-minimisations  :  7040
 total energy-change (2. order) : 0.9931206E-01  (-0.1615469E+00)
 number of electron     123.9999989 magnetization 
 augmentation part       -0.7235863 magnetization 

 Broyden mixing:
  rms(total) = 0.18001E+00    rms(broyden)= 0.17995E+00
  rms(prec ) = 0.34021E+00
  weight for this iteration     100.00

 eigenvalues of (default mixing * dielectric matrix)
  average eigenvalue GAMMA=   1.3705
  2.2552  0.9281  0.9281

 Free energy of the ion-electron system (eV)
  ---------------------------------------------------
  alpha Z        PSCENC =       121.74724609
  Ewald energy   TEWEN  =     -4039.07664167
  -Hartree energ DENC   =     -1317.05545728
  -exchange      EXHF   =         0.00000000
  -V(xc)+E(xc)   XCENC  =       103.80040233
  PAW double counting   =     12426.09792028   -12161.79746989
  entropy T*S    EENTRO =        -0.00737610
  eigenvalues    EBANDS =      -156.21377249
  atomic energy  EATOM  =      4822.75196862
  Solvation  Ediel_sol  =         0.00000000
  ---------------------------------------------------
  free energy    TOTEN  =      -199.75318013 eV

  energy without entropy =     -199.74580402  energy(sigma->0) =     -199.75133610


--------------------------------------------------------------------------------------------------------




--------------------------------------- Iteration      1(   9)  ---------------------------------------


    POTLOK:  cpu time    0.0491: real time    0.0510
    SETDIJ:  cpu time    0.0045: real time    0.0045
    EDDIAG:  cpu time    1.0915: real time    1.0922
  RMM-DIIS:  cpu time    5.8995: real time    5.9057
    ORTHCH:  cpu time    0.1066: real time    0.1066
       DOS:  cpu time    0.0041: real time    0.0041
    CHARGE:  cpu time    0.4013: real time    0.4016
    MIXING:  cpu time    0.0020: real time    0.0020
    --------------------------------------------
      LOOP:  cpu time    7.5586: real time    7.5676

 eigenvalue-minimisations  :  7040
 total energy-change (2. order) : 0.8524511E-01  (-0.8413930E-02)
 number of electron     123.9999989 magnetization 
 augmentation part       -0.7359658 magnetization 

 Broyden mixing:
  rms(total) = 0.99473E-01    rms(broyden)= 0.99467E-01
  rms(prec ) = 0.16271E+00
  weight for this iteration     100.00

 eigenvalues of (default mixing * dielectric matrix)
  average eigenvalue GAMMA=   1.3001
  2.3423  1.0957  1.0957  0.6667

 Free energy of the ion-electron system (eV)
  ---------------------------------------------------
  alpha Z        PSCENC =       121.74724609
  Ewald energy   TEWEN  =     -4039.07664167
  -Hartree energ DENC   =     -1324.33270236
  -exchange      EXHF   =         0.00000000
  -V(xc)+E(xc)   XCENC  =       104.43804860
  PAW double counting   =     12959.69010188   -12695.51060780
  entropy T*S    EENTRO =        -0.01009887
  eigenvalues    EBANDS =      -149.36524950
  atomic energy  EATOM  =      4822.75196862
  Solvation  Ediel_sol  =         0.00000000
  ---------------------------------------------------
  free energy    TOTEN  =      -199.66793502 eV

  energy without entropy =     -199.65783615  energy(sigma->0) =     -199.66541030


--------------------------------------------------------------------------------------------------------




--------------------------------------- Iteration      1(  10)  ---------------------------------------


    POTLOK:  cpu time    0.0490: real time    0.0509
    SETDIJ:  cpu time    0.0043: real time    0.0043
    EDDIAG:  cpu time    1.0887: real time    1.0893
  RMM-DIIS:  cpu time    5.8436: real time    5.8474
    ORTHCH:  cpu time    0.1053: real time    0.1053
       DOS:  cpu time    0.0042: real time    0.0042
    CHARGE:  cpu time    0.4022: real time    0.4022
    MIXING:  cpu time    0.0015: real time    0.0015
    --------------------------------------------
      LOOP:  cpu time    7.4988: real time    7.5052

 eigenvalue-minimisations  :  7046
 total energy-change (2. order) : 0.1417374E-01  (-0.2671386E-01)
 number of electron     123.9999989 magnetization 
 augmentation part       -0.8077489 magnetization 

 Broyden mixing:
  rms(total) = 0.56735E-01    rms(broyden)= 0.56668E-01
  rms(prec ) = 0.86063E-01
  weight for this iteration     100.00

 eigenvalues of (default mixing * dielectric matrix)
  average eigenvalue GAMMA=   1.4066
  2.2400  2.2400  0.9857  0.9857  0.5817

 Free energy of the ion-electron system (eV)
  ---------------------------------------------------
  alpha Z        PSCENC =       121.74724609
  Ewald energy   TEWEN  =     -4039.07664167
  -Hartree energ DENC   =     -1333.80980844
  -exchange      EXHF   =         0.00000000
  -V(xc)+E(xc)   XCENC  =       105.06781833
  PAW double counting   =     13056.75215524   -12792.63053185
  entropy T*S    EENTRO =        -0.00774522
  eigenvalues    EBANDS =      -140.44822239
  atomic energy  EATOM  =      4822.75196862
  Solvation  Ediel_sol  =         0.00000000
  ---------------------------------------------------
  free energy    TOTEN  =      -199.65376128 eV

  energy without entropy =     -199.64601606  energy(sigma->0) =     -199.65182498


--------------------------------------------------------------------------------------------------------




--------------------------------------- Iteration      1(  11)  ---------------------------------------


    POTLOK:  cpu time    0.0488: real time    0.0509
    SETDIJ:  cpu time    0.0044: real time    0.0044
    EDDIAG:  cpu time    1.0848: real time    1.0854
  RMM-DIIS:  cpu time    5.4454: real time    6.6821
    ORTHCH:  cpu time    1.3595: real time    2.6726
       DOS:  cpu time    0.0042: real time    0.0042
    CHARGE:  cpu time    1.0333: real time    1.9851
    MIXING:  cpu time    0.1715: real time    0.3583
    --------------------------------------------
      LOOP:  cpu time    9.1520: real time   12.8431

 eigenvalue-minimisations  :  7072
 total energy-change (2. order) : 0.2785602E-02  (-0.1159108E-02)
 number of electron     123.9999989 magnetization 
 augmentation part       -0.7993247 magnetization 

 Broyden mixing:
  rms(total) = 0.27050E-01    rms(broyden)= 0.27048E-01
  rms(prec ) = 0.49367E-01
  weight for this iteration     100.00

 eigenvalues of (default mixing * dielectric matrix)
  average eigenvalue GAMMA=   1.4274
  2.4308  2.4308  1.0875  1.0353  1.0353  0.5445

 Free energy of the ion-electron system (eV)
  ---------------------------------------------------
  alpha Z        PSCENC =       121.74724609
  Ewald energy   TEWEN  =     -4039.07664167
  -Hartree energ DENC   =     -1332.29244952
  -exchange      EXHF   =         0.00000000
  -V(xc)+E(xc)   XCENC  =       104.97857673
  PAW double counting   =     12944.11164036   -12679.96935180
  entropy T*S    EENTRO =        -0.00974310
  eigenvalues    EBANDS =      -141.89222138
  atomic energy  EATOM  =      4822.75196862
  Solvation  Ediel_sol  =         0.00000000
  ---------------------------------------------------
  free energy    TOTEN  =      -199.65097568 eV

  energy without entropy =     -199.64123257  energy(sigma->0) =     -199.64853990


--------------------------------------------------------------------------------------------------------




--------------------------------------- Iteration      1(  12)  ---------------------------------------


    POTLOK:  cpu time    0.6972: real time    1.0800
    SETDIJ:  cpu time    0.0739: real time    0.1460
    EDDIAG:  cpu time    2.6106: real time    4.5310
  RMM-DIIS:  cpu time    5.6600: real time    5.6684
    ORTHCH:  cpu time    0.1034: real time    0.1035
       DOS:  cpu time    0.0040: real time    0.0040
    CHARGE:  cpu time    0.4015: real time    0.4020
    MIXING:  cpu time    0.0018: real time    0.0018
    --------------------------------------------
      LOOP:  cpu time    9.5523: real time   11.9366

 eigenvalue-minimisations  :  7040
 total energy-change (2. order) : 0.9423254E-03  (-0.8144890E-03)
 number of electron     123.9999989 magnetization 
 augmentation part       -0.7903184 magnetization 

 Broyden mixing:
  rms(total) = 0.10039E-01    rms(broyden)= 0.10034E-01
  rms(prec ) = 0.25307E-01
  weight for this iteration     100.00

 eigenvalues of (default mixing * dielectric matrix)
  average eigenvalue GAMMA=   1.4512
  2.5383  2.5383  1.5850  1.0085  1.0085  0.9509  0.5292

 Free energy of the ion-electron system (eV)
  ---------------------------------------------------
  alpha Z        PSCENC =       121.74724609
  Ewald energy   TEWEN  =     -4039.07664167
  -Hartree energ DENC   =     -1331.40083337
  -exchange      EXHF   =         0.00000000
  -V(xc)+E(xc)   XCENC  =       104.93469458
  PAW double counting   =     12910.06981768   -12645.92312057
  entropy T*S    EENTRO =        -0.00859645
  eigenvalues    EBANDS =      -142.74456826
  atomic energy  EATOM  =      4822.75196862
  Solvation  Ediel_sol  =         0.00000000
  ---------------------------------------------------
  free energy    TOTEN  =      -199.65003335 eV

  energy without entropy =     -199.64143690  energy(sigma->0) =     -199.64788424


--------------------------------------------------------------------------------------------------------




--------------------------------------- Iteration      1(  13)  ---------------------------------------


    POTLOK:  cpu time    0.0486: real time    0.0517
    SETDIJ:  cpu time    0.0043: real time    0.0043
    EDDIAG:  cpu time    1.0961: real time    1.0978
  RMM-DIIS:  cpu time    5.0278: real time    5.0362
    ORTHCH:  cpu time    0.1033: real time    0.1034
       DOS:  cpu time    0.0043: real time    0.0043
    CHARGE:  cpu time    0.4028: real time    0.4033
    MIXING:  cpu time    0.0018: real time    0.0018
    --------------------------------------------
      LOOP:  cpu time    6.6890: real time    6.7028

 eigenvalue-minimisations  :  6177
 total energy-change (2. order) : 0.1694736E-03  (-0.7741273E-04)
 number of electron     123.9999989 magnetization 
 augmentation part       -0.7879100 magnetization 

 Broyden mixing:
  rms(total) = 0.40247E-02    rms(broyden)= 0.40185E-02
  rms(prec ) = 0.94113E-02
  weight for this iteration     100.00

 eigenvalues of (default mixing * dielectric matrix)
  average eigenvalue GAMMA=   1.4268
  2.7676  2.4046  1.8162  1.0130  1.0130  0.9926  0.8809  0.5265

 Free energy of the ion-electron system (eV)
  ---------------------------------------------------
  alpha Z        PSCENC =       121.74724609
  Ewald energy   TEWEN  =     -4039.07664167
  -Hartree energ DENC   =     -1331.43948568
  -exchange      EXHF   =         0.00000000
  -V(xc)+E(xc)   XCENC  =       104.94387838
  PAW double counting   =     12883.50280306   -12619.35383963
  entropy T*S    EENTRO =        -0.00938190
  eigenvalues    EBANDS =      -142.71641114
  atomic energy  EATOM  =      4822.75196862
  Solvation  Ediel_sol  =         0.00000000
  ---------------------------------------------------
  free energy    TOTEN  =      -199.64986388 eV

  energy without entropy =     -199.64048197  energy(sigma->0) =     -199.64751840


--------------------------------------------------------------------------------------------------------




--------------------------------------- Iteration      1(  14)  ---------------------------------------


    POTLOK:  cpu time    0.0487: real time    0.0521
    SETDIJ:  cpu time    0.0043: real time    0.0043
    EDDIAG:  cpu time    1.0995: real time    1.1011
  RMM-DIIS:  cpu time    3.6983: real time    3.7049
    ORTHCH:  cpu time    0.1058: real time    0.1059
       DOS:  cpu time    0.0042: real time    0.0042
    --------------------------------------------
      LOOP:  cpu time    4.9608: real time    4.9725

 eigenvalue-minimisations  :  4260
 total energy-change (2. order) : 0.4162797E-04  (-0.5451499E-05)
 number of electron     123.9999989 magnetization 
 augmentation part       -0.7879100 magnetization 

 Free energy of the ion-electron system (eV)
  ---------------------------------------------------
  alpha Z        PSCENC =       121.74724609
  Ewald energy   TEWEN  =     -4039.07664167
  -Hartree energ DENC   =     -1331.62448513
  -exchange      EXHF   =         0.00000000
  -V(xc)+E(xc)   XCENC  =       104.95626501
  PAW double counting   =     12882.77962160   -12618.63124575
  entropy T*S    EENTRO =        -0.00921772
  eigenvalues    EBANDS =      -142.54333329
  atomic energy  EATOM  =      4822.75196862
  Solvation  Ediel_sol  =         0.00000000
  ---------------------------------------------------
  free energy    TOTEN  =      -199.64982225 eV

  energy without entropy =     -199.64060453  energy(sigma->0) =     -199.64751782


--------------------------------------------------------------------------------------------------------




 average (electrostatic) potential at core
  the test charge radii are     0.7089  0.9892
  (the norm of the test charge is              1.0000)
       1 -62.9357       2 -62.9357       3 -62.9078       4 -62.9357       5 -62.9078
       6 -62.9078       7 -62.9357       8 -62.9078       9 -62.9357      10 -62.9357
      11 -62.9078      12 -62.9078      13 -84.4183      14 -84.4183      15 -84.4183
      16 -84.4183      17 -83.3654      18 -84.1987      19 -83.3654      20 -82.7414
      21 -84.1987      22 -84.4183      23 -84.4183      24 -82.7414      25 -84.1987
      26 -84.1987      27 -84.1987      28 -84.1987
 
 
 
 E-fermi :   6.0275     XC(G=0):  -9.9066     alpha+bet :-12.1845


 k-point     1 :       0.0000    0.0000    0.0000
  band No.  band energies     occupation 
      1     -11.4932      2.00000
      2     -10.9361      2.00000
      3     -10.9361      2.00000
      4     -10.2228      2.00000
      5     -10.2228      2.00000
      6      -9.6200      2.00000
      7      -9.3446      2.00000
      8      -9.3176      2.00000
      9      -9.3176      2.00000
     10      -9.2819      2.00000
     11      -9.2165      2.00000
     12      -9.2165      2.00000
     13      -4.7458      2.00000
     14      -3.8784      2.00000
     15      -3.8784      2.00000
     16      -3.6239      2.00000
     17      -3.1732      2.00000
     18      -2.7827      2.00000
     19      -2.7827      2.00000
     20      -2.4989      2.00000
     21      -1.8802      2.00000
     22      -1.8802      2.00000
     23      -1.4474      2.00000
     24      -1.3155      2.00000
     25      -1.3155      2.00000
     26      -0.9596      2.00000
     27      -0.8979      2.00000
     28      -0.1154      2.00000
     29       0.0123      2.00000
     30       0.0123      2.00000
     31       0.1328      2.00000
     32       0.3789      2.00000
     33       0.6996      2.00000
     34       0.6996      2.00000
     35       0.8620      2.00000
     36       0.8620      2.00000
     37       1.1769      2.00000
     38       1.2844      2.00000
     39       1.2844      2.00000
     40       1.4802      2.00000
     41       1.4802      2.00000
     42       2.2088      2.00000
     43       2.2469      2.00000
     44       2.2469      2.00000
     45       2.3921      2.00000
     46       2.3921      2.00000
     47       2.8914      2.00000
     48       2.9342      2.00000
     49       3.0016      2.00000
     50       3.0016      2.00000
     51       3.0798      2.00000
     52       3.6091      2.00000
     53       3.8106      2.00000
     54       3.8260      2.00000
     55       3.8260      2.00000
     56       4.1715      2.00000
     57       4.1715      2.00000
     58       4.7175      2.00000
     59       4.7175      2.00000
     60       5.1504      2.00000
     61       5.1504      2.00000
     62       5.7415      1.99889
     63       6.2474      0.00845
     64       7.7253      0.00000
     65       7.7979      0.00000
     66       7.7979      0.00000
     67       8.5100      0.00000
     68       8.5100      0.00000
     69       8.6888      0.00000
     70       8.6889      0.00000
     71       9.4322      0.00000
     72       9.4925      0.00000
     73       9.7379      0.00000
     74       9.7385      0.00000
     75      10.1877      0.00000
     76      10.2299      0.00000
     77      10.5099      0.00000
     78      10.5468      0.00000
     79      10.6094      0.00000
     80      10.7683      0.00000

 k-point     2 :       0.1667    0.0000    0.0000
  band No.  band energies     occupation 
      1     -11.4670      2.00000
      2     -10.9887      2.00000
      3     -10.9557      2.00000
      4     -10.1953      2.00000
      5     -10.1662      2.00000
      6      -9.5977      2.00000
      7      -9.4455      2.00000
      8      -9.3292      2.00000
      9      -9.3105      2.00000
     10      -9.2770      2.00000
     11      -9.2163      2.00000
     12      -9.1832      2.00000
     13      -4.6770      2.00000
     14      -3.8950      2.00000
     15      -3.8121      2.00000
     16      -3.5838      2.00000
     17      -3.2105      2.00000
     18      -2.8875      2.00000
     19      -2.7858      2.00000
     20      -2.6019      2.00000
     21      -2.1024      2.00000
     22      -1.8881      2.00000
     23      -1.4875      2.00000
     24      -1.2998      2.00000
     25      -1.1164      2.00000
     26      -0.8680      2.00000
     27      -0.7394      2.00000
     28      -0.1026      2.00000
     29      -0.0660      2.00000
     30      -0.0431      2.00000
     31       0.1993      2.00000
     32       0.3336      2.00000
     33       0.6714      2.00000
     34       0.6945      2.00000
     35       0.8632      2.00000
     36       0.8838      2.00000
     37       1.1632      2.00000
     38       1.2858      2.00000
     39       1.4333      2.00000
     40       1.5149      2.00000
     41       1.5393      2.00000
     42       2.0978      2.00000
     43       2.1376      2.00000
     44       2.2146      2.00000
     45       2.4214      2.00000
     46       2.4540      2.00000
     47       2.7293      2.00000
     48       2.8776      2.00000
     49       2.9551      2.00000
     50       3.1274      2.00000
     51       3.3525      2.00000
     52       3.6138      2.00000
     53       3.7660      2.00000
     54       3.8508      2.00000
     55       3.8634      2.00000
     56       4.0998      2.00000
     57       4.1706      2.00000
     58       4.6150      2.00000
     59       4.6535      2.00000
     60       5.0204      2.00000
     61       5.1431      2.00000
     62       5.7712      1.99659
     63       6.1979      0.00025
     64       7.8867      0.00000
     65       7.9540      0.00000
     66       7.9725      0.00000
     67       8.4343      0.00000
     68       8.5031      0.00000
     69       8.7785      0.00000
     70       8.8382      0.00000
     71       9.1881      0.00000
     72       9.4193      0.00000
     73       9.6555      0.00000
     74       9.9137      0.00000
     75      10.1431      0.00000
     76      10.1662      0.00000
     77      10.2710      0.00000
     78      10.4525      0.00000
     79      10.4785      0.00000
     80      10.6638      0.00000

 k-point     3 :       0.3333    0.0000    0.0000
  band No.  band energies     occupation 
      1     -11.3934      2.00000
      2     -11.1088      2.00000
      3     -10.9899      2.00000
      4     -10.1510      2.00000
      5     -10.0185      2.00000
      6      -9.6224      2.00000
      7      -9.5380      2.00000
      8      -9.3669      2.00000
      9      -9.3142      2.00000
     10      -9.2687      2.00000
     11      -9.2151      2.00000
     12      -9.1579      2.00000
     13      -4.4819      2.00000
     14      -3.9418      2.00000
     15      -3.6909      2.00000
     16      -3.5481      2.00000
     17      -3.2929      2.00000
     18      -3.0116      2.00000
     19      -2.8336      2.00000
     20      -2.7548      2.00000
     21      -2.4524      2.00000
     22      -1.7921      2.00000
     23      -1.5133      2.00000
     24      -1.3920      2.00000
     25      -0.9483      2.00000
     26      -0.6711      2.00000
     27      -0.4922      2.00000
     28      -0.2351      2.00000
     29      -0.0179      2.00000
     30       0.0212      2.00000
     31       0.2652      2.00000
     32       0.3528      2.00000
     33       0.6162      2.00000
     34       0.6444      2.00000
     35       0.7850      2.00000
     36       0.9101      2.00000
     37       1.0998      2.00000
     38       1.3274      2.00000
     39       1.5325      2.00000
     40       1.6168      2.00000
     41       1.6844      2.00000
     42       1.9568      2.00000
     43       1.9811      2.00000
     44       2.1794      2.00000
     45       2.3993      2.00000
     46       2.5474      2.00000
     47       2.7844      2.00000
     48       2.9066      2.00000
     49       2.9720      2.00000
     50       3.2394      2.00000
     51       3.3933      2.00000
     52       3.6429      2.00000
     53       3.6545      2.00000
     54       3.7725      2.00000
     55       3.9534      2.00000
     56       4.0853      2.00000
     57       4.1460      2.00000
     58       4.4209      2.00000
     59       4.5433      2.00000
     60       4.7994      2.00000
     61       5.1780      2.00000
     62       5.8460      1.99363
     63       6.0963     -0.03537
     64       8.0909      0.00000
     65       8.2178      0.00000
     66       8.3095      0.00000
     67       8.5131      0.00000
     68       8.6204      0.00000
     69       8.8188      0.00000
     70       9.0065      0.00000
     71       9.1055      0.00000
     72       9.2923      0.00000
     73       9.5096      0.00000
     74       9.6674      0.00000
     75       9.9468      0.00000
     76       9.9897      0.00000
     77      10.1292      0.00000
     78      10.3423      0.00000
     79      10.4713      0.00000
     80      10.6433      0.00000

 k-point     4 :       0.5000    0.0000    0.0000
  band No.  band energies     occupation 
      1     -11.3191      2.00000
      2     -11.2041      2.00000
      3     -11.0051      2.00000
      4     -10.1329      2.00000
      5      -9.8254      2.00000
      6      -9.8234      2.00000
      7      -9.4854      2.00000
      8      -9.4079      2.00000
      9      -9.3160      2.00000
     10      -9.2649      2.00000
     11      -9.2139      2.00000
     12      -9.1532      2.00000
     13      -4.2879      2.00000
     14      -4.0436      2.00000
     15      -3.7272      2.00000
     16      -3.5186      2.00000
     17      -3.2293      2.00000
     18      -3.0105      2.00000
     19      -2.9721      2.00000
     20      -2.7665      2.00000
     21      -2.6314      2.00000
     22      -1.7232      2.00000
     23      -1.4997      2.00000
     24      -1.4847      2.00000
     25      -0.8120      2.00000
     26      -0.7209      2.00000
     27      -0.3951      2.00000
     28      -0.2934      2.00000
     29       0.0595      2.00000
     30       0.1466      2.00000
     31       0.2117      2.00000
     32       0.5005      2.00000
     33       0.6047      2.00000
     34       0.6236      2.00000
     35       0.6642      2.00000
     36       0.9399      2.00000
     37       0.9803      2.00000
     38       1.3569      2.00000
     39       1.5207      2.00000
     40       1.6379      2.00000
     41       1.7607      2.00000
     42       1.8944      2.00000
     43       2.0080      2.00000
     44       2.1202      2.00000
     45       2.3788      2.00000
     46       2.6415      2.00000
     47       2.8264      2.00000
     48       2.9780      2.00000
     49       3.0883      2.00000
     50       3.2611      2.00000
     51       3.2897      2.00000
     52       3.5152      2.00000
     53       3.6944      2.00000
     54       3.7142      2.00000
     55       3.9389      2.00000
     56       4.0506      2.00000
     57       4.1273      2.00000
     58       4.3600      2.00000
     59       4.6079      2.00000
     60       4.6471      2.00000
     61       5.2125      2.00000
     62       5.9090      2.07822
     63       6.0250      1.05314
     64       8.1501      0.00000
     65       8.2949      0.00000
     66       8.4360      0.00000
     67       8.5843      0.00000
     68       8.8177      0.00000
     69       8.9110      0.00000
     70       8.9180      0.00000
     71       9.0226      0.00000
     72       9.4905      0.00000
     73       9.5344      0.00000
     74       9.5947      0.00000
     75       9.7289      0.00000
     76       9.8645      0.00000
     77      10.0470      0.00000
     78      10.1030      0.00000
     79      10.3270      0.00000
     80      10.4398      0.00000

 k-point     5 :       0.1667    0.1667    0.0000
  band No.  band energies     occupation 
      1     -11.4167      2.00000
      2     -11.0653      2.00000
      3     -10.9927      2.00000
      4     -10.1340      2.00000
      5     -10.0901      2.00000
      6      -9.5727      2.00000
      7      -9.5558      2.00000
      8      -9.3451      2.00000
      9      -9.3200      2.00000
     10      -9.2706      2.00000
     11      -9.2137      2.00000
     12      -9.1645      2.00000
     13      -4.5431      2.00000
     14      -3.9004      2.00000
     15      -3.7405      2.00000
     16      -3.5563      2.00000
     17      -3.2559      2.00000
     18      -3.0336      2.00000
     19      -2.7840      2.00000
     20      -2.7444      2.00000
     21      -2.3055      2.00000
     22      -1.8842      2.00000
     23      -1.5114      2.00000
     24      -1.3548      2.00000
     25      -0.9852      2.00000
     26      -0.6831      2.00000
     27      -0.5329      2.00000
     28      -0.2190      2.00000
     29      -0.0658      2.00000
     30       0.0050      2.00000
     31       0.2975      2.00000
     32       0.3023      2.00000
     33       0.5907      2.00000
     34       0.7478      2.00000
     35       0.7625      2.00000
     36       0.8987      2.00000
     37       1.1286      2.00000
     38       1.3217      2.00000
     39       1.5712      2.00000
     40       1.5803      2.00000
     41       1.5803      2.00000
     42       1.9892      2.00000
     43       2.0115      2.00000
     44       2.2038      2.00000
     45       2.4156      2.00000
     46       2.5032      2.00000
     47       2.7566      2.00000
     48       2.9201      2.00000
     49       2.9469      2.00000
     50       3.2574      2.00000
     51       3.3927      2.00000
     52       3.6107      2.00000
     53       3.6967      2.00000
     54       3.8497      2.00000
     55       3.9506      2.00000
     56       3.9651      2.00000
     57       4.1742      2.00000
     58       4.4592      2.00000
     59       4.5757      2.00000
     60       4.8801      2.00000
     61       5.1568      2.00000
     62       5.8230      1.99016
     63       6.1241     -0.10321
     64       8.0682      0.00000
     65       8.1532      0.00000
     66       8.2552      0.00000
     67       8.4348      0.00000
     68       8.5317      0.00000
     69       8.8477      0.00000
     70       9.0163      0.00000
     71       9.1373      0.00000
     72       9.3405      0.00000
     73       9.5254      0.00000
     74       9.5821      0.00000
     75      10.0052      0.00000
     76      10.1222      0.00000
     77      10.1766      0.00000
     78      10.2326      0.00000
     79      10.5576      0.00000
     80      10.6896      0.00000

 k-point     6 :       0.3333    0.1667    0.0000
  band No.  band energies     occupation 
      1     -11.3296      2.00000
      2     -11.1751      2.00000
      3     -11.0287      2.00000
      4     -10.0812      2.00000
      5      -9.9450      2.00000
      6      -9.7550      2.00000
      7      -9.4913      2.00000
      8      -9.3809      2.00000
      9      -9.3297      2.00000
     10      -9.2647      2.00000
     11      -9.2075      2.00000
     12      -9.1629      2.00000
     13      -4.3112      2.00000
     14      -3.9432      2.00000
     15      -3.7532      2.00000
     16      -3.6265      2.00000
     17      -3.2249      2.00000
     18      -3.0411      2.00000
     19      -2.8932      2.00000
     20      -2.7740      2.00000
     21      -2.5660      2.00000
     22      -1.8049      2.00000
     23      -1.5267      2.00000
     24      -1.4722      2.00000
     25      -0.8385      2.00000
     26      -0.5936      2.00000
     27      -0.4226      2.00000
     28      -0.3229      2.00000
     29       0.0839      2.00000
     30       0.1206      2.00000
     31       0.2773      2.00000
     32       0.4504      2.00000
     33       0.5209      2.00000
     34       0.6487      2.00000
     35       0.7574      2.00000
     36       0.8869      2.00000
     37       0.9895      2.00000
     38       1.3980      2.00000
     39       1.5351      2.00000
     40       1.5834      2.00000
     41       1.6892      2.00000
     42       1.8768      2.00000
     43       1.9314      2.00000
     44       2.2435      2.00000
     45       2.3710      2.00000
     46       2.6928      2.00000
     47       2.8400      2.00000
     48       3.0184      2.00000
     49       3.0346      2.00000
     50       3.3084      2.00000
     51       3.3655      2.00000
     52       3.5496      2.00000
     53       3.6324      2.00000
     54       3.7525      2.00000
     55       3.8965      2.00000
     56       3.9426      2.00000
     57       4.0525      2.00000
     58       4.2628      2.00000
     59       4.6683      2.00000
     60       4.7977      2.00000
     61       5.1817      2.00000
     62       5.9004      2.06207
     63       6.0326      0.89150
     64       8.1699      0.00000
     65       8.3040      0.00000
     66       8.4694      0.00000
[...]
     33       0.1317      2.00000
     34       0.1736      2.00000
     35       0.5387      2.00000
     36       0.5960      2.00000
     37       0.6553      2.00000
     38       0.7906      2.00000
     39       0.8943      2.00000
     40       1.0116      2.00000
     41       1.6733      2.00000
     42       1.7862      2.00000
     43       1.7967      2.00000
     44       1.9236      2.00000
     45       2.2226      2.00000
     46       2.4656      2.00000
     47       2.4837      2.00000
     48       2.8547      2.00000
     49       2.8595      2.00000
     50       2.9982      2.00000
     51       3.3984      2.00000
     52       3.4204      2.00000
     53       3.8392      2.00000
     54       3.8514      2.00000
     55       4.0081      2.00000
     56       4.0269      2.00000
     57       4.5713      2.00000
     58       4.5846      2.00000
     59       4.6884      2.00000
     60       4.7218      2.00000
     61       6.1110      2.07220
     62       6.1308      1.94918
     63       6.3188     -0.05458
     64       6.3266     -0.04016
     65       8.5507      0.00000
     66       8.5993      0.00000
     67       8.8169      0.00000
     68       8.8540      0.00000
     69       9.3374      0.00000
     70       9.3378      0.00000
     71       9.4340      0.00000
     72       9.4496      0.00000
     73       9.6421      0.00000
     74       9.7444      0.00000
     75       9.8555      0.00000
     76       9.9282      0.00000
     77      10.0982      0.00000
     78      10.2349      0.00000
     79      10.3618      0.00000
     80      10.5199      0.00000

 k-point    43 :       0.3333    0.1667    0.5000
  band No.  band energies     occupation 
      1     -10.9545      2.00000
      2     -10.9543      2.00000
      3     -10.6514      2.00000
      4     -10.6482      2.00000
      5     -10.6106      2.00000
      6     -10.6043      2.00000
      7      -9.7939      2.00000
      8      -9.7835      2.00000
      9      -9.7514      2.00000
     10      -9.7449      2.00000
     11      -9.3545      2.00000
     12      -9.3541      2.00000
     13      -3.8089      2.00000
     14      -3.7938      2.00000
     15      -3.4448      2.00000
     16      -3.4060      2.00000
     17      -3.1142      2.00000
     18      -3.0874      2.00000
     19      -2.4863      2.00000
     20      -2.4777      2.00000
     21      -2.0395      2.00000
     22      -2.0085      2.00000
     23      -1.3764      2.00000
     24      -1.2626      2.00000
     25      -1.1167      2.00000
     26      -1.0025      2.00000
     27      -0.8214      2.00000
     28      -0.7563      2.00000
     29      -0.5665      2.00000
     30      -0.3678      2.00000
     31      -0.1379      2.00000
     32      -0.0983      2.00000
     33       0.0511      2.00000
     34       0.1812      2.00000
     35       0.4925      2.00000
     36       0.5046      2.00000
     37       0.5994      2.00000
     38       0.8697      2.00000
     39       1.0251      2.00000
     40       1.1705      2.00000
     41       1.7059      2.00000
     42       1.7309      2.00000
     43       1.8902      2.00000
     44       1.9150      2.00000
     45       2.3267      2.00000
     46       2.5140      2.00000
     47       2.7569      2.00000
     48       2.9611      2.00000
     49       3.1229      2.00000
     50       3.2088      2.00000
     51       3.3555      2.00000
     52       3.3888      2.00000
     53       3.6294      2.00000
     54       3.6638      2.00000
     55       3.9507      2.00000
     56       3.9687      2.00000
     57       4.3695      2.00000
     58       4.3909      2.00000
     59       4.6123      2.00000
     60       4.6731      2.00000
     61       6.1502      1.71435
     62       6.1726      1.31666
     63       6.3015     -0.08648
     64       6.3099     -0.07169
     65       8.4656      0.00000
     66       8.5115      0.00000
     67       8.8274      0.00000
     68       8.8937      0.00000
     69       9.1919      0.00000
     70       9.2030      0.00000
     71       9.4444      0.00000
     72       9.4942      0.00000
     73       9.7528      0.00000
     74       9.7942      0.00000
     75       9.9412      0.00000
     76       9.9923      0.00000
     77      10.1304      0.00000
     78      10.2545      0.00000
     79      10.4524      0.00000
     80      10.5626      0.00000

 k-point    44 :       0.3333    0.3333    0.5000
  band No.  band energies     occupation 
      1     -10.9451      2.00000
      2     -10.9451      2.00000
      3     -10.6452      2.00000
      4     -10.6452      2.00000
      5     -10.6348      2.00000
      6     -10.6223      2.00000
      7      -9.7793      2.00000
      8      -9.7565      2.00000
      9      -9.7559      2.00000
     10      -9.7559      2.00000
     11      -9.3612      2.00000
     12      -9.3612      2.00000
     13      -3.6279      2.00000
     14      -3.5796      2.00000
     15      -3.5796      2.00000
     16      -3.5284      2.00000
     17      -3.2490      2.00000
     18      -3.2490      2.00000
     19      -2.3350      2.00000
     20      -2.3037      2.00000
     21      -2.1682      2.00000
     22      -2.1682      2.00000
     23      -1.1772      2.00000
     24      -1.1772      2.00000
     25      -1.0725      2.00000
     26      -0.9628      2.00000
     27      -0.9206      2.00000
     28      -0.9206      2.00000
     29      -0.4903      2.00000
     30      -0.4903      2.00000
     31      -0.1163      2.00000
     32      -0.1163      2.00000
     33       0.0232      2.00000
     34       0.2699      2.00000
     35       0.4183      2.00000
     36       0.4183      2.00000
     37       0.5296      2.00000
     38       0.9979      2.00000
     39       0.9979      2.00000
     40       1.2370      2.00000
     41       1.7120      2.00000
     42       1.7120      2.00000
     43       1.9671      2.00000
     44       2.1600      2.00000
     45       2.2772      2.00000
     46       2.2772      2.00000
     47       3.0093      2.00000
     48       3.0093      2.00000
     49       3.1232      2.00000
     50       3.2805      2.00000
     51       3.2805      2.00000
     52       3.3603      2.00000
     53       3.6086      2.00000
     54       3.6086      2.00000
     55       3.9548      2.00000
     56       3.9548      2.00000
     57       4.3785      2.00000
     58       4.3785      2.00000
     59       4.4896      2.00000
     60       4.5976      2.00000
     61       6.1557      1.62761
     62       6.1757      1.25354
     63       6.3069     -0.07723
     64       6.3069     -0.07723
     65       8.5228      0.00000
     66       8.5228      0.00000
     67       8.8159      0.00000
     68       8.8159      0.00000
     69       9.0585      0.00000
     70       9.0639      0.00000
     71       9.5324      0.00000
     72       9.5324      0.00000
     73       9.8220      0.00000
     74       9.9015      0.00000
     75       9.9867      0.00000
     76       9.9867      0.00000
     77      10.2860      0.00000
     78      10.2974      0.00000
     79      10.2974      0.00000
     80      10.5214      0.00000


--------------------------------------------------------------------------------------------------------


 soft charge-density along one line, spin component           1
         0         1         2         3         4         5         6         7         8         9
 total charge-density along one line
 
 pseudopotential strength for first ion, spin component:           1
 12.643  15.159  -0.000  -0.001   0.001  -0.002  -0.002   0.002
 15.159  18.175  -0.001  -0.001   0.001  -0.002  -0.002   0.003
 -0.000  -0.001  -6.041   0.012  -0.015  -8.102   0.019  -0.023
 -0.001  -0.001   0.012  -6.049  -0.014   0.019  -8.115  -0.022
  0.001   0.001  -0.015  -0.014  -6.037  -0.023  -0.022  -8.095
 -0.002  -0.002  -8.102   0.019  -0.023 -10.160   0.029  -0.036
 -0.002  -0.002   0.019  -8.115  -0.022   0.029 -10.180  -0.034
  0.002   0.003  -0.023  -0.022  -8.095  -0.036  -0.034 -10.150
 total augmentation occupancy for first ion, spin component:           1
  6.783  -2.999   0.103   0.106  -0.130  -0.030  -0.033   0.041
 -2.999   1.447  -0.092  -0.089   0.112   0.021   0.022  -0.028
  0.103  -0.092   2.100  -0.068   0.107  -0.328   0.051  -0.067
  0.106  -0.089  -0.068   2.207   0.076   0.050  -0.374  -0.057
 -0.130   0.112   0.107   0.076   2.097  -0.067  -0.058  -0.314
 -0.030   0.021  -0.328   0.050  -0.067   0.060  -0.014   0.019
 -0.033   0.022   0.051  -0.374  -0.058  -0.014   0.073   0.015
  0.041  -0.028  -0.067  -0.057  -0.314   0.019   0.015   0.057


------------------------ aborting loop because EDIFF is reached ----------------------------------------


    CHARGE:  cpu time    0.3972: real time    0.3972
    FORLOC:  cpu time    0.0121: real time    0.0121
    FORNL :  cpu time    2.6579: real time    2.6579
    STRESS:  cpu time    7.9332: real time    7.9330
    FORCOR:  cpu time    0.0610: real time    0.0610
    FORHAR:  cpu time    0.0222: real time    0.0222
    MIXING:  cpu time    0.0014: real time    0.0014
    OFIELD:  cpu time    0.0000: real time    0.0000

  FORCE on cell =-STRESS in cart. coord.  units (eV):
  Direction    XX          YY          ZZ          XY          YZ          ZX
  --------------------------------------------------------------------------------------
  Alpha Z   121.74725   121.74725   121.74725
  Ewald   -1583.41421 -1583.41421  -825.13954     0.00000    -0.00000    -0.00000
  Hartree   334.11016   334.11016   698.45724    -0.00000    -0.00000    -0.00000
  E(xc)    -465.11458  -465.11458  -463.05979     0.00000    -0.00000     0.00000
  Local    -450.53327  -450.53270 -1513.09051    -0.00000     0.00000    -0.00000
  n-local   424.55596   424.53159   420.13952     0.02169     0.05108     0.21563
  augment   -74.94247   -74.94296   -74.43534    -0.00000    -0.00000    -0.00000
  Kinetic  1658.34739  1659.93313  1591.24997     0.44729     0.29694    -0.53305
  Fock        0.00000     0.00000     0.00000     0.00000     0.00000     0.00000
  -------------------------------------------------------------------------------------
  Total     -34.46304   -34.46304   -44.13119     0.00000    -0.00000     0.00000
  in kB    -137.86078  -137.86078  -176.53583     0.00000    -0.00000     0.00000
  external pressure =     -150.75 kB  Pullay stress =        0.00 kB


 VOLUME and BASIS-vectors are now :
 -----------------------------------------------------------------------------
  energy-cutoff  :      400.00
  volume of cell :      400.52
      direct lattice vectors                 reciprocal lattice vectors
     4.485092385 -7.768407888  0.000000000     0.111480424 -0.064363253  0.000000000
     4.485092385  7.768407888  0.000000000     0.111480424  0.064363253  0.000000000
     0.000000000  0.000000000  5.747645740     0.000000000  0.000000000  0.173984279

  length of vectors
     8.970184770  8.970184770  5.747645740     0.128726505  0.128726505  0.173984279


 FORCES acting on ions
    electron-ion (+dipol)            ewald-force                    non-local-force                 convergence-correction
 -----------------------------------------------------------------------------------------------
   -.343E+02 -.110E+02 0.627E+01   0.372E+02 0.840E+01 -.844E+01   -.286E+01 0.260E+01 0.217E+01   0.203E-01 0.169E-01 0.784E-02
   0.762E+01 0.352E+02 0.627E+01   -.113E+02 -.364E+02 -.844E+01   0.368E+01 0.118E+01 0.217E+01   0.449E-02 -.260E-01 0.784E-02
   0.164E+02 0.193E+02 0.149E+02   -.181E+02 -.188E+02 -.169E+02   0.161E+01 -.515E+00 0.198E+01   -.175E-02 -.358E-01 0.104E-01
   -.343E+02 0.110E+02 0.627E+01   0.372E+02 -.840E+01 -.844E+01   -.286E+01 -.260E+01 0.217E+01   0.203E-01 -.169E-01 0.784E-02
   0.852E+01 0.239E+02 0.149E+02   -.723E+01 -.250E+02 -.169E+02   -.125E+01 0.114E+01 0.198E+01   -.301E-01 -.194E-01 0.104E-01
   0.164E+02 -.193E+02 0.149E+02   -.181E+02 0.188E+02 -.169E+02   0.161E+01 0.515E+00 0.198E+01   -.175E-02 0.358E-01 0.104E-01
   0.267E+02 -.242E+02 0.627E+01   -.258E+02 0.280E+02 -.844E+01   -.822E+00 -.378E+01 0.217E+01   -.247E-01 0.910E-02 0.784E-02
   -.249E+02 -.457E+01 0.149E+02   0.253E+02 0.625E+01 -.169E+02   -.361E+00 -.166E+01 0.198E+01   0.319E-01 -.164E-01 0.104E-01
   0.762E+01 -.352E+02 0.627E+01   -.113E+02 0.364E+02 -.844E+01   0.368E+01 -.118E+01 0.217E+01   0.449E-02 0.260E-01 0.784E-02
   0.267E+02 0.242E+02 0.627E+01   -.258E+02 -.280E+02 -.844E+01   -.822E+00 0.378E+01 0.217E+01   -.247E-01 -.910E-02 0.784E-02
   -.249E+02 0.457E+01 0.149E+02   0.253E+02 -.625E+01 -.169E+02   -.361E+00 0.166E+01 0.198E+01   0.319E-01 0.164E-01 0.104E-01
   0.852E+01 -.239E+02 0.149E+02   -.723E+01 0.250E+02 -.169E+02   -.125E+01 -.114E+01 0.198E+01   -.301E-01 0.194E-01 0.104E-01
   0.636E+02 0.612E+01 0.541E+01   -.660E+02 -.864E+01 -.560E+01   0.244E+01 0.253E+01 0.182E+00   -.310E-01 -.940E-02 -.151E-02
   -.265E+02 -.581E+02 0.541E+01   0.255E+02 0.615E+02 -.560E+01   0.973E+00 -.338E+01 0.182E+00   0.737E-02 0.316E-01 -.151E-02
   0.636E+02 -.612E+01 0.541E+01   -.660E+02 0.864E+01 -.560E+01   0.244E+01 -.253E+01 0.182E+00   -.310E-01 0.940E-02 -.151E-02
   -.371E+02 0.520E+02 0.541E+01   0.405E+02 -.528E+02 -.560E+01   -.341E+01 0.848E+00 0.182E+00   0.236E-01 -.222E-01 -.151E-02
   0.391E-06 0.221E-06 0.547E+00   0.171E-11 0.763E-12 -.337E+00   0.167E-17 0.419E-17 -.199E+00   0.988E-07 -.355E-07 -.139E-03
   -.106E+02 0.313E+02 -.173E+02   0.164E+02 -.329E+02 0.184E+02   -.578E+01 0.164E+01 -.111E+01   -.867E-02 -.425E-02 -.137E-02
   0.391E-06 -.221E-06 0.547E+00   0.174E-11 -.747E-12 -.337E+00   0.155E-17 -.554E-17 -.199E+00   0.988E-07 0.355E-07 -.139E-03
   -.635E-06 0.156E-06 -.410E+02   -.437E-11 -.705E-11 0.380E+02   -.180E-18 0.198E-17 0.304E+01   0.657E-07 -.324E-07 -.328E-02
   -.218E+02 0.249E+02 -.173E+02   0.203E+02 -.307E+02 0.184E+02   0.147E+01 0.582E+01 -.111E+01   0.802E-02 0.538E-02 -.137E-02
   -.265E+02 0.581E+02 0.541E+01   0.255E+02 -.615E+02 -.560E+01   0.973E+00 0.338E+01 0.182E+00   0.737E-02 -.316E-01 -.151E-02
   -.371E+02 -.520E+02 0.541E+01   0.405E+02 0.528E+02 -.560E+01   -.341E+01 -.848E+00 0.182E+00   0.236E-01 0.222E-01 -.151E-02
   -.635E-06 -.156E-06 -.410E+02   0.759E-12 0.651E-11 0.380E+02   -.129E-17 -.371E-18 0.304E+01   0.657E-07 0.324E-07 -.328E-02
   0.324E+02 0.644E+01 -.173E+02   -.368E+02 -.224E+01 0.184E+02   0.431E+01 -.418E+01 -.111E+01   0.652E-03 -.964E-02 -.137E-02
   0.324E+02 -.644E+01 -.173E+02   -.368E+02 0.224E+01 0.184E+02   0.431E+01 0.418E+01 -.111E+01   0.652E-03 0.964E-02 -.137E-02
   -.218E+02 -.249E+02 -.173E+02   0.203E+02 0.307E+02 0.184E+02   0.147E+01 -.582E+01 -.111E+01   0.802E-02 -.538E-02 -.137E-02
   -.106E+02 -.313E+02 -.173E+02   0.164E+02 0.329E+02 0.184E+02   -.578E+01 -.164E+01 -.111E+01   -.867E-02 0.425E-02 -.137E-02
 -----------------------------------------------------------------------------------------------
   -.342E-05 0.779E-12 -.251E+02   -.675E-13 -.284E-13 -.320E-13   -.266E-14 0.888E-15 0.250E+02   0.720E-05 -.110E-12 0.854E-01
 
 
 POSITION                                       TOTAL-FORCE (eV/Angst)
 -----------------------------------------------------------------------------------
      2.92336      5.01332      1.28844        -0.001774      0.005117      0.008615
      7.36507      2.73005      1.28844         0.005318     -0.001022      0.008615
      5.57970     -4.62117      5.70211        -0.010475      0.003462      0.007338
      2.92336     -5.01332      4.16226        -0.001774     -0.005117      0.008615
      2.17828      2.52158      2.82829         0.008235     -0.007340      0.007338
      5.57970      4.62117      2.82829        -0.010475     -0.003462      0.007338
      3.16685      0.02504      1.28844        -0.003545     -0.004094      0.008615
      5.69730      0.62566      2.82829         0.002239      0.010802      0.007338
      7.36507     -2.73005      4.16226         0.005318      0.001022      0.008615
      3.16685     -0.02504      4.16226        -0.003545      0.004094      0.008615
      5.69730     -0.62566      5.70211         0.002239     -0.010802      0.007338
      2.17828     -2.52158      5.70211         0.008235      0.007340      0.007338
      2.30087      0.68534      2.72744         0.010099      0.004657     -0.009905
      3.92818      5.43313      2.72744        -0.001016     -0.011074     -0.009905
      2.30087     -0.68534      5.60126         0.010099     -0.004657     -0.009905
      7.22623      1.64994      2.72744        -0.009083      0.006417     -0.009905
     -0.00000     -0.00000      5.58196         0.000000      0.000000      0.011215
      2.43291      3.29091      4.45518         0.003387     -0.003140     -0.011761
     -0.00000     -0.00000      2.70813         0.000000      0.000000      0.011215
      4.48509     -2.58947      2.45557         0.000000      0.000000      0.005926
      4.90372     -0.46151      1.58136         0.001026     -0.004504     -0.011761
      3.92818     -5.43313      5.60126        -0.001016      0.011074     -0.009905
      7.22623     -1.64994      5.60126        -0.009083     -0.006417     -0.009905
      4.48509      2.58947      5.32939         0.000000      0.000000      0.005926
      6.11865     -4.01599      1.58136        -0.004413      0.001363     -0.011761
      6.11865      4.01599      4.45518        -0.004413     -0.001363     -0.011761
      4.90372      0.46151      4.45518         0.001026      0.004504     -0.011761
      2.43291     -3.29091      1.58136         0.003387      0.003140     -0.011761
 -----------------------------------------------------------------------------------
    total drift:                                0.000004      0.000000     -0.001220


--------------------------------------------------------------------------------------------------------



  FREE ENERGIE OF THE ION-ELECTRON SYSTEM (eV)
  ---------------------------------------------------
  free  energy   TOTEN  =      -200.21047183 eV

  energy  without entropy=     -200.20261548  energy(sigma->0) =     -200.20850774
 
 d Force = 0.1259329E-04[-0.155E-04, 0.406E-04]  d Energy = 0.8378107E-05 0.422E-05
 d Force = 0.1048334E+00[ 0.105E+00, 0.105E+00]  d Ewald  = 0.1048334E+00-0.123E-07


--------------------------------------------------------------------------------------------------------


    POTLOK:  cpu time    0.0535: real time    0.0535


--------------------------------------------------------------------------------------------------------




--------------------------------------------------------------------------------------------------------


  
 reached required accuracy - stopping structural energy minimisation
     LOOP+:  cpu time   26.2368: real time   26.2521
    4ORBIT:  cpu time    0.0000: real time    0.0000

 total amount of memory used by VASP MPI-rank0    72696. kBytes
=======================================================================

   base      :      30000. kBytes
   nonlr-proj:       6369. kBytes
   fftplans  :       3666. kBytes
   grid      :       5832. kBytes
   one-center:         21. kBytes
   wavefun   :      26808. kBytes
 
  
  
 General timing and accounting informations for this job:
 ========================================================
  
                  Total CPU time used (sec):      912.531
                            User time (sec):      911.307
                          System time (sec):        1.225
                         Elapsed time (sec):      938.828
  
                   Maximum memory used (kb):      105012.
                   Average memory used (kb):           0.
  
                          Minor page faults:       275582
                          Major page faults:           20
                 Voluntary context switches:        14745
