<?xml version="1.0" encoding="ISO-8859-1"?>
<modeling>
 <generator>
  <i name="program" type="string">vasp </i>
  <i name="version" type="string">5.4.4.18Apr17-6-g9f103f2a35  </i>
  <i name="subversion" type="string">(build Nov 01 2019 12:17:22) complex            parallel </i>
  <i name="platform" type="string">LinuxIFC </i>
  <i name="date" type="string">2023 05 19 </i>
  <i name="time" type="string">18:21:58 </i>
 </generator>
 <incar>
  <i type="string" name="PREC">accurate</i>
  <i type="string" name="ALGO"> Fast</i>
  <i type="int" name="IBRION">     2</i>
  <i type="int" name="NSW">   100</i>
  <i type="int" name="ISIF">     2</i>
  <i type="string" name="LREAL"> Auto</i>
  <i type="int" name="ISMEAR">     2</i>
  <i name="SIGMA">      0.10000000</i>
  <i type="logical" name="LWAVE"> F  </i>
  <i type="logical" name="LCHARG"> F  </i>
  <v type="int" name="KPOINT_BSE">    -1     0     0     0</v>
 </incar>
 <structure name="primitive_cell" >
  <crystal>
   <varray name="basis" >
    <v>       4.48509239      -7.76840789       0.00000000 </v>
    <v>       4.48509239       7.76840789       0.00000000 </v>
    <v>       0.00000000       0.00000000       5.74764574 </v>
   </varray>
   <i name="volume">    400.51925684 </i>
   <varray name="rec_basis" >
    <v>       0.11148042      -0.06436325       0.00000000 </v>
    <v>       0.11148042       0.06436325       0.00000000 </v>
    <v>       0.00000000       0.00000000       0.17398428 </v>
   </varray>
  </crystal>
  <varray name="positions" >
   <v>       0.00847736      -0.35287377       0.21326215 </v>
   <v>       0.08729345      -0.21311138       0.46674092 </v>
   <v>      -0.08729345      -0.30040483      -0.03325908 </v>
   <v>      -0.06686359       0.41763405       0.28259872 </v>
   <v>      -0.00847736      -0.36135113      -0.28673785 </v>
   <v>      -0.08582195       0.32157747      -0.00812732 </v>
   <v>       0.08582195       0.40739942       0.49187268 </v>
   <v>      -0.32157747      -0.40739942      -0.00812732 </v>
   <v>       0.06686359       0.48449764      -0.21740128 </v>
   <v>       0.32157747      -0.08582195       0.49187268 </v>
   <v>       0.33333333      -0.33333333      -0.02422298 </v>
   <v>      -0.33333333       0.33333333       0.47577702 </v>
   <v>      -0.41763405      -0.48449764       0.28259872 </v>
   <v>       0.00000000       0.00000000       0.45692726 </v>
   <v>       0.00000000       0.00000000      -0.04307274 </v>
   <v>       0.40739942       0.08582195      -0.00812732 </v>
   <v>       0.48449764       0.06686359       0.28259872 </v>
   <v>       0.41763405      -0.06686359      -0.21740128 </v>
   <v>      -0.40739942      -0.32157747       0.49187268 </v>
   <v>       0.21311138       0.30040483       0.46674092 </v>
   <v>      -0.21311138       0.08729345      -0.03325908 </v>
   <v>       0.30040483       0.21311138      -0.03325908 </v>
   <v>      -0.30040483      -0.08729345       0.46674092 </v>
   <v>      -0.48449764      -0.41763405      -0.21740128 </v>
   <v>       0.35287377       0.36135113       0.21326215 </v>
   <v>      -0.36135113      -0.00847736       0.21326215 </v>
   <v>      -0.35287377       0.00847736      -0.28673785 </v>
   <v>       0.36135113       0.35287377      -0.28673785 </v>
  </varray>
 </structure>
 <varray name="primitive_index" >
  <v type="int" >        1 </v>
  <v type="int" >       14 </v>
  <v type="int" >       23 </v>
  <v type="int" >       25 </v>
  <v type="int" >        9 </v>
  <v type="int" >        3 </v>
  <v type="int" >        5 </v>
  <v type="int" >       11 </v>
  <v type="int" >       18 </v>
  <v type="int" >        6 </v>
  <v type="int" >       24 </v>
  <v type="int" >       20 </v>
  <v type="int" >       21 </v>
  <v type="int" >       19 </v>
  <v type="int" >       17 </v>
  <v type="int" >       12 </v>
  <v type="int" >       28 </v>
  <v type="int" >       26 </v>
  <v type="int" >        8 </v>
  <v type="int" >       13 </v>
  <v type="int" >       22 </v>
  <v type="int" >       15 </v>
  <v type="int" >       16 </v>
  <v type="int" >       27 </v>
  <v type="int" >        7 </v>
  <v type="int" >        2 </v>
  <v type="int" >        4 </v>
  <v type="int" >       10 </v>
 </varray>
 <kpoints>
  <generation param="Auto">
   <i name="subdivisionlength">     45.00000000 </i>
   <v type="int" name="divisions">       6        6        8 </v>
   <v name="usershift">      0.00000000       0.00000000       0.00000000 </v>
   <v name="genvec1">      0.16666667       0.00000000       0.00000000 </v>
   <v name="genvec2">      0.00000000       0.16666667       0.00000000 </v>
   <v name="genvec3">      0.00000000       0.00000000       0.12500000 </v>
   <v name="shift">      0.00000000       0.00000000       0.00000000 </v>
  </generation>
  <varray name="kpointlist" >
   <v>       0.00000000       0.00000000       0.00000000 </v>
   <v>       0.16666667       0.00000000       0.00000000 </v>
   <v>       0.33333333       0.00000000       0.00000000 </v>
   <v>       0.50000000       0.00000000       0.00000000 </v>
   <v>       0.16666667       0.16666667       0.00000000 </v>
   <v>       0.33333333       0.16666667       0.00000000 </v>
   <v>       0.33333333       0.33333333       0.00000000 </v>
   <v>       0.00000000       0.00000000       0.12500000 </v>
   <v>       0.16666667       0.00000000       0.12500000 </v>
   <v>       0.33333333       0.00000000       0.12500000 </v>
   <v>       0.50000000       0.00000000       0.12500000 </v>
   <v>       0.16666667       0.16666667       0.12500000 </v>
   <v>       0.33333333       0.16666667       0.12500000 </v>
   <v>       0.33333333       0.33333333       0.12500000 </v>
   <v>      -0.16666667       0.33333333       0.12500000 </v>
   <v>      -0.33333333       0.50000000       0.12500000 </v>
   <v>      -0.33333333      -0.33333333       0.12500000 </v>
   <v>       0.00000000       0.00000000       0.25000000 </v>
   <v>       0.16666667       0.00000000       0.25000000 </v>
   <v>       0.33333333       0.00000000       0.25000000 </v>
   <v>       0.50000000       0.00000000       0.25000000 </v>
   <v>       0.16666667       0.16666667       0.25000000 </v>
   <v>       0.33333333       0.16666667       0.25000000 </v>
   <v>       0.33333333       0.33333333       0.25000000 </v>
   <v>      -0.16666667       0.33333333       0.25000000 </v>
   <v>      -0.33333333       0.50000000       0.25000000 </v>
   <v>      -0.33333333      -0.33333333       0.25000000 </v>
   <v>       0.00000000       0.00000000       0.37500000 </v>
   <v>       0.16666667       0.00000000       0.37500000 </v>
   <v>       0.33333333       0.00000000       0.37500000 </v>
   <v>       0.50000000       0.00000000       0.37500000 </v>
   <v>       0.16666667       0.16666667       0.37500000 </v>
   <v>       0.33333333       0.16666667       0.37500000 </v>
   <v>       0.33333333       0.33333333       0.37500000 </v>
   <v>      -0.16666667       0.33333333       0.37500000 </v>
   <v>      -0.33333333       0.50000000       0.37500000 </v>
   <v>      -0.33333333      -0.33333333       0.37500000 </v>
   <v>       0.00000000       0.00000000       0.50000000 </v>
   <v>       0.16666667       0.00000000       0.50000000 </v>
   <v>       0.33333333       0.00000000       0.50000000 </v>
   <v>       0.50000000       0.00000000       0.50000000 </v>
   <v>       0.16666667       0.16666667       0.50000000 </v>
   <v>       0.33333333       0.16666667       0.50000000 </v>
   <v>       0.33333333       0.33333333       0.50000000 </v>
  </varray>
  <varray name="weights" >
   <v>       0.00347222 </v>
   <v>       0.02083333 </v>
   <v>       0.02083333 </v>
   <v>       0.01041667 </v>
   <v>       0.02083333 </v>
   <v>       0.04166667 </v>
   <v>       0.00694444 </v>
   <v>       0.00694444 </v>
   <v>       0.04166667 </v>
   <v>       0.04166667 </v>
   <v>       0.02083333 </v>
   <v>       0.02083333 </v>
   <v>       0.04166667 </v>
   <v>       0.00694444 </v>
   <v>       0.02083333 </v>
   <v>       0.04166667 </v>
   <v>       0.00694444 </v>
   <v>       0.00694444 </v>
   <v>       0.04166667 </v>
   <v>       0.04166667 </v>
   <v>       0.02083333 </v>
   <v>       0.02083333 </v>
   <v>       0.04166667 </v>
   <v>       0.00694444 </v>
   <v>       0.02083333 </v>
   <v>       0.04166667 </v>
   <v>       0.00694444 </v>
   <v>       0.00694444 </v>
   <v>       0.04166667 </v>
   <v>       0.04166667 </v>
   <v>       0.02083333 </v>
   <v>       0.02083333 </v>
   <v>       0.04166667 </v>
   <v>       0.00694444 </v>
   <v>       0.02083333 </v>
   <v>       0.04166667 </v>
   <v>       0.00694444 </v>
   <v>       0.00347222 </v>
   <v>       0.02083333 </v>
   <v>       0.02083333 </v>
   <v>       0.01041667 </v>
   <v>       0.02083333 </v>
   <v>       0.04166667 </v>
   <v>       0.00694444 </v>
  </varray>
 </kpoints>
 <parameters>
  <separator name="general" >
   <i type="string" name="SYSTEM">unknown system</i>
   <i type="logical" name="LCOMPAT"> F  </i>
  </separator>
  <separator name="electronic" >
   <i type="string" name="PREC">accura</i>
   <i name="ENMAX">    400.00000000</i>
   <i name="ENAUG">    627.11200000</i>
   <i name="EDIFF">      0.00010000</i>
   <i type="int" name="IALGO">    68</i>
   <i type="int" name="IWAVPR">    11</i>
   <i type="int" name="NBANDS">    80</i>
   <i name="NELECT">    124.00000000</i>
   <i type="int" name="TURBO">     0</i>
   <i type="int" name="IRESTART">     0</i>
   <i type="int" name="NREBOOT">     0</i>
   <i type="int" name="NMIN">     0</i>
   <i name="EREF">      0.00000000</i>
   <separator name="electronic smearing" >
    <i type="int" name="ISMEAR">     2</i>
    <i name="SIGMA">      0.10000000</i>
    <i name="KSPACING">      0.50000000</i>
    <i type="logical" name="KGAMMA"> T  </i>
   </separator>
   <separator name="electronic projectors" >
    <i type="logical" name="LREAL"> T  </i>
    <v name="ROPT">     -0.00025000     -0.00025000</v>
    <i type="int" name="LMAXPAW">  -100</i>
    <i type="int" name="LMAXMIX">     2</i>
    <i type="logical" name="NLSPLINE"> F  </i>
   </separator>
   <separator name="electronic startup" >
    <i type="int" name="ISTART">     0</i>
    <i type="int" name="ICHARG">     2</i>
    <i type="int" name="INIWAV">     1</i>
   </separator>
   <separator name="electronic spin" >
    <i type="int" name="ISPIN">     1</i>
    <i type="logical" name="LNONCOLLINEAR"> F  </i>
    <v name="MAGMOM">      1.00000000      1.00000000      1.00000000      1.00000000      1.00000000      1.00000000      1.00000000      1.00000000      1.00000000      1.00000000      1.00000000      1.00000000      1.00000000      1.00000000      1.00000000      1.00000000      1.00000000      1.00000000      1.00000000      1.00000000
      1.00000000      1.00000000      1.00000000      1.00000000      1.00000000      1.00000000      1.00000000      1.00000000</v>
    <i name="NUPDOWN">     -1.00000000</i>
    <i type="logical" name="LSORBIT"> F  </i>
    <v name="SAXIS">      0.00000000      0.00000000      1.00000000</v>
    <i type="logical" name="LSPIRAL"> F  </i>
    <v name="QSPIRAL">      0.00000000      0.00000000      0.00000000</v>
    <i type="logical" name="LZEROZ"> F  </i>
   </separator>
   <separator name="electronic exchange-correlation" >
    <i type="logical" name="LASPH"> F  </i>
    <i type="logical" name="LMETAGGA"> F  </i>
   </separator>
   <separator name="electronic convergence" >
    <i type="int" name="NELM">    60</i>
    <i type="int" name="NELMDL">    -5</i>
    <i type="int" name="NELMIN">     2</i>
    <i name="ENINI">    400.00000000</i>
    <separator name="electronic convergence detail" >
     <i type="logical" name="LDIAG"> T  </i>
     <i type="logical" name="LSUBROT"> F  </i>
     <i name="WEIMIN">      0.00100000</i>
     <i name="EBREAK">      0.00000031</i>
     <i name="DEPER">      0.30000000</i>
     <i type="int" name="NRMM">     4</i>
     <i name="TIME">      0.40000000</i>
    </separator>
   </separator>
   <separator name="electronic mixer" >
    <i name="AMIX">      0.40000000</i>
    <i name="BMIX">      1.00000000</i>
    <i name="AMIN">      0.10000000</i>
    <i name="AMIX_MAG">      1.60000000</i>
    <i name="BMIX_MAG">      1.00000000</i>
    <separator name="electronic mixer details" >
     <i type="int" name="IMIX">     4</i>
     <i type="logical" name="MIXFIRST"> F  </i>
     <i type="int" name="MAXMIX">   -45</i>
     <i name="WC">    100.00000000</i>
     <i type="int" name="INIMIX">     1</i>
     <i type="int" name="MIXPRE">     1</i>
     <i type="int" name="MREMOVE">     5</i>
    </separator>
   </separator>
   <separator name="electronic dipolcorrection" >
    <i type="logical" name="LDIPOL"> F  </i>
    <i type="logical" name="LMONO"> F  </i>
    <i type="int" name="IDIPOL">     0</i>
    <i name="EPSILON">      1.00000000</i>
    <v name="DIPOL">   -100.00000000   -100.00000000   -100.00000000</v>
    <i name="EFIELD">      0.00000000</i>
   </separator>
  </separator>
  <separator name="grids" >
   <i type="int" name="NGX">    60</i>
   <i type="int" name="NGY">    60</i>
   <i type="int" name="NGZ">    40</i>
   <i type="int" name="NGXF">   120</i>
   <i type="int" name="NGYF">   120</i>
   <i type="int" name="NGZF">    80</i>
   <i type="logical" name="ADDGRID"> F  </i>
  </separator>
  <separator name="ionic" >
   <i type="int" name="NSW">   100</i>
   <i type="int" name="IBRION">     2</i>
   <i type="int" name="MDALGO">     0</i>
   <i type="int" name="ISIF">     2</i>
   <i name="PSTRESS">      0.00000000</i>
   <i name="EDIFFG">      0.00100000</i>
   <i type="int" name="NFREE">     1</i>
   <i name="POTIM">      0.50000000</i>
   <i name="SMASS">     -3.00000000</i>
   <i name="SCALEE">      1.00000000</i>
  </separator>
  <separator name="ionic md" >
   <i name="TEBEG">      0.00010000</i>
   <i name="TEEND">      0.00010000</i>
   <i type="int" name="NBLOCK">     1</i>
   <i type="int" name="KBLOCK">   100</i>
   <i type="int" name="NPACO">   256</i>
   <i name="APACO">     16.00000000</i>
  </separator>
  <separator name="symmetry" >
   <i type="int" name="ISYM">     2</i>
   <i name="SYMPREC">      0.00001000</i>
  </separator>
  <separator name="dos" >
   <i type="int" name="LORBIT">     0</i>
   <v name="RWIGS">     -1.00000000     -1.00000000</v>
   <i type="int" name="NEDOS">   301</i>
   <i name="EMIN">     10.00000000</i>
   <i name="EMAX">    -10.00000000</i>
   <i name="EFERMI">      0.00000000</i>
  </separator>
  <separator name="writing" >
   <i type="int" name="NWRITE">     2</i>
   <i type="logical" name="LWAVE"> F  </i>
   <i type="logical" name="LDOWNSAMPLE"> F  </i>
   <i type="logical" name="LCHARG"> F  </i>
   <i type="logical" name="LPARD"> F  </i>
   <i type="logical" name="LVTOT"> F  </i>
   <i type="logical" name="LVHAR"> F  </i>
   <i type="logical" name="LELF"> F  </i>
   <i type="logical" name="LOPTICS"> F  </i>
   <v name="STM">      0.00000000      0.00000000      0.00000000      0.00000000      0.00000000      0.00000000      0.00000000</v>
  </separator>
  <separator name="performance" >
   <i type="int" name="NPAR">     4</i>
   <i type="int" name="NSIM">     4</i>
   <i type="int" name="NBLK">    -1</i>
   <i type="logical" name="LPLANE"> T  </i>
   <i type="logical" name="LSCALAPACK"> F  </i>
   <i type="logical" name="LSCAAWARE"> F  </i>
   <i type="logical" name="LSCALU"> F  </i>
   <i type="logical" name="LASYNC"> F  </i>
   <i type="logical" name="LORBITALREAL"> F  </i>
  </separator>
  <separator name="miscellaneous" >
   <i type="int" name="IDIOT">     3</i>
   <i type="int" name="ISPECIAL">     0</i>
   <i type="logical" name="LMUSIC"> F  </i>
   <v name="POMASS">     14.00100000     28.08500000</v>
   <v name="DARWINR">      0.00000000      0.00000000</v>
   <v name="DARWINV">      1.00000000      1.00000000</v>
   <i type="logical" name="LCORR"> T  </i>
  </separator>
  <i type="logical" name="GGA_COMPAT"> T  </i>
  <i type="logical" name="LBERRY"> F  </i>
  <i type="int" name="ICORELEVEL">     0</i>
  <i type="logical" name="LDAU"> F  </i>
  <i type="int" name="I_CONSTRAINED_M">     0</i>
  <separator name="electronic exchange-correlation" >
   <i type="string" name="GGA">--</i>
   <i type="int" name="VOSKOWN">     0</i>
   <i type="logical" name="LHFCALC"> F  </i>
   <i type="string" name="PRECFOCK"></i>
   <i type="logical" name="LSYMGRAD"> F  </i>
   <i type="logical" name="LHFONE"> F  </i>
   <i type="logical" name="LRHFCALC"> F  </i>
   <i type="logical" name="LTHOMAS"> F  </i>
   <i type="logical" name="LMODELHF"> F  </i>
   <i name="ENCUT4O">     -1.00000000</i>
   <i type="int" name="EXXOEP">     0</i>
   <i type="int" name="FOURORBIT">     0</i>
   <i name="AEXX">      0.00000000</i>
   <i name="HFALPHA">      0.00000000</i>
   <i name="MCALPHA">      0.00000000</i>
   <i name="ALDAX">      1.00000000</i>
   <i name="AGGAX">      1.00000000</i>
   <i name="ALDAC">      1.00000000</i>
   <i name="AGGAC">      1.00000000</i>
   <i type="int" name="NKREDX">     1</i>
   <i type="int" name="NKREDY">     1</i>
   <i type="int" name="NKREDZ">     1</i>
   <i type="logical" name="SHIFTRED"> F  </i>
   <i type="logical" name="ODDONLY"> F  </i>
   <i type="logical" name="EVENONLY"> F  </i>
   <i type="int" name="LMAXFOCK">     0</i>
   <i type="int" name="NMAXFOCKAE">     0</i>
   <i type="logical" name="LFOCKAEDFT"> F  </i>
   <i name="HFSCREEN">      0.00000000</i>
   <i name="HFSCREENC">      0.00000000</i>
   <i type="int" name="NBANDSGWLOW">     0</i>
  </separator>
  <separator name="vdW DFT" >
   <i type="logical" name="LUSE_VDW"> F  </i>
   <i name="Zab_VDW">     -0.84910000</i>
   <i name="PARAM1">      0.12340000</i>
   <i name="PARAM2">      1.00000000</i>
   <i name="PARAM3">      0.00000000</i>
  </separator>
  <separator name="model GW" >
   <i type="int" name="MODEL_GW">     0</i>
   <i name="MODEL_EPS0">      8.58255550</i>
   <i name="MODEL_ALPHA">      1.00000000</i>
  </separator>
  <separator name="linear response parameters" >
   <i type="logical" name="LEPSILON"> F  </i>
   <i type="logical" name="LRPA"> F  </i>
   <i type="logical" name="LNABLA"> F  </i>
   <i type="logical" name="LVEL"> F  </i>
   <i type="int" name="KINTER">     0</i>
   <i name="CSHIFT">      0.10000000</i>
   <i name="OMEGAMAX">     -1.00000000</i>
   <i name="DEG_THRESHOLD">      0.00200000</i>
   <i name="RTIME">     -0.10000000</i>
   <i name="WPLASMAI">      0.00000000</i>
   <v name="DFIELD">      0.00000000      0.00000000      0.00000000</v>
   <v name="WPLASMA">      0.00000000      0.00000000      0.00000000      0.00000000      0.00000000      0.00000000      0.00000000      0.00000000      0.00000000</v>
  </separator>
  <separator name="orbital magnetization" >
   <i type="logical" name="NUCIND"> F  </i>
   <v name="MAGPOS">      0.00000000      0.00000000      0.00000000</v>
   <i type="logical" name="LNICSALL"> T  </i>
   <i type="logical" name="ORBITALMAG"> F  </i>
   <i type="logical" name="LMAGBLOCH"> F  </i>
   <i type="logical" name="LCHIMAG"> F  </i>
   <i type="logical" name="LGAUGE"> T  </i>
   <i type="int" name="MAGATOM">     0</i>
   <v name="MAGDIPOL">      0.00000000      0.00000000      0.00000000</v>
   <v name="AVECCONST">      0.00000000      0.00000000      0.00000000</v>
  </separator>
  <separator name="response functions" >
   <i type="logical" name="LADDER"> F  </i>
   <i type="logical" name="LRPAFORCE"> F  </i>
   <i type="logical" name="LFXC"> F  </i>
   <i type="logical" name="LHARTREE"> T  </i>
   <i type="int" name="IBSE">     0</i>
   <v type="int" name="KPOINT">    -1     0     0     0</v>
   <i type="logical" name="LTCTE"> F  </i>
   <i type="logical" name="LTETE"> F  </i>
   <i type="logical" name="LTRIPLET"> F  </i>
   <i type="logical" name="LFXCEPS"> F  </i>
   <i type="logical" name="LFXHEG"> F  </i>
   <i type="int" name="NATURALO">     2</i>
   <i type="logical" name="L2ORDER"> F  </i>
   <i type="logical" name="LMP2LT"> F  </i>
   <i type="logical" name="LUSEW"> F  </i>
   <i name="ENCUTGW">     -2.00000000</i>
   <i name="ENCUTGWSOFT">     -2.00000000</i>
   <i name="ENCUTLF">     -1.00000000</i>
   <i type="int" name="LMAXMP2">    -1</i>
   <i name="SCISSOR">      0.00000000</i>
   <i type="int" name="NOMEGA">     0</i>
   <i type="int" name="NOMEGAR">     0</i>
   <i type="int" name="NBANDSGW">    -1</i>
   <i type="int" name="NBANDSO">    -1</i>
   <i type="int" name="NBANDSV">    -1</i>
   <i type="int" name="NELM">     1</i>
   <i type="int" name="NELMHF">     1</i>
   <i type="int" name="DIM">     3</i>
   <i type="int" name="ANTIRES">     0</i>
   <i name="OMEGAMAX">    -30.00000000</i>
   <i name="OMEGAMIN">    -30.00000000</i>
   <i name="OMEGATL">   -200.00000000</i>
   <i type="int" name="OMEGAGRID">   140</i>
   <i name="CSHIFT">     -0.10000000</i>
   <i type="logical" name="SELFENERGY"> F  </i>
   <i type="logical" name="LSPECTRAL"> F  </i>
   <i type="logical" name="LSPECTRALGW"> F  </i>
   <i type="logical" name="LSINGLES"> F  </i>
   <i type="logical" name="LFERMIGW"> F  </i>
   <i type="logical" name="ODDONLYGW"> F  </i>
   <i type="logical" name="EVENONLYGW"> F  </i>
   <i type="int" name="NKREDLFX">     1</i>
   <i type="int" name="NKREDLFY">     1</i>
   <i type="int" name="NKREDLFZ">     1</i>
   <i type="int" name="MAXMEM">  2800</i>
   <i type="int" name="TELESCOPE">     0</i>
   <i type="int" name="TAUPAR">     1</i>
   <i type="int" name="OMEGAPAR">    -1</i>
   <i name="LAMBDA">      1.00000000</i>
  </separator>
  <separator name="External order field" >
   <i name="OFIELD_KAPPA">      0.00000000</i>
   <v name="OFIELD_K">      0.00000000      0.00000000      0.00000000</v>
   <i name="OFIELD_Q6_NEAR">      0.00000000</i>
   <i name="OFIELD_Q6_FAR">      0.00000000</i>
   <i name="OFIELD_A">      0.00000000</i>
  </separator>
 </parameters>
 <atominfo>
  <atoms>      28 </atoms>
  <types>       2 </types>
  <array name="atoms" >
   <dimension dim="1">ion</dimension>
   <field type="string">element</field>
   <field type="int">atomtype</field>
   <set>
    <rc><c>N </c><c>   1</c></rc>
    <rc><c>N </c><c>   1</c></rc>
    <rc><c>N </c><c>   1</c></rc>
    <rc><c>N </c><c>   1</c></rc>
    <rc><c>N </c><c>   1</c></rc>
    <rc><c>N </c><c>   1</c></rc>
    <rc><c>N </c><c>   1</c></rc>
    <rc><c>N </c><c>   1</c></rc>
    <rc><c>N </c><c>   1</c></rc>
    <rc><c>N </c><c>   1</c></rc>
    <rc><c>N </c><c>   1</c></rc>
    <rc><c>N </c><c>   1</c></rc>
    <rc><c>Si</c><c>   2</c></rc>
    <rc><c>Si</c><c>   2</c></rc>
    <rc><c>Si</c><c>   2</c></rc>
    <rc><c>Si</c><c>   2</c></rc>
    <rc><c>Si</c><c>   2</c></rc>
    <rc><c>Si</c><c>   2</c></rc>
    <rc><c>Si</c><c>   2</c></rc>
    <rc><c>Si</c><c>   2</c></rc>
    <rc><c>Si</c><c>   2</c></rc>
    <rc><c>Si</c><c>   2</c></rc>
    <rc><c>Si</c><c>   2</c></rc>
    <rc><c>Si</c><c>   2</c></rc>
    <rc><c>Si</c><c>   2</c></rc>
    <rc><c>Si</c><c>   2</c></rc>
    <rc><c>Si</c><c>   2</c></rc>
    <rc><c>Si</c><c>   2</c></rc>
   </set>
  </array>
  <array name="atomtypes" >
   <dimension dim="1">type</dimension>
   <field type="int">atomspertype</field>
   <field type="string">element</field>
   <field>mass</field>
   <field>valence</field>
   <field type="string">pseudopotential</field>
   <set>
    <rc><c>  12</c><c>N </c><c>     14.00100000</c><c>      5.00000000</c><c>  PAW_PBE N 08Apr2002                   </c></rc>
    <rc><c>  16</c><c>Si</c><c>     28.08500000</c><c>      4.00000000</c><c>  PAW_PBE Si 05Jan2001                  </c></rc>
   </set>
  </array>
 </atominfo>
 <structure name="initialpos" >
  <crystal>
   <varray name="basis" >
    <v>       4.48509239      -7.76840789       0.00000000 </v>
    <v>       4.48509239       7.76840789       0.00000000 </v>
    <v>       0.00000000       0.00000000       5.74764574 </v>
   </varray>
   <i name="volume">    400.51925684 </i>
   <varray name="rec_basis" >
    <v>       0.11148042      -0.06436325       0.00000000 </v>
    <v>       0.11148042       0.06436325       0.00000000 </v>
    <v>       0.00000000       0.00000000       0.17398428 </v>
   </varray>
  </crystal>
  <varray name="positions" >
   <v>       0.00847736       0.64712623       0.21326215 </v>
   <v>       0.63864887       0.99152264       0.21326215 </v>
   <v>       0.91417805       0.32157747       0.99187268 </v>
   <v>       0.64712623       0.00847736       0.71326215 </v>
   <v>       0.08582195       0.40739942       0.49187268 </v>
   <v>       0.32157747       0.91417805       0.49187268 </v>
   <v>       0.35287377       0.36135113       0.21326215 </v>
   <v>       0.59260058       0.67842253       0.49187268 </v>
   <v>       0.99152264       0.63864887       0.71326215 </v>
   <v>       0.36135113       0.35287377       0.71326215 </v>
   <v>       0.67842253       0.59260058       0.99187268 </v>
   <v>       0.40739942       0.08582195       0.99187268 </v>
   <v>       0.21311138       0.30040483       0.46674092 </v>
   <v>       0.08729345       0.78688862       0.46674092 </v>
   <v>       0.30040483       0.21311138       0.96674092 </v>
   <v>       0.69959517       0.91270655       0.46674092 </v>
   <v>       0.00000000       0.00000000       0.95692726 </v>
   <v>       0.06686359       0.48449764       0.78259872 </v>
   <v>       0.00000000       0.00000000       0.45692726 </v>
   <v>       0.66666667       0.33333333       0.47577702 </v>
   <v>       0.58236595       0.51550236       0.28259872 </v>
   <v>       0.78688862       0.08729345       0.96674092 </v>
   <v>       0.91270655       0.69959517       0.96674092 </v>
   <v>       0.33333333       0.66666667       0.97577702 </v>
   <v>       0.93313641       0.41763405       0.28259872 </v>
   <v>       0.41763405       0.93313641       0.78259872 </v>
   <v>       0.51550236       0.58236595       0.78259872 </v>
   <v>       0.48449764       0.06686359       0.28259872 </v>
  </varray>
 </structure>
 <calculation>
  <scstep>
   <time name="dav">    8.96    8.96</time>
   <time name="total">    9.03    9.03</time>
   <energy>
    <i name="alphaZ">    121.74724609 </i>
    <i name="ewald">  -4039.07664167 </i>
    <i name="hartreedc">  -1136.60071612 </i>
    <i name="XCdc">     89.80287030 </i>
    <i name="pawpsdc">   3869.17357318 </i>
    <i name="pawaedc">  -3601.97287308 </i>
    <i name="eentropy">     -0.00133823 </i>
    <i name="bandstr">    339.39274860 </i>
    <i name="atom">   4822.75196862 </i>
    <i name="e_fr_energy">    465.21683768 </i>
    <i name="e_wo_entrp">    465.21817591 </i>
    <i name="e_0_energy">    465.21717224 </i>
   </energy>
  </scstep>
  <scstep>
   <time name="dav">   10.66   10.66</time>
   <time name="total">   10.66   10.66</time>
   <energy>
    <i name="e_fr_energy">   -163.41448345 </i>
    <i name="e_wo_entrp">   -163.41503429 </i>
    <i name="e_0_energy">   -163.41462116 </i>
   </energy>
  </scstep>
  <scstep>
   <time name="dav">   25.71   25.71</time>
   <time name="total">   25.71   25.71</time>
   <energy>
    <i name="e_fr_energy">   -219.80135417 </i>
    <i name="e_wo_entrp">   -219.77918202 </i>
    <i name="e_0_energy">   -219.79581113 </i>
   </energy>
  </scstep>
  <scstep>
   <time name="dav">   26.77   26.77</time>
   <time name="total">   26.79   26.78</time>
   <energy>
    <i name="e_fr_energy">   -221.37394470 </i>
    <i name="e_wo_entrp">   -221.35038873 </i>
    <i name="e_0_energy">   -221.36805571 </i>
   </energy>
  </scstep>
  <scstep>
   <time name="dav">   17.34   17.35</time>
   <time name="total">   17.76   17.78</time>
   <energy>
    <i name="e_fr_energy">   -221.41622917 </i>
    <i name="e_wo_entrp">   -221.39274324 </i>
    <i name="e_0_energy">   -221.41035769 </i>
   </energy>
  </scstep>
  <scstep>
   <time name="diag">    1.09    1.09</time>
   <time name="diis">    5.80    5.79</time>
   <time name="orth">    0.10    0.10</time>
   <time name="total">    7.46    7.46</time>
   <energy>
    <i name="e_fr_energy">   -200.20196856 </i>
    <i name="e_wo_entrp">   -200.20051417 </i>
    <i name="e_0_energy">   -200.20160497 </i>
   </energy>
  </scstep>
  <scstep>
   <time name="diag">    1.09    1.09</time>
   <time name="diis">    6.25    6.25</time>
   <time name="orth">    0.11    0.11</time>
   <time name="total">    7.91    7.90</time>
   <energy>
    <i name="e_fr_energy">   -199.85249219 </i>
    <i name="e_wo_entrp">   -199.84241719 </i>
    <i name="e_0_energy">   -199.84997344 </i>
   </energy>
  </scstep>
  <scstep>
   <time name="diag">    1.09    1.09</time>
   <time name="diis">    5.82    5.82</time>
   <time name="orth">    0.10    0.10</time>
   <time name="total">    7.46    7.47</time>
   <energy>
    <i name="e_fr_energy">   -199.75318013 </i>
    <i name="e_wo_entrp">   -199.74580402 </i>
    <i name="e_0_energy">   -199.75133610 </i>
   </energy>
  </scstep>
  <scstep>
   <time name="diag">    1.09    1.09</time>
   <time name="diis">    5.90    5.91</time>
   <time name="orth">    0.11    0.11</time>
   <time name="total">    7.56    7.57</time>
   <energy>
    <i name="e_fr_energy">   -199.66793502 </i>
    <i name="e_wo_entrp">   -199.65783615 </i>
    <i name="e_0_energy">   -199.66541030 </i>
   </energy>
  </scstep>
  <scstep>
   <time name="diag">    1.09    1.09</time>
   <time name="diis">    5.84    5.85</time>
   <time name="orth">    0.11    0.11</time>
   <time name="total">    7.50    7.51</time>
   <energy>
    <i name="e_fr_energy">   -199.65376128 </i>
    <i name="e_wo_entrp">   -199.64601606 </i>
    <i name="e_0_energy">   -199.65182498 </i>
   </energy>
  </scstep>
  <scstep>
   <time name="diag">    1.08    1.09</time>
   <time name="diis">    5.45    6.68</time>
   <time name="orth">    1.36    2.67</time>
   <time name="total">    9.15   12.84</time>
   <energy>
    <i name="e_fr_energy">   -199.65097568 </i>
    <i name="e_wo_entrp">   -199.64123257 </i>
    <i name="e_0_energy">   -199.64853990 </i>
   </energy>
  </scstep>
  <scstep>
   <time name="diag">    2.61    4.53</time>
   <time name="diis">    5.66    5.67</time>
   <time name="orth">    0.10    0.10</time>
   <time name="total">    9.55   11.94</time>
   <energy>
    <i name="e_fr_energy">   -199.65003335 </i>
    <i name="e_wo_entrp">   -199.64143690 </i>
    <i name="e_0_energy">   -199.64788424 </i>
   </energy>
  </scstep>
  <scstep>
   <time name="diag">    1.10    1.10</time>
   <time name="diis">    5.03    5.04</time>
   <time name="orth">    0.10    0.10</time>
   <time name="total">    6.69    6.70</time>
   <energy>
    <i name="e_fr_energy">   -199.64986388 </i>
    <i name="e_wo_entrp">   -199.64048197 </i>
    <i name="e_0_energy">   -199.64751840 </i>
   </energy>
  </scstep>
  <scstep>
   <time name="diag">    1.10    1.10</time>
   <time name="diis">    3.70    3.70</time>
   <time name="orth">    0.11    0.11</time>
   <time name="total">    4.96    4.97</time>
   <energy>
    <i name="alphaZ">    121.74724609 </i>
    <i name="ewald">  -4039.07664167 </i>
    <i name="hartreedc">  -1331.62448513 </i>
    <i name="XCdc">    104.95626501 </i>
    <i name="pawpsdc">  12882.77962160 </i>
    <i name="pawaedc"> -12618.63124575 </i>
    <i name="eentropy">     -0.00921772 </i>
    <i name="bandstr">   -142.54333329 </i>
    <i name="atom">   4822.75196862 </i>
    <i name="e_fr_energy">   -199.64982225 </i>
    <i name="e_wo_entrp">   -199.64060453 </i>
    <i name="e_0_energy">   -199.64751782 </i>
   </energy>
  </scstep>
  <structure>
   <crystal>
    <varray name="basis" >
     <v>       4.48509239      -7.76840789       0.00000000 </v>
     <v>       4.48509239       7.76840789       0.00000000 </v>
     <v>       0.00000000       0.00000000       5.74764574 </v>
    </varray>
    <i name="volume">    400.51925684 </i>
    <varray name="rec_basis" >
     <v>       0.11148042      -0.06436325       0.00000000 </v>
     <v>       0.11148042       0.06436325       0.00000000 </v>
     <v>       0.00000000       0.00000000       0.17398428 </v>
    </varray>
   </crystal>
   <varray name="positions" >
    <v>       0.00847736       0.64712623       0.21326215 </v>
    <v>       0.63864887       0.99152264       0.21326215 </v>
    <v>       0.91417805       0.32157747       0.99187268 </v>
    <v>       0.64712623       0.00847736       0.71326215 </v>
    <v>       0.08582195       0.40739942       0.49187268 </v>
    <v>       0.32157747       0.91417805       0.49187268 </v>
    <v>       0.35287377       0.36135113       0.21326215 </v>
    <v>       0.59260058       0.67842253       0.49187268 </v>
    <v>       0.99152264       0.63864887       0.71326215 </v>
    <v>       0.36135113       0.35287377       0.71326215 </v>
    <v>       0.67842253       0.59260058       0.99187268 </v>
    <v>       0.40739942       0.08582195       0.99187268 </v>
    <v>       0.21311138       0.30040483       0.46674092 </v>
    <v>       0.08729345       0.78688862       0.46674092 </v>
    <v>       0.30040483       0.21311138       0.96674092 </v>
    <v>       0.69959517       0.91270655       0.46674092 </v>
    <v>       0.00000000       0.00000000       0.95692726 </v>
    <v>       0.06686359       0.48449764       0.78259872 </v>
    <v>       0.00000000       0.00000000       0.45692726 </v>
    <v>       0.66666667       0.33333333       0.47577702 </v>
    <v>       0.58236595       0.51550236       0.28259872 </v>
    <v>       0.78688862       0.08729345       0.96674092 </v>
    <v>       0.91270655       0.69959517       0.96674092 </v>
    <v>       0.33333333       0.66666667       0.97577702 </v>
    <v>       0.93313641       0.41763405       0.28259872 </v>
    <v>       0.41763405       0.93313641       0.78259872 </v>
    <v>       0.51550236       0.58236595       0.78259872 </v>
    <v>       0.48449764       0.06686359       0.28259872 </v>
   </varray>
  </structure>
  <varray name="forces" >
   <v>      -0.25547513       0.37475288       0.30928797 </v>
   <v>       0.45228308       0.03387151       0.30928797 </v>
   <v>       0.19291291      -0.08451474       0.30706963 </v>
   <v>      -0.25547513      -0.37475288       0.30928797 </v>
   <v>      -0.16964836       0.12481012       0.30706963 </v>
   <v>       0.19291291       0.08451474       0.30706963 </v>
   <v>      -0.19680795      -0.40862439       0.30928797 </v>
   <v>      -0.02326455      -0.20932485       0.30706963 </v>
   <v>       0.45228308      -0.03387151       0.30928797 </v>
   <v>      -0.19680795       0.40862439       0.30928797 </v>
   <v>      -0.02326455       0.20932485       0.30706963 </v>
   <v>      -0.16964836      -0.12481012       0.30706963 </v>
   <v>       0.64139248       0.11075265       0.03416595 </v>
   <v>      -0.22478163      -0.61083851       0.03416595 </v>
   <v>       0.64139248      -0.11075265       0.03416595 </v>
   <v>      -0.41661085       0.50008585       0.03416595 </v>
   <v>      -0.00000000      -0.00000000       0.07868144 </v>
   <v>      -0.22969458       0.34382663      -0.34154734 </v>
   <v>      -0.00000000      -0.00000000       0.07868144 </v>
   <v>      -0.00000000      -0.00000000      -1.00561006 </v>
   <v>      -0.18291531       0.37083466      -0.34154734 </v>
   <v>      -0.22478163       0.61083851       0.03416595 </v>
   <v>      -0.41661085      -0.50008585       0.03416595 </v>
   <v>      -0.00000000      -0.00000000      -1.00561006 </v>
   <v>       0.41260989      -0.02700803      -0.34154734 </v>
   <v>       0.41260989       0.02700803      -0.34154734 </v>
   <v>      -0.18291531      -0.37083466      -0.34154734 </v>
   <v>      -0.22969458      -0.34382663      -0.34154734 </v>
  </varray>
  <varray name="stress" >
   <v>    -155.83280771       0.00000000       0.00000000 </v>
   <v>      -0.00000000    -155.83280771      -0.00000000 </v>
   <v>       0.00000000       0.00000000    -214.30542012 </v>
  </varray>
  <energy>
   <i name="e_fr_energy">   -199.64982225 </i>
   <i name="e_wo_entrp">   -199.64751782 </i>
   <i name="e_0_energy">     -0.00921772 </i>
  </energy>
  <time name="totalsc">  171.33  177.47</time>
 </calculation>
 <calculation>
  <scstep>
   <time name="dav">    9.31    9.31</time>
   <time name="total">    9.76    9.77</time>
   <energy>
    <i name="alphaZ">    121.74724609 </i>
    <i name="ewald">  -4010.94895967 </i>
    <i name="hartreedc">  -1351.24973550 </i>
    <i name="XCdc">    105.45099410 </i>
    <i name="pawpsdc">  12885.73754715 </i>
    <i name="pawaedc"> -12621.58899799 </i>
    <i name="eentropy">     -0.01084753 </i>
    <i name="bandstr">   -151.77213964 </i>
    <i name="atom">   4822.75196862 </i>
    <i name="e_fr_energy">   -199.88292437 </i>
    <i name="e_wo_entrp">   -199.87207683 </i>
    <i name="e_0_energy">   -199.88021248 </i>
   </energy>
  </scstep>
  <scstep>
   <time name="diag">    1.10    1.10</time>
   <time name="diis">    5.87    5.87</time>
   <time name="orth">    0.11    0.11</time>
   <time name="total">    7.54    7.54</time>
   <energy>
    <i name="e_fr_energy">   -199.93253416 </i>
    <i name="e_wo_entrp">   -199.92190942 </i>
    <i name="e_0_energy">   -199.92987798 </i>
   </energy>
  </scstep>
  <scstep>
   <time name="diag">    1.09    1.10</time>
   <time name="diis">    6.05    6.05</time>
   <time name="orth">    0.10    0.10</time>
   <time name="total">    7.71    7.71</time>
   <energy>
    <i name="e_fr_energy">   -199.92507753 </i>
    <i name="e_wo_entrp">   -199.91445813 </i>
    <i name="e_0_energy">   -199.92242268 </i>
   </energy>
  </scstep>
  <scstep>
   <time name="diag">    1.09    1.09</time>
   <time name="diis">    5.83    5.84</time>
   <time name="orth">    0.10    0.10</time>
   <time name="total">    7.49    7.50</time>
   <energy>
    <i name="e_fr_energy">   -199.92279108 </i>
    <i name="e_wo_entrp">   -199.91212425 </i>
    <i name="e_0_energy">   -199.92012437 </i>
   </energy>
  </scstep>
  <scstep>
   <time name="diag">    1.09    1.09</time>
   <time name="diis">    5.68    5.68</time>
   <time name="orth">    0.10    0.10</time>
   <time name="total">    6.94    6.94</time>
   <energy>
    <i name="alphaZ">    121.74724609 </i>
    <i name="ewald">  -4010.94895967 </i>
    <i name="hartreedc">  -1353.94831672 </i>
    <i name="XCdc">    105.66919325 </i>
    <i name="pawpsdc">  13159.90634068 </i>
    <i name="pawaedc"> -12895.86589174 </i>
    <i name="eentropy">     -0.01067638 </i>
    <i name="bandstr">   -149.22370478 </i>
    <i name="atom">   4822.75196862 </i>
    <i name="e_fr_energy">   -199.92280065 </i>
    <i name="e_wo_entrp">   -199.91212427 </i>
    <i name="e_0_energy">   -199.92013155 </i>
   </energy>
  </scstep>
  <structure>
   <crystal>
    <varray name="basis" >
     <v>       4.48509239      -7.76840789       0.00000000 </v>
     <v>       4.48509239       7.76840789       0.00000000 </v>
     <v>       0.00000000       0.00000000       5.74764574 </v>
    </varray>
    <i name="volume">    400.51925684 </i>
    <varray name="rec_basis" >
     <v>       0.11148042      -0.06436325       0.00000000 </v>
     <v>       0.11148042       0.06436325       0.00000000 </v>
     <v>       0.00000000       0.00000000       0.17398428 </v>
    </varray>
   </crystal>
   <varray name="positions" >
    <v>       0.00593976       0.64691589       0.21585815 </v>
    <v>       0.64097613       0.99406024       0.21585815 </v>
    <v>       0.91547798       0.32235255       0.99445006 </v>
    <v>       0.64691589       0.00593976       0.71585815 </v>
    <v>       0.08452202       0.40687457       0.49445006 </v>
    <v>       0.32235255       0.91547798       0.49445006 </v>
    <v>       0.35308411       0.35902387       0.21585815 </v>
    <v>       0.59312543       0.67764745       0.49445006 </v>
    <v>       0.99406024       0.64097613       0.71585815 </v>
    <v>       0.35902387       0.35308411       0.71585815 </v>
    <v>       0.67764745       0.59312543       0.99445006 </v>
    <v>       0.40687457       0.08452202       0.99445006 </v>
    <v>       0.21621697       0.30419820       0.46702769 </v>
    <v>       0.08798123       0.78378303       0.46702769 </v>
    <v>       0.30419820       0.21621697       0.96702769 </v>
    <v>       0.69580180       0.91201877       0.46702769 </v>
    <v>      -0.00000000      -0.00000000       0.95758767 </v>
    <v>       0.06456067       0.48432991       0.77973196 </v>
    <v>      -0.00000000      -0.00000000       0.45758767 </v>
    <v>       0.66666667       0.33333333       0.46733646 </v>
    <v>       0.58023075       0.51567009       0.27973196 </v>
    <v>       0.78378303       0.08798123       0.96702769 </v>
    <v>       0.91201877       0.69580180       0.96702769 </v>
    <v>       0.33333333       0.66666667       0.96733646 </v>
    <v>       0.93543933       0.41976925       0.27973196 </v>
    <v>       0.41976925       0.93543933       0.77973196 </v>
    <v>       0.51567009       0.58023075       0.77973196 </v>
    <v>       0.48432991       0.06456067       0.27973196 </v>
   </varray>
  </structure>
  <varray name="forces" >
   <v>      -0.22509213       0.04105737       0.16855086 </v>
   <v>       0.14810279       0.17440682       0.16855086 </v>
   <v>       0.11338739      -0.00452065      -0.06146157 </v>
   <v>      -0.22509213      -0.04105737       0.16855086 </v>
   <v>      -0.06060869       0.09593604      -0.06146157 </v>
   <v>       0.11338739       0.00452065      -0.06146157 </v>
   <v>       0.07698934      -0.21546419       0.16855086 </v>
   <v>      -0.05277870      -0.10045668      -0.06146157 </v>
   <v>       0.14810279      -0.17440682       0.16855086 </v>
   <v>       0.07698934       0.21546419       0.16855086 </v>
   <v>      -0.05277870       0.10045668      -0.06146157 </v>
   <v>      -0.06060869      -0.09593604      -0.06146157 </v>
   <v>      -0.14163164       0.10799342       0.15505896 </v>
   <v>       0.16434087       0.06865989       0.15505896 </v>
   <v>      -0.14163164      -0.10799342       0.15505896 </v>
   <v>      -0.02270922      -0.17665331       0.15505896 </v>
   <v>       0.00000000       0.00000000       0.08469953 </v>
   <v>      -0.07700502       0.04875866       0.00105223 </v>
   <v>       0.00000000       0.00000000       0.08469953 </v>
   <v>       0.00000000       0.00000000      -0.87430096 </v>
   <v>      -0.00372373       0.09106763       0.00105223 </v>
   <v>       0.16434087      -0.06865989       0.15505896 </v>
   <v>      -0.02270922       0.17665331       0.15505896 </v>
   <v>       0.00000000       0.00000000      -0.87430096 </v>
   <v>       0.08072875      -0.04230897       0.00105223 </v>
   <v>       0.08072875       0.04230897       0.00105223 </v>
   <v>      -0.00372373      -0.09106763       0.00105223 </v>
   <v>      -0.07700502      -0.04875866       0.00105223 </v>
  </varray>
  <varray name="stress" >
   <v>    -149.21816785       0.00000000       0.00000000 </v>
   <v>       0.00000000    -149.21816785       0.00000000 </v>
   <v>       0.00000000      -0.00000000    -198.66787262 </v>
  </varray>
  <energy>
   <i name="e_fr_energy">   -199.92280065 </i>
   <i name="e_wo_entrp">   -199.92013155 </i>
   <i name="e_0_energy">     -0.01067638 </i>
  </energy>
  <time name="totalsc">   51.81   51.84</time>
 </calculation>
 <calculation>
  <scstep>
   <time name="dav">    9.84    9.84</time>
   <time name="total">   10.31   10.32</time>
   <energy>
    <i name="alphaZ">    121.74724609 </i>
    <i name="ewald">  -4001.55222957 </i>
    <i name="hartreedc">  -1360.49808575 </i>
    <i name="XCdc">    105.83156050 </i>
    <i name="pawpsdc">  13175.81170406 </i>
    <i name="pawaedc"> -12911.77395763 </i>
    <i name="eentropy">     -0.01086624 </i>
    <i name="bandstr">   -152.24451009 </i>
    <i name="atom">   4822.75196862 </i>
    <i name="e_fr_energy">   -199.93717002 </i>
    <i name="e_wo_entrp">   -199.92630378 </i>
    <i name="e_0_energy">   -199.93445346 </i>
   </energy>
  </scstep>
  <scstep>
   <time name="diag">    1.10    1.10</time>
   <time name="diis">    5.86    5.87</time>
   <time name="orth">    0.10    0.10</time>
   <time name="total">    7.53    7.54</time>
   <energy>
    <i name="e_fr_energy">   -199.94268572 </i>
    <i name="e_wo_entrp">   -199.93176403 </i>
    <i name="e_0_energy">   -199.93995530 </i>
   </energy>
  </scstep>
  <scstep>
   <time name="diag">    1.09    1.09</time>
   <time name="diis">    5.94    5.94</time>
   <time name="orth">    0.11    0.11</time>
   <time name="total">    7.61    7.61</time>
   <energy>
    <i name="e_fr_energy">   -199.94196713 </i>
    <i name="e_wo_entrp">   -199.93103506 </i>
    <i name="e_0_energy">   -199.93923411 </i>
   </energy>
  </scstep>
  <scstep>
   <time name="diag">    3.73    3.73</time>
   <time name="diis">    5.91    5.91</time>
   <time name="orth">    0.11    0.11</time>
   <time name="total">   10.22   10.22</time>
   <energy>
    <i name="e_fr_energy">   -199.94174307 </i>
    <i name="e_wo_entrp">   -199.93080029 </i>
    <i name="e_0_energy">   -199.93900737 </i>
   </energy>
  </scstep>
  <scstep>
   <time name="diag">    1.09    1.09</time>
   <time name="diis">    3.79    3.79</time>
   <time name="orth">    0.10    0.10</time>
   <time name="total">    5.04    5.04</time>
   <energy>
    <i name="alphaZ">    121.74724609 </i>
    <i name="ewald">  -4001.55222957 </i>
    <i name="hartreedc">  -1361.30530329 </i>
    <i name="XCdc">    105.89942480 </i>
    <i name="pawpsdc">  13277.90790868 </i>
    <i name="pawaedc"> -13013.90585203 </i>
    <i name="eentropy">     -0.01094946 </i>
    <i name="bandstr">   -151.47396573 </i>
    <i name="atom">   4822.75196862 </i>
    <i name="e_fr_energy">   -199.94175189 </i>
    <i name="e_wo_entrp">   -199.93080243 </i>
    <i name="e_0_energy">   -199.93901453 </i>
   </energy>
  </scstep>
  <structure>
   <crystal>
    <varray name="basis" >
     <v>       4.48509239      -7.76840789       0.00000000 </v>
     <v>       4.48509239       7.76840789       0.00000000 </v>
     <v>       0.00000000       0.00000000       5.74764574 </v>
    </varray>
    <i name="volume">    400.51925684 </i>
    <varray name="rec_basis" >
     <v>       0.11148042      -0.06436325       0.00000000 </v>
     <v>       0.11148042       0.06436325       0.00000000 </v>
     <v>       0.00000000       0.00000000       0.17398428 </v>
    </varray>
   </crystal>
   <varray name="positions" >
    <v>       0.00509106       0.64684554       0.21672638 </v>
    <v>       0.64175448       0.99490894       0.21672638 </v>
    <v>       0.91591275       0.32261178       0.99531206 </v>
    <v>       0.64684554       0.00509106       0.71672638 </v>
    <v>       0.08408725       0.40669904       0.49531206 </v>
    <v>       0.32261178       0.91591275       0.49531206 </v>
    <v>       0.35315446       0.35824552       0.21672638 </v>
    <v>       0.59330096       0.67738822       0.49531206 </v>
    <v>       0.99490894       0.64175448       0.71672638 </v>
    <v>       0.35824552       0.35315446       0.71672638 </v>
    <v>       0.67738822       0.59330096       0.99531206 </v>
    <v>       0.40669904       0.08408725       0.99531206 </v>
    <v>       0.21725563       0.30546690       0.46712360 </v>
    <v>       0.08821126       0.78274437       0.46712360 </v>
    <v>       0.30546690       0.21725563       0.96712360 </v>
    <v>       0.69453310       0.91178874       0.46712360 </v>
    <v>      -0.00000000      -0.00000000       0.95780854 </v>
    <v>       0.06379045       0.48427382       0.77877317 </v>
    <v>      -0.00000000      -0.00000000       0.45780854 </v>
    <v>       0.66666667       0.33333333       0.46451352 </v>
    <v>       0.57951663       0.51572618       0.27877317 </v>
    <v>       0.78274437       0.08821126       0.96712360 </v>
    <v>       0.91178874       0.69453310       0.96712360 </v>
    <v>       0.33333333       0.66666667       0.96451352 </v>
    <v>       0.93620955       0.42048337       0.27877317 </v>
    <v>       0.42048337       0.93620955       0.77877317 </v>
    <v>       0.51572618       0.57951663       0.77877317 </v>
    <v>       0.48427382       0.06379045       0.27877317 </v>
   </varray>
  </structure>
  <varray name="forces" >
   <v>      -0.21999989      -0.07615809       0.11918933 </v>
   <v>       0.04404510       0.22860454       0.11918933 </v>
   <v>       0.08552573       0.02377452      -0.19364455 </v>
   <v>      -0.21999989       0.07615809       0.11918933 </v>
   <v>      -0.02217353       0.08595472      -0.19364455 </v>
   <v>       0.08552573      -0.02377452      -0.19364455 </v>
   <v>       0.17595479      -0.15244645       0.11918933 </v>
   <v>      -0.06335221      -0.06218020      -0.19364455 </v>
   <v>       0.04404510      -0.22860454       0.11918933 </v>
   <v>       0.17595479       0.15244645       0.11918933 </v>
   <v>      -0.06335221       0.06218020      -0.19364455 </v>
   <v>      -0.02217353      -0.08595472      -0.19364455 </v>
   <v>      -0.41190637       0.11148437       0.19788386 </v>
   <v>       0.30250149       0.30097919       0.19788386 </v>
   <v>      -0.41190637      -0.11148437       0.19788386 </v>
   <v>       0.10940489      -0.41246357       0.19788386 </v>
   <v>       0.00000000      -0.00000000       0.08712976 </v>
   <v>      -0.03013789      -0.04804728       0.12396130 </v>
   <v>       0.00000000      -0.00000000       0.08712976 </v>
   <v>       0.00000000      -0.00000000      -0.82929960 </v>
   <v>       0.05667911       0.00207654       0.12396130 </v>
   <v>       0.30250149      -0.30097919       0.19788386 </v>
   <v>       0.10940489       0.41246357       0.19788386 </v>
   <v>       0.00000000      -0.00000000      -0.82929960 </v>
   <v>      -0.02654122      -0.05012382       0.12396130 </v>
   <v>      -0.02654122       0.05012382       0.12396130 </v>
   <v>       0.05667911      -0.00207654       0.12396130 </v>
   <v>      -0.03013789       0.04804728       0.12396130 </v>
  </varray>
  <varray name="stress" >
   <v>    -146.89096052       0.00000000       0.00000000 </v>
   <v>       0.00000000    -146.89096052       0.00000000 </v>
   <v>       0.00000000       0.00000000    -192.79011680 </v>
  </varray>
  <energy>
   <i name="e_fr_energy">   -199.94175189 </i>
   <i name="e_wo_entrp">   -199.93901453 </i>
   <i name="e_0_energy">     -0.01094946 </i>
  </energy>
  <time name="totalsc">   52.96   52.98</time>
 </calculation>
 <calculation>
  <scstep>
   <time name="dav">    9.20    9.20</time>
   <time name="total">    9.67    9.67</time>
   <energy>
    <i name="alphaZ">    121.74724609 </i>
    <i name="ewald">  -3993.49993198 </i>
    <i name="hartreedc">  -1367.07284374 </i>
    <i name="XCdc">    106.08343053 </i>
    <i name="pawpsdc">  13284.08840769 </i>
    <i name="pawaedc"> -13020.08718214 </i>
    <i name="eentropy">     -0.01009575 </i>
    <i name="bandstr">   -154.05116561 </i>
    <i name="atom">   4822.75196862 </i>
    <i name="e_fr_energy">   -200.05016629 </i>
    <i name="e_wo_entrp">   -200.04007054 </i>
    <i name="e_0_energy">   -200.04764235 </i>
   </energy>
  </scstep>
  <scstep>
   <time name="diag">    1.09    1.09</time>
   <time name="diis">    5.81    5.81</time>
   <time name="orth">    0.11    0.11</time>
   <time name="total">    7.47    7.48</time>
   <energy>
    <i name="e_fr_energy">   -200.07829820 </i>
    <i name="e_wo_entrp">   -200.06783506 </i>
    <i name="e_0_energy">   -200.07568241 </i>
   </energy>
  </scstep>
  <scstep>
   <time name="diag">    1.09    1.10</time>
   <time name="diis">    6.01    6.01</time>
   <time name="orth">    0.10    0.11</time>
   <time name="total">    7.66    7.67</time>
   <energy>
    <i name="e_fr_energy">   -200.07590489 </i>
    <i name="e_wo_entrp">   -200.06568906 </i>
    <i name="e_0_energy">   -200.07335094 </i>
   </energy>
  </scstep>
  <scstep>
   <time name="diag">    1.08    1.09</time>
   <time name="diis">    5.84    5.84</time>
   <time name="orth">    0.11    0.11</time>
   <time name="total">    7.49    7.50</time>
   <energy>
    <i name="e_fr_energy">   -200.07473389 </i>
    <i name="e_wo_entrp">   -200.06430426 </i>
    <i name="e_0_energy">   -200.07212648 </i>
   </energy>
  </scstep>
  <scstep>
   <time name="diag">    1.08    1.08</time>
   <time name="diis">    5.39    5.38</time>
   <time name="orth">    0.10    0.10</time>
   <time name="total">    6.63    6.63</time>
   <energy>
    <i name="alphaZ">    121.74724609 </i>
    <i name="ewald">  -3993.49993198 </i>
    <i name="hartreedc">  -1368.07736732 </i>
    <i name="XCdc">    106.15407667 </i>
    <i name="pawpsdc">  13392.65666125 </i>
    <i name="pawaedc"> -13128.70232434 </i>
    <i name="eentropy">     -0.01027907 </i>
    <i name="bandstr">   -153.09469861 </i>
    <i name="atom">   4822.75196862 </i>
    <i name="e_fr_energy">   -200.07464867 </i>
    <i name="e_wo_entrp">   -200.06436961 </i>
    <i name="e_0_energy">   -200.07207890 </i>
   </energy>
  </scstep>
  <structure>
   <crystal>
    <varray name="basis" >
     <v>       4.48509239      -7.76840789       0.00000000 </v>
     <v>       4.48509239       7.76840789       0.00000000 </v>
     <v>       0.00000000       0.00000000       5.74764574 </v>
    </varray>
    <i name="volume">    400.51925684 </i>
    <varray name="rec_basis" >
     <v>       0.11148042      -0.06436325       0.00000000 </v>
     <v>       0.11148042       0.06436325       0.00000000 </v>
     <v>       0.00000000       0.00000000       0.17398428 </v>
    </varray>
   </crystal>
   <varray name="positions" >
    <v>       0.00302359       0.64524326       0.21887548 </v>
    <v>       0.64221968       0.99697641       0.21887548 </v>
    <v>       0.91686641       0.32350426       0.99465200 </v>
    <v>       0.64524326       0.00302359       0.71887548 </v>
    <v>       0.08313359       0.40663785       0.49465200 </v>
    <v>       0.32350426       0.91686641       0.49465200 </v>
    <v>       0.35475674       0.35778032       0.21887548 </v>
    <v>       0.59336215       0.67649574       0.49465200 </v>
    <v>       0.99697641       0.64221968       0.71887548 </v>
    <v>       0.35778032       0.35475674       0.71887548 </v>
    <v>       0.67649574       0.59336215       0.99465200 </v>
    <v>       0.40663785       0.08313359       0.99465200 </v>
    <v>       0.21581697       0.30505348       0.46901513 </v>
    <v>       0.08923651       0.78418303       0.46901513 </v>
    <v>       0.30505348       0.21581697       0.96901513 </v>
    <v>       0.69494652       0.91076349       0.46901513 </v>
    <v>      -0.00000000      -0.00000000       0.95886398 </v>
    <v>       0.06281705       0.48387183       0.77868863 </v>
    <v>      -0.00000000      -0.00000000       0.45886398 </v>
    <v>       0.66666667       0.33333333       0.45356999 </v>
    <v>       0.57894522       0.51612817       0.27868863 </v>
    <v>       0.78418303       0.08923651       0.96901513 </v>
    <v>       0.91076349       0.69494652       0.96901513 </v>
    <v>       0.33333333       0.66666667       0.95356999 </v>
    <v>       0.93718295       0.42105478       0.27868863 </v>
    <v>       0.42105478       0.93718295       0.77868863 </v>
    <v>       0.51612817       0.57894522       0.77868863 </v>
    <v>       0.48387183       0.06281705       0.27868863 </v>
   </varray>
  </structure>
  <varray name="forces" >
   <v>       0.08900045       0.09213675       0.14221479 </v>
   <v>       0.03529254      -0.12314503       0.14221479 </v>
   <v>       0.02846380      -0.00934723      -0.14430400 </v>
   <v>       0.08900045      -0.09213675       0.14221479 </v>
   <v>      -0.02232684       0.01997676      -0.14430400 </v>
   <v>       0.02846380       0.00934723      -0.14430400 </v>
   <v>      -0.12429299       0.03100827       0.14221479 </v>
   <v>      -0.00613697      -0.02932399      -0.14430400 </v>
   <v>       0.03529254       0.12314503       0.14221479 </v>
   <v>      -0.12429299      -0.03100827       0.14221479 </v>
   <v>      -0.00613697       0.02932399      -0.14430400 </v>
   <v>      -0.02232684      -0.01997676      -0.14430400 </v>
   <v>      -0.21120857      -0.05134731       0.08519107 </v>
   <v>       0.06113621       0.20858564       0.08519107 </v>
   <v>      -0.21120857       0.05134731       0.08519107 </v>
   <v>       0.15007236      -0.15723833       0.08519107 </v>
   <v>      -0.00000000       0.00000000       0.10232465 </v>
   <v>      -0.01021032      -0.08954989       0.05266387 </v>
   <v>      -0.00000000       0.00000000       0.10232465 </v>
   <v>      -0.00000000       0.00000000      -0.50962187 </v>
   <v>       0.08265764      -0.03593255       0.05266387 </v>
   <v>       0.06113621      -0.20858564       0.08519107 </v>
   <v>       0.15007236       0.15723833       0.08519107 </v>
   <v>      -0.00000000      -0.00000000      -0.50962187 </v>
   <v>      -0.07244732      -0.05361734       0.05266387 </v>
   <v>      -0.07244732       0.05361734       0.05266387 </v>
   <v>       0.08265764       0.03593255       0.05266387 </v>
   <v>      -0.01021032       0.08954989       0.05266387 </v>
  </varray>
  <varray name="stress" >
   <v>    -142.45551082       0.00000000      -0.00000000 </v>
   <v>       0.00000000    -142.45551082       0.00000000 </v>
   <v>       0.00000000      -0.00000000    -190.79981675 </v>
  </varray>
  <energy>
   <i name="e_fr_energy">   -200.07464867 </i>
   <i name="e_wo_entrp">   -200.07207890 </i>
   <i name="e_0_energy">     -0.01027907 </i>
  </energy>
  <time name="totalsc">   51.52   51.55</time>
 </calculation>
 <calculation>
  <scstep>
   <time name="dav">   26.80   26.80</time>
   <time name="total">   27.27   27.27</time>
   <energy>
    <i name="alphaZ">    121.74724609 </i>
    <i name="ewald">  -3985.97522546 </i>
    <i name="hartreedc">  -1373.41969105 </i>
    <i name="XCdc">    106.31453209 </i>
    <i name="pawpsdc">  13394.81462408 </i>
    <i name="pawaedc"> -13130.86011841 </i>
    <i name="eentropy">     -0.00780539 </i>
    <i name="bandstr">   -155.46051384 </i>
    <i name="atom">   4822.75196862 </i>
    <i name="e_fr_energy">   -200.09498327 </i>
    <i name="e_wo_entrp">   -200.08717788 </i>
    <i name="e_0_energy">   -200.09303192 </i>
   </energy>
  </scstep>
  <scstep>
   <time name="diag">    1.08    1.08</time>
   <time name="diis">    5.77    5.77</time>
   <time name="orth">    0.10    0.10</time>
   <time name="total">    7.40    7.41</time>
   <energy>
    <i name="e_fr_energy">   -200.11900751 </i>
    <i name="e_wo_entrp">   -200.10849027 </i>
    <i name="e_0_energy">   -200.11637820 </i>
   </energy>
  </scstep>
  <scstep>
   <time name="diag">    1.10    1.10</time>
   <time name="diis">    5.91    5.91</time>
   <time name="orth">    0.11    0.11</time>
   <time name="total">    7.59    7.59</time>
   <energy>
    <i name="e_fr_energy">   -200.11507082 </i>
    <i name="e_wo_entrp">   -200.10587171 </i>
    <i name="e_0_energy">   -200.11277104 </i>
   </energy>
  </scstep>
  <scstep>
   <time name="diag">    2.22    3.69</time>
   <time name="diis">    5.89    5.90</time>
   <time name="orth">    0.11    0.11</time>
   <time name="total">    9.16   11.18</time>
   <energy>
    <i name="e_fr_energy">   -200.11336066 </i>
    <i name="e_wo_entrp">   -200.10368854 </i>
    <i name="e_0_energy">   -200.11094263 </i>
   </energy>
  </scstep>
  <scstep>
   <time name="diag">    1.16    1.16</time>
   <time name="diis">    5.99    5.99</time>
   <time name="orth">    0.11    0.11</time>
   <time name="total">    7.73    7.73</time>
   <energy>
    <i name="e_fr_energy">   -200.11314976 </i>
    <i name="e_wo_entrp">   -200.10371657 </i>
    <i name="e_0_energy">   -200.11079146 </i>
   </energy>
  </scstep>
  <scstep>
   <time name="diag">    1.12    1.12</time>
   <time name="diis">    3.90    3.90</time>
   <time name="orth">    0.10    0.10</time>
   <time name="total">    5.19    5.19</time>
   <energy>
    <i name="alphaZ">    121.74724609 </i>
    <i name="ewald">  -3985.97522546 </i>
    <i name="hartreedc">  -1374.30604725 </i>
    <i name="XCdc">    106.37896603 </i>
    <i name="pawpsdc">  13501.74849298 </i>
    <i name="pawaedc"> -13237.83749903 </i>
    <i name="eentropy">     -0.00956049 </i>
    <i name="bandstr">   -154.61147260 </i>
    <i name="atom">   4822.75196862 </i>
    <i name="e_fr_energy">   -200.11313110 </i>
    <i name="e_wo_entrp">   -200.10357062 </i>
    <i name="e_0_energy">   -200.11074098 </i>
   </energy>
  </scstep>
  <structure>
   <crystal>
    <varray name="basis" >
     <v>       4.48509239      -7.76840789       0.00000000 </v>
     <v>       4.48509239       7.76840789       0.00000000 </v>
     <v>       0.00000000       0.00000000       5.74764574 </v>
    </varray>
    <i name="volume">    400.51925684 </i>
    <varray name="rec_basis" >
     <v>       0.11148042      -0.06436325       0.00000000 </v>
     <v>       0.11148042       0.06436325       0.00000000 </v>
     <v>       0.00000000       0.00000000       0.17398428 </v>
    </varray>
   </crystal>
   <varray name="positions" >
    <v>       0.00118329       0.64381705       0.22078843 </v>
    <v>       0.64263376       0.99881671       0.22078843 </v>
    <v>       0.91771529       0.32429867       0.99406447 </v>
    <v>       0.64381705       0.00118329       0.72078843 </v>
    <v>       0.08228471       0.40658338       0.49406447 </v>
    <v>       0.32429867       0.91771529       0.49406447 </v>
    <v>       0.35618295       0.35736624       0.22078843 </v>
    <v>       0.59341662       0.67570133       0.49406447 </v>
    <v>       0.99881671       0.64263376       0.72078843 </v>
    <v>       0.35736624       0.35618295       0.72078843 </v>
    <v>       0.67570133       0.59341662       0.99406447 </v>
    <v>       0.40658338       0.08228471       0.99406447 </v>
    <v>       0.21453640       0.30468549       0.47069881 </v>
    <v>       0.09014910       0.78546360       0.47069881 </v>
    <v>       0.30468549       0.21453640       0.97069881 </v>
    <v>       0.69531451       0.90985090       0.47069881 </v>
    <v>      -0.00000000      -0.00000000       0.95980344 </v>
    <v>       0.06195061       0.48351401       0.77861338 </v>
    <v>      -0.00000000      -0.00000000       0.45980344 </v>
    <v>       0.66666667       0.33333333       0.44382895 </v>
    <v>       0.57843659       0.51648599       0.27861338 </v>
    <v>       0.78546360       0.09014910       0.97069881 </v>
    <v>       0.90985090       0.69531451       0.97069881 </v>
    <v>       0.33333333       0.66666667       0.94382895 </v>
    <v>       0.93804939       0.42156341       0.27861338 </v>
    <v>       0.42156341       0.93804939       0.77861338 </v>
    <v>       0.51648599       0.57843659       0.77861338 </v>
    <v>       0.48351401       0.06195061       0.27861338 </v>
   </varray>
  </structure>
  <varray name="forces" >
   <v>       0.36549107       0.24060732       0.14993154 </v>
   <v>       0.02562651      -0.43682821       0.14993154 </v>
   <v>      -0.02502030      -0.03396198      -0.08955652 </v>
   <v>       0.36549107      -0.24060732       0.14993154 </v>
   <v>      -0.01690179      -0.03864921      -0.08955652 </v>
   <v>      -0.02502030       0.03396198      -0.08955652 </v>
   <v>      -0.39111758       0.19622089       0.14993154 </v>
   <v>       0.04192209       0.00468723      -0.08955652 </v>
   <v>       0.02562651       0.43682821       0.14993154 </v>
   <v>      -0.39111758      -0.19622089       0.14993154 </v>
   <v>       0.04192209      -0.00468723      -0.08955652 </v>
   <v>      -0.01690179       0.03864921      -0.08955652 </v>
   <v>      -0.05697850      -0.20109109      -0.00599244 </v>
   <v>      -0.14566075       0.14989038      -0.00599244 </v>
   <v>      -0.05697850       0.20109109      -0.00599244 </v>
   <v>       0.20263925       0.05120072      -0.00599244 </v>
   <v>      -0.00000000       0.00000000       0.11156126 </v>
   <v>       0.00048541      -0.13672487      -0.01322043 </v>
   <v>      -0.00000000       0.00000000       0.11156126 </v>
   <v>      -0.00000000       0.00000000      -0.23504771 </v>
   <v>       0.11816451      -0.06878282      -0.01322043 </v>
   <v>      -0.14566075      -0.14989038      -0.00599244 </v>
   <v>       0.20263925      -0.05120072      -0.00599244 </v>
   <v>      -0.00000000       0.00000000      -0.23504771 </v>
   <v>      -0.11864992      -0.06794206      -0.01322043 </v>
   <v>      -0.11864992       0.06794206      -0.01322043 </v>
   <v>       0.11816451       0.06878282      -0.01322043 </v>
   <v>       0.00048541       0.13672487      -0.01322043 </v>
  </varray>
  <varray name="stress" >
   <v>    -137.72079342       0.00000000      -0.00000000 </v>
   <v>       0.00000000    -137.72079342       0.00000000 </v>
   <v>       0.00000000       0.00000000    -188.23924614 </v>
  </varray>
  <energy>
   <i name="e_fr_energy">   -200.11313110 </i>
   <i name="e_wo_entrp">   -200.11074098 </i>
   <i name="e_0_energy">     -0.00956049 </i>
  </energy>
  <time name="totalsc">   77.00   79.04</time>
 </calculation>
 <calculation>
  <scstep>
   <time name="dav">    9.46    9.46</time>
   <time name="total">    9.92    9.92</time>
   <energy>
    <i name="alphaZ">    121.74724609 </i>
    <i name="ewald">  -3990.22380699 </i>
    <i name="hartreedc">  -1369.56864710 </i>
    <i name="XCdc">    106.42431459 </i>
    <i name="pawpsdc">  13504.69647290 </i>
    <i name="pawaedc"> -13240.78627848 </i>
    <i name="eentropy">     -0.00710361 </i>
    <i name="bandstr">   -155.17279165 </i>
    <i name="atom">   4822.75196862 </i>
    <i name="e_fr_energy">   -200.13862562 </i>
    <i name="e_wo_entrp">   -200.13152201 </i>
    <i name="e_0_energy">   -200.13684972 </i>
   </energy>
  </scstep>
  <scstep>
   <time name="diag">    1.08    1.08</time>
   <time name="diis">    5.79    5.79</time>
   <time name="orth">    0.11    0.11</time>
   <time name="total">    7.45    7.45</time>
   <energy>
    <i name="e_fr_energy">   -200.18184965 </i>
    <i name="e_wo_entrp">   -200.17121157 </i>
    <i name="e_0_energy">   -200.17919013 </i>
   </energy>
  </scstep>
  <scstep>
   <time name="diag">    1.10    1.10</time>
   <time name="diis">    6.02    6.02</time>
   <time name="orth">    0.10    0.10</time>
   <time name="total">    7.68    7.68</time>
   <energy>
    <i name="e_fr_energy">   -200.17463225 </i>
    <i name="e_wo_entrp">   -200.16525724 </i>
    <i name="e_0_energy">   -200.17228850 </i>
   </energy>
  </scstep>
  <scstep>
   <time name="diag">    1.09    1.09</time>
   <time name="diis">    5.98    5.98</time>
   <time name="orth">    0.11    0.11</time>
   <time name="total">    7.64    7.65</time>
   <energy>
    <i name="e_fr_energy">   -200.17139868 </i>
    <i name="e_wo_entrp">   -200.16128166 </i>
    <i name="e_0_energy">   -200.16886942 </i>
   </energy>
  </scstep>
  <scstep>
   <time name="diag">    1.12    1.12</time>
   <time name="diis">    5.99    5.99</time>
   <time name="orth">    0.10    0.10</time>
   <time name="total">    7.69    7.69</time>
   <energy>
    <i name="e_fr_energy">   -200.17064346 </i>
    <i name="e_wo_entrp">   -200.16090263 </i>
    <i name="e_0_energy">   -200.16820825 </i>
   </energy>
  </scstep>
  <scstep>
   <time name="diag">    1.09    1.09</time>
   <time name="diis">    3.78    3.78</time>
   <time name="orth">    0.10    0.10</time>
   <time name="total">    5.03    5.04</time>
   <energy>
    <i name="alphaZ">    121.74724609 </i>
    <i name="ewald">  -3990.22380699 </i>
    <i name="hartreedc">  -1369.44190027 </i>
    <i name="XCdc">    106.45211629 </i>
    <i name="pawpsdc">  13557.17169566 </i>
    <i name="pawaedc"> -13293.28821528 </i>
    <i name="eentropy">     -0.00995497 </i>
    <i name="bandstr">   -155.32976120 </i>
    <i name="atom">   4822.75196862 </i>
    <i name="e_fr_energy">   -200.17061205 </i>
    <i name="e_wo_entrp">   -200.16065708 </i>
    <i name="e_0_energy">   -200.16812331 </i>
   </energy>
  </scstep>
  <structure>
   <crystal>
    <varray name="basis" >
     <v>       4.48509239      -7.76840789       0.00000000 </v>
     <v>       4.48509239       7.76840789       0.00000000 </v>
     <v>       0.00000000       0.00000000       5.74764574 </v>
    </varray>
    <i name="volume">    400.51925684 </i>
    <varray name="rec_basis" >
     <v>       0.11148042      -0.06436325       0.00000000 </v>
     <v>       0.11148042       0.06436325       0.00000000 </v>
     <v>       0.00000000       0.00000000       0.17398428 </v>
    </varray>
   </crystal>
   <varray name="positions" >
    <v>       0.00145676       0.64625153       0.22367778 </v>
    <v>       0.64479477       0.99854324       0.22367778 </v>
    <v>       0.91825900       0.32454007       0.99271809 </v>
    <v>       0.64625153       0.00145676       0.72367778 </v>
    <v>       0.08174100       0.40628108       0.49271809 </v>
    <v>       0.32454007       0.91825900       0.49271809 </v>
    <v>       0.35374847       0.35520523       0.22367778 </v>
    <v>       0.59371892       0.67545993       0.49271809 </v>
    <v>       0.99854324       0.64479477       0.72367778 </v>
    <v>       0.35520523       0.35374847       0.72367778 </v>
    <v>       0.67545993       0.59371892       0.99271809 </v>
    <v>       0.40628108       0.08174100       0.99271809 </v>
    <v>       0.21406060       0.30326404       0.47178658 </v>
    <v>       0.08920343       0.78593940       0.47178658 </v>
    <v>       0.30326404       0.21406060       0.97178658 </v>
    <v>       0.69673596       0.91079657       0.47178658 </v>
    <v>      -0.00000000      -0.00000000       0.96162254 </v>
    <v>       0.06189515       0.48273912       0.77842248 </v>
    <v>      -0.00000000      -0.00000000       0.46162254 </v>
    <v>       0.66666667       0.33333333       0.43469036 </v>
    <v>       0.57915603       0.51726088       0.27842248 </v>
    <v>       0.78593940       0.08920343       0.97178658 </v>
    <v>       0.91079657       0.69673596       0.97178658 </v>
    <v>       0.33333333       0.66666667       0.93469036 </v>
    <v>       0.93810485       0.42084397       0.27842248 </v>
    <v>       0.42084397       0.93810485       0.77842248 </v>
    <v>       0.51726088       0.57915603       0.77842248 </v>
    <v>       0.48273912       0.06189515       0.27842248 </v>
   </varray>
  </structure>
  <varray name="forces" >
   <v>       0.00046117      -0.00939239      -0.02601842 </v>
   <v>      -0.00836463       0.00429681      -0.02601842 </v>
   <v>      -0.04386841      -0.05556583       0.04337591 </v>
   <v>       0.00046117       0.00939239      -0.02601842 </v>
   <v>      -0.02618721      -0.06577407       0.04337591 </v>
   <v>      -0.04386841       0.05556583       0.04337591 </v>
   <v>       0.00790346       0.00509558      -0.02601842 </v>
   <v>       0.07005562       0.01020825       0.04337591 </v>
   <v>      -0.00836463      -0.00429681      -0.02601842 </v>
   <v>       0.00790346      -0.00509558      -0.02601842 </v>
   <v>       0.07005562      -0.01020825       0.04337591 </v>
   <v>      -0.02618721       0.06577407       0.04337591 </v>
   <v>      -0.10804895      -0.09708189       0.10233668 </v>
   <v>      -0.03005090       0.14211408       0.10233668 </v>
   <v>      -0.10804895       0.09708189       0.10233668 </v>
   <v>       0.13809986      -0.04503220       0.10233668 </v>
   <v>      -0.00000000      -0.00000000       0.11639562 </v>
   <v>      -0.03542148       0.17060704      -0.17092691 </v>
   <v>      -0.00000000      -0.00000000       0.11639562 </v>
   <v>      -0.00000000      -0.00000000       0.03730258 </v>
   <v>      -0.13003930       0.11597942      -0.17092691 </v>
   <v>      -0.03005090      -0.14211408       0.10233668 </v>
   <v>       0.13809986       0.04503220       0.10233668 </v>
   <v>      -0.00000000      -0.00000000       0.03730258 </v>
   <v>       0.16546077       0.05462762      -0.17092691 </v>
   <v>       0.16546077      -0.05462762      -0.17092691 </v>
   <v>      -0.13003930      -0.11597942      -0.17092691 </v>
   <v>      -0.03542148      -0.17060704      -0.17092691 </v>
  </varray>
  <varray name="stress" >
   <v>    -137.76847548       0.00000000      -0.00000000 </v>
   <v>      -0.00000000    -137.76847548      -0.00000000 </v>
   <v>       0.00000000      -0.00000000    -182.97056130 </v>
  </varray>
  <energy>
   <i name="e_fr_energy">   -200.17061205 </i>
   <i name="e_wo_entrp">   -200.16812331 </i>
   <i name="e_0_energy">     -0.00995497 </i>
  </energy>
  <time name="totalsc">   57.57   57.60</time>
 </calculation>
 <calculation>
  <scstep>
   <time name="dav">   10.37   10.37</time>
   <time name="total">   10.83   10.84</time>
   <energy>
    <i name="alphaZ">    121.74724609 </i>
    <i name="ewald">  -3990.31716104 </i>
    <i name="hartreedc">  -1369.36080166 </i>
    <i name="XCdc">    106.45514085 </i>
    <i name="pawpsdc">  13555.08413997 </i>
    <i name="pawaedc"> -13291.20121822 </i>
    <i name="eentropy">     -0.00982603 </i>
    <i name="bandstr">   -155.32012138 </i>
    <i name="atom">   4822.75196862 </i>
    <i name="e_fr_energy">   -200.17063281 </i>
    <i name="e_wo_entrp">   -200.16080678 </i>
    <i name="e_0_energy">   -200.16817630 </i>
   </energy>
  </scstep>
  <scstep>
   <time name="diag">    1.09    1.09</time>
   <time name="diis">    4.13    4.13</time>
   <time name="orth">    0.10    0.10</time>
   <time name="total">    5.38    5.39</time>
   <energy>
    <i name="alphaZ">    121.74724609 </i>
    <i name="ewald">  -3990.31716104 </i>
    <i name="hartreedc">  -1369.35040658 </i>
    <i name="XCdc">    106.45523826 </i>
    <i name="pawpsdc">  13556.34752971 </i>
    <i name="pawaedc"> -13292.46480790 </i>
    <i name="eentropy">     -0.00994398 </i>
    <i name="bandstr">   -155.33032334 </i>
    <i name="atom">   4822.75196862 </i>
    <i name="e_fr_energy">   -200.17066017 </i>
    <i name="e_wo_entrp">   -200.16071619 </i>
    <i name="e_0_energy">   -200.16817418 </i>
   </energy>
  </scstep>
  <structure>
   <crystal>
    <varray name="basis" >
     <v>       4.48509239      -7.76840789       0.00000000 </v>
     <v>       4.48509239       7.76840789       0.00000000 </v>
     <v>       0.00000000       0.00000000       5.74764574 </v>
    </varray>
    <i name="volume">    400.51925684 </i>
    <varray name="rec_basis" >
     <v>       0.11148042      -0.06436325       0.00000000 </v>
     <v>       0.11148042       0.06436325       0.00000000 </v>
     <v>       0.00000000       0.00000000       0.17398428 </v>
    </varray>
   </crystal>
   <varray name="positions" >
    <v>       0.00146357       0.64631212       0.22374970 </v>
    <v>       0.64484855       0.99853643       0.22374970 </v>
    <v>       0.91827253       0.32454608       0.99268458 </v>
    <v>       0.64631212       0.00146357       0.72374970 </v>
    <v>       0.08172747       0.40627355       0.49268458 </v>
    <v>       0.32454608       0.91827253       0.49268458 </v>
    <v>       0.35368788       0.35515145       0.22374970 </v>
    <v>       0.59372645       0.67545392       0.49268458 </v>
    <v>       0.99853643       0.64484855       0.72374970 </v>
    <v>       0.35515145       0.35368788       0.72374970 </v>
    <v>       0.67545392       0.59372645       0.99268458 </v>
    <v>       0.40627355       0.08172747       0.99268458 </v>
    <v>       0.21404876       0.30322866       0.47181365 </v>
    <v>       0.08917990       0.78595124       0.47181365 </v>
    <v>       0.30322866       0.21404876       0.97181365 </v>
    <v>       0.69677134       0.91082010       0.47181365 </v>
    <v>      -0.00000000      -0.00000000       0.96166781 </v>
    <v>       0.06189377       0.48271983       0.77841772 </v>
    <v>      -0.00000000      -0.00000000       0.46166781 </v>
    <v>       0.66666667       0.33333333       0.43446290 </v>
    <v>       0.57917394       0.51728017       0.27841772 </v>
    <v>       0.78595124       0.08917990       0.97181365 </v>
    <v>       0.91082010       0.69677134       0.97181365 </v>
    <v>       0.33333333       0.66666667       0.93446290 </v>
    <v>       0.93810623       0.42082606       0.27841772 </v>
    <v>       0.42082606       0.93810623       0.77841772 </v>
    <v>       0.51728017       0.57917394       0.77841772 </v>
    <v>       0.48271983       0.06189377       0.27841772 </v>
   </varray>
  </structure>
  <varray name="forces" >
   <v>      -0.00838424      -0.01319254      -0.03178886 </v>
   <v>      -0.00723296       0.01385724      -0.03178886 </v>
   <v>      -0.04653017      -0.05690648       0.04704319 </v>
   <v>      -0.00838424       0.01319254      -0.03178886 </v>
   <v>      -0.02601737      -0.06874955       0.04704319 </v>
   <v>      -0.04653017       0.05690648       0.04704319 </v>
   <v>       0.01561720      -0.00066469      -0.03178886 </v>
   <v>       0.07254754       0.01184307       0.04704319 </v>
   <v>      -0.00723296      -0.01385724      -0.03178886 </v>
   <v>       0.01561720       0.00066469      -0.03178886 </v>
   <v>       0.07254754      -0.01184307       0.04704319 </v>
   <v>      -0.02601737       0.06874955       0.04704319 </v>
   <v>      -0.10927427      -0.09390163       0.10527549 </v>
   <v>      -0.02668406       0.14158511       0.10527549 </v>
   <v>      -0.10927427       0.09390163       0.10527549 </v>
   <v>       0.13595833      -0.04768348       0.10527549 </v>
   <v>      -0.00000000       0.00000000       0.11577403 </v>
   <v>      -0.03706553       0.17819177      -0.17465594 </v>
   <v>      -0.00000000       0.00000000       0.11577403 </v>
   <v>      -0.00000000       0.00000000       0.04660435 </v>
   <v>      -0.13578584       0.12119557      -0.17465594 </v>
   <v>      -0.02668406      -0.14158511       0.10527549 </v>
   <v>       0.13595833       0.04768348       0.10527549 </v>
   <v>      -0.00000000       0.00000000       0.04660435 </v>
   <v>       0.17285136       0.05699620      -0.17465594 </v>
   <v>       0.17285136      -0.05699620      -0.17465594 </v>
   <v>      -0.13578584      -0.12119557      -0.17465594 </v>
   <v>      -0.03706553      -0.17819177      -0.17465594 </v>
  </varray>
  <varray name="stress" >
   <v>    -137.78615499       0.00000000      -0.00000000 </v>
   <v>       0.00000000    -137.78615499      -0.00000000 </v>
   <v>       0.00000000       0.00000000    -182.88884409 </v>
  </varray>
  <energy>
   <i name="e_fr_energy">   -200.17066017 </i>
   <i name="e_wo_entrp">   -200.16817418 </i>
   <i name="e_0_energy">     -0.00994398 </i>
  </energy>
  <time name="totalsc">   28.40   28.42</time>
 </calculation>
 <calculation>
  <scstep>
   <time name="dav">   21.12   21.12</time>
   <time name="total">   22.55   22.58</time>
   <energy>
    <i name="alphaZ">    121.74724609 </i>
    <i name="ewald">  -3991.38304367 </i>
    <i name="hartreedc">  -1367.70353937 </i>
    <i name="XCdc">    106.50494764 </i>
    <i name="pawpsdc">  13556.46398514 </i>
    <i name="pawaedc"> -13292.58136765 </i>
    <i name="eentropy">     -0.00538504 </i>
    <i name="bandstr">   -155.99000628 </i>
    <i name="atom">   4822.75196862 </i>
    <i name="e_fr_energy">   -200.19519453 </i>
    <i name="e_wo_entrp">   -200.18980949 </i>
    <i name="e_0_energy">   -200.19384827 </i>
   </energy>
  </scstep>
  <scstep>
[...]
       <r>   -3.2490    1.0000 </r>
       <r>   -2.3350    1.0000 </r>
       <r>   -2.3037    1.0000 </r>
       <r>   -2.1682    1.0000 </r>
       <r>   -2.1682    1.0000 </r>
       <r>   -1.1772    1.0000 </r>
       <r>   -1.1772    1.0000 </r>
       <r>   -1.0725    1.0000 </r>
       <r>   -0.9628    1.0000 </r>
       <r>   -0.9206    1.0000 </r>
       <r>   -0.9206    1.0000 </r>
       <r>   -0.4903    1.0000 </r>
       <r>   -0.4903    1.0000 </r>
       <r>   -0.1163    1.0000 </r>
       <r>   -0.1163    1.0000 </r>
       <r>    0.0232    1.0000 </r>
       <r>    0.2699    1.0000 </r>
       <r>    0.4183    1.0000 </r>
       <r>    0.4183    1.0000 </r>
       <r>    0.5296    1.0000 </r>
       <r>    0.9979    1.0000 </r>
       <r>    0.9979    1.0000 </r>
       <r>    1.2370    1.0000 </r>
       <r>    1.7120    1.0000 </r>
       <r>    1.7120    1.0000 </r>
       <r>    1.9671    1.0000 </r>
       <r>    2.1600    1.0000 </r>
       <r>    2.2772    1.0000 </r>
       <r>    2.2772    1.0000 </r>
       <r>    3.0093    1.0000 </r>
       <r>    3.0093    1.0000 </r>
       <r>    3.1232    1.0000 </r>
       <r>    3.2805    1.0000 </r>
       <r>    3.2805    1.0000 </r>
       <r>    3.3603    1.0000 </r>
       <r>    3.6086    1.0000 </r>
       <r>    3.6086    1.0000 </r>
       <r>    3.9548    1.0000 </r>
       <r>    3.9548    1.0000 </r>
       <r>    4.3785    1.0000 </r>
       <r>    4.3785    1.0000 </r>
       <r>    4.4896    1.0000 </r>
       <r>    4.5976    1.0000 </r>
       <r>    6.1557    0.8138 </r>
       <r>    6.1757    0.6268 </r>
       <r>    6.3069   -0.0386 </r>
       <r>    6.3069   -0.0386 </r>
       <r>    8.5228    0.0000 </r>
       <r>    8.5228    0.0000 </r>
       <r>    8.8159    0.0000 </r>
       <r>    8.8159    0.0000 </r>
       <r>    9.0585    0.0000 </r>
       <r>    9.0639    0.0000 </r>
       <r>    9.5324    0.0000 </r>
       <r>    9.5324    0.0000 </r>
       <r>    9.8220    0.0000 </r>
       <r>    9.9015    0.0000 </r>
       <r>    9.9867    0.0000 </r>
       <r>    9.9867    0.0000 </r>
       <r>   10.2860    0.0000 </r>
       <r>   10.2974    0.0000 </r>
       <r>   10.2974    0.0000 </r>
       <r>   10.5214    0.0000 </r>
      </set>
     </set>
    </set>
   </array>
  </eigenvalues>
  <separator name="orbital magnetization" >
   <v name="MAGDIPOLOUT">      0.00000000      0.00000000      0.00000000</v>
  </separator>
  <dos>
   <i name="efermi">      6.18781110 </i>
   <total>
    <array>
     <dimension dim="1">gridpoints</dimension>
     <dimension dim="2">spin</dimension>
     <field>energy</field>
     <field>total</field>
     <field>integrated</field>
     <set>
      <set comment="spin 1">
       <r>   -12.7947     0.0000     0.0000 </r>
       <r>   -12.7123     0.0000     0.0000 </r>
       <r>   -12.6300     0.0000     0.0000 </r>
       <r>   -12.5476     0.0000     0.0000 </r>
       <r>   -12.4652     0.0000     0.0000 </r>
       <r>   -12.3829     0.0000     0.0000 </r>
       <r>   -12.3005     0.0000     0.0000 </r>
       <r>   -12.2182     0.0000     0.0000 </r>
       <r>   -12.1358     0.0000     0.0000 </r>
       <r>   -12.0534     0.0000     0.0000 </r>
       <r>   -11.9711     0.0001     0.0000 </r>
       <r>   -11.8887     0.0028     0.0002 </r>
       <r>   -11.8064     0.0060     0.0007 </r>
       <r>   -11.7240    -0.0727    -0.0053 </r>
       <r>   -11.6417     0.5232     0.0378 </r>
       <r>   -11.5593     2.5726     0.2497 </r>
       <r>   -11.4769     4.4708     0.6179 </r>
       <r>   -11.3946     4.9161     1.0228 </r>
       <r>   -11.3122     5.4448     1.4712 </r>
       <r>   -11.2299     6.9333     2.0422 </r>
       <r>   -11.1475    11.9306     3.0248 </r>
       <r>   -11.0651     9.3780     3.7972 </r>
       <r>   -10.9828     9.8132     4.6054 </r>
       <r>   -10.9004     7.1346     5.1930 </r>
       <r>   -10.8181     4.8143     5.5895 </r>
       <r>   -10.7357     1.7504     5.7337 </r>
       <r>   -10.6533     2.6414     5.9512 </r>
       <r>   -10.5710    10.5180     6.8174 </r>
       <r>   -10.4886     4.8113     7.2137 </r>
       <r>   -10.4063     3.8246     7.5287 </r>
       <r>   -10.3239    15.6838     8.8204 </r>
       <r>   -10.2416    13.8668     9.9624 </r>
       <r>   -10.1592     7.3941    10.5714 </r>
       <r>   -10.0768     6.1721    11.0797 </r>
       <r>    -9.9945     4.4805    11.4487 </r>
       <r>    -9.9121    10.2443    12.2925 </r>
       <r>    -9.8298    16.7587    13.6727 </r>
       <r>    -9.7474    20.0543    15.3243 </r>
       <r>    -9.6650    17.5195    16.7672 </r>
       <r>    -9.5827    15.4081    18.0362 </r>
       <r>    -9.5003    10.9913    18.9414 </r>
       <r>    -9.4180    14.0425    20.0980 </r>
       <r>    -9.3356    24.3224    22.1011 </r>
       <r>    -9.2532    21.2294    23.8496 </r>
       <r>    -9.1709     2.3467    24.0428 </r>
       <r>    -9.0885    -0.6180    23.9919 </r>
       <r>    -9.0062     0.0838    23.9988 </r>
       <r>    -8.9238     0.0139    24.0000 </r>
       <r>    -8.8414     0.0003    24.0000 </r>
       <r>    -8.7591     0.0000    24.0000 </r>
       <r>    -8.6767     0.0000    24.0000 </r>
       <r>    -8.5944     0.0000    24.0000 </r>
       <r>    -8.5120     0.0000    24.0000 </r>
       <r>    -8.4297     0.0000    24.0000 </r>
       <r>    -8.3473     0.0000    24.0000 </r>
       <r>    -8.2649     0.0000    24.0000 </r>
       <r>    -8.1826     0.0000    24.0000 </r>
       <r>    -8.1002     0.0000    24.0000 </r>
       <r>    -8.0179     0.0000    24.0000 </r>
       <r>    -7.9355     0.0000    24.0000 </r>
       <r>    -7.8531     0.0000    24.0000 </r>
       <r>    -7.7708     0.0000    24.0000 </r>
       <r>    -7.6884     0.0000    24.0000 </r>
       <r>    -7.6061     0.0000    24.0000 </r>
       <r>    -7.5237     0.0000    24.0000 </r>
       <r>    -7.4413     0.0000    24.0000 </r>
       <r>    -7.3590     0.0000    24.0000 </r>
       <r>    -7.2766     0.0000    24.0000 </r>
       <r>    -7.1943     0.0000    24.0000 </r>
       <r>    -7.1119     0.0000    24.0000 </r>
       <r>    -7.0296     0.0000    24.0000 </r>
       <r>    -6.9472     0.0000    24.0000 </r>
       <r>    -6.8648     0.0000    24.0000 </r>
       <r>    -6.7825     0.0000    24.0000 </r>
       <r>    -6.7001     0.0000    24.0000 </r>
       <r>    -6.6178     0.0000    24.0000 </r>
       <r>    -6.5354     0.0000    24.0000 </r>
       <r>    -6.4530     0.0000    24.0000 </r>
       <r>    -6.3707     0.0000    24.0000 </r>
       <r>    -6.2883     0.0000    24.0000 </r>
       <r>    -6.2060     0.0000    24.0000 </r>
       <r>    -6.1236     0.0000    24.0000 </r>
       <r>    -6.0412     0.0000    24.0000 </r>
       <r>    -5.9589     0.0000    24.0000 </r>
       <r>    -5.8765     0.0000    24.0000 </r>
       <r>    -5.7942     0.0000    24.0000 </r>
       <r>    -5.7118     0.0000    24.0000 </r>
       <r>    -5.6295     0.0000    24.0000 </r>
       <r>    -5.5471     0.0000    24.0000 </r>
       <r>    -5.4647     0.0000    24.0000 </r>
       <r>    -5.3824     0.0000    24.0000 </r>
       <r>    -5.3000     0.0000    24.0000 </r>
       <r>    -5.2177     0.0000    24.0000 </r>
       <r>    -5.1353     0.0000    24.0000 </r>
       <r>    -5.0529     0.0000    24.0000 </r>
       <r>    -4.9706     0.0009    24.0001 </r>
       <r>    -4.8882     0.0026    24.0003 </r>
       <r>    -4.8059    -0.0261    23.9981 </r>
       <r>    -4.7235     0.1667    24.0119 </r>
       <r>    -4.6411     0.9766    24.0923 </r>
       <r>    -4.5588     1.1671    24.1884 </r>
       <r>    -4.4764     2.2682    24.3752 </r>
       <r>    -4.3941     1.8171    24.5249 </r>
       <r>    -4.3117     2.6885    24.7463 </r>
       <r>    -4.2294     3.5282    25.0369 </r>
       <r>    -4.1470     3.4412    25.3203 </r>
       <r>    -4.0646     5.1461    25.7441 </r>
       <r>    -3.9823     7.5109    26.3627 </r>
       <r>    -3.8999    10.0824    27.1931 </r>
       <r>    -3.8176     9.5432    27.9791 </r>
       <r>    -3.7352    10.5028    28.8441 </r>
       <r>    -3.6528     9.0196    29.5869 </r>
       <r>    -3.5705     7.7160    30.2224 </r>
       <r>    -3.4881     8.0632    30.8865 </r>
       <r>    -3.4058     7.7263    31.5228 </r>
       <r>    -3.3234     5.4499    31.9716 </r>
       <r>    -3.2410     8.3176    32.6567 </r>
       <r>    -3.1587    10.3698    33.5107 </r>
       <r>    -3.0763    11.3130    34.4424 </r>
       <r>    -2.9940    11.3584    35.3779 </r>
       <r>    -2.9116    13.0701    36.4543 </r>
       <r>    -2.8293    11.0756    37.3665 </r>
       <r>    -2.7469     9.2319    38.1268 </r>
       <r>    -2.6645    10.9039    39.0249 </r>
       <r>    -2.5822    10.4506    39.8856 </r>
       <r>    -2.4998     6.4287    40.4150 </r>
       <r>    -2.4175     4.4759    40.7837 </r>
       <r>    -2.3351     1.5282    40.9095 </r>
       <r>    -2.2527     2.8136    41.1412 </r>
       <r>    -2.1704     4.2955    41.4950 </r>
       <r>    -2.0880     2.0628    41.6649 </r>
       <r>    -2.0057     4.2355    42.0137 </r>
       <r>    -1.9233     8.4029    42.7058 </r>
       <r>    -1.8409    10.1130    43.5387 </r>
       <r>    -1.7586     3.9566    43.8645 </r>
       <r>    -1.6762     3.3738    44.1424 </r>
       <r>    -1.5939     6.4261    44.6717 </r>
       <r>    -1.5115    11.8205    45.6452 </r>
       <r>    -1.4292    16.4927    47.0035 </r>
       <r>    -1.3468     9.8865    47.8177 </r>
       <r>    -1.2644     6.3207    48.3383 </r>
       <r>    -1.1821     7.4711    48.9536 </r>
       <r>    -1.0997     7.2223    49.5484 </r>
       <r>    -1.0174     6.6875    50.0992 </r>
       <r>    -0.9350    10.0742    50.9289 </r>
       <r>    -0.8526    10.7933    51.8178 </r>
       <r>    -0.7703     8.7424    52.5379 </r>
       <r>    -0.6879     8.7584    53.2592 </r>
       <r>    -0.6056     8.2484    53.9385 </r>
       <r>    -0.5232     8.4738    54.6364 </r>
       <r>    -0.4408     9.2226    55.3960 </r>
       <r>    -0.3585    11.3912    56.3341 </r>
       <r>    -0.2761    11.6245    57.2915 </r>
       <r>    -0.1938    12.4547    58.3173 </r>
       <r>    -0.1114    16.1601    59.6482 </r>
       <r>    -0.0290    18.4508    61.1678 </r>
       <r>     0.0533    10.9998    62.0737 </r>
       <r>     0.1357    12.8935    63.1356 </r>
       <r>     0.2180    15.5876    64.4194 </r>
       <r>     0.3004    14.0114    65.5734 </r>
       <r>     0.3827    11.4607    66.5172 </r>
       <r>     0.4651    12.2400    67.5253 </r>
       <r>     0.5475    19.1855    69.1054 </r>
       <r>     0.6298    19.5141    70.7126 </r>
       <r>     0.7122    14.6053    71.9155 </r>
       <r>     0.7945    12.9101    72.9787 </r>
       <r>     0.8769    13.4753    74.0885 </r>
       <r>     0.9593    10.9898    74.9936 </r>
       <r>     1.0416    11.1008    75.9079 </r>
       <r>     1.1240    11.1789    76.8286 </r>
       <r>     1.2063     9.3926    77.6021 </r>
       <r>     1.2887    11.9911    78.5897 </r>
       <r>     1.3711    12.9614    79.6572 </r>
       <r>     1.4534     9.8191    80.4659 </r>
       <r>     1.5358     9.0719    81.2130 </r>
       <r>     1.6181     9.3364    81.9820 </r>
       <r>     1.7005     9.9224    82.7992 </r>
       <r>     1.7828    12.0453    83.7912 </r>
       <r>     1.8652    10.5793    84.6625 </r>
       <r>     1.9476     9.5099    85.4457 </r>
       <r>     2.0299     5.5514    85.9029 </r>
       <r>     2.1123     9.0235    86.6461 </r>
       <r>     2.1946    11.1354    87.5632 </r>
       <r>     2.2770     9.6779    88.3602 </r>
       <r>     2.3594    10.7354    89.2444 </r>
       <r>     2.4417    14.6452    90.4506 </r>
       <r>     2.5241    12.2560    91.4599 </r>
       <r>     2.6064     8.5280    92.1623 </r>
       <r>     2.6888     9.1598    92.9167 </r>
       <r>     2.7712    13.8003    94.0533 </r>
       <r>     2.8535    13.7287    95.1840 </r>
       <r>     2.9359    10.6840    96.0639 </r>
       <r>     3.0182    15.8870    97.3723 </r>
       <r>     3.1006    11.2375    98.2978 </r>
       <r>     3.1829     9.3886    99.0710 </r>
       <r>     3.2653     9.9632    99.8916 </r>
       <r>     3.3477    16.2357   101.2288 </r>
       <r>     3.4300    21.4312   102.9938 </r>
       <r>     3.5124    11.0280   103.9021 </r>
       <r>     3.5947     9.6394   104.6960 </r>
       <r>     3.6771    12.0628   105.6894 </r>
       <r>     3.7595     8.6103   106.3986 </r>
       <r>     3.8418    11.0692   107.3102 </r>
       <r>     3.9242    18.7838   108.8572 </r>
       <r>     4.0065    18.1312   110.3505 </r>
       <r>     4.0889    11.4687   111.2950 </r>
       <r>     4.1713    13.3193   112.3920 </r>
       <r>     4.2536     8.7111   113.1094 </r>
       <r>     4.3360     7.4109   113.7198 </r>
       <r>     4.4183    11.8392   114.6949 </r>
       <r>     4.5007     9.8248   115.5040 </r>
       <r>     4.5830    13.9408   116.6522 </r>
       <r>     4.6654    14.5964   117.8543 </r>
       <r>     4.7478    11.2328   118.7794 </r>
       <r>     4.8301     8.7611   119.5010 </r>
       <r>     4.9125     4.1132   119.8397 </r>
       <r>     4.9948     2.7069   120.0627 </r>
       <r>     5.0772     6.7179   120.6160 </r>
       <r>     5.1596     8.7189   121.3340 </r>
       <r>     5.2419     5.0044   121.7462 </r>
       <r>     5.3243     0.1333   121.7572 </r>
       <r>     5.4066    -0.1148   121.7477 </r>
       <r>     5.4890     0.0259   121.7498 </r>
       <r>     5.5714     0.0018   121.7500 </r>
       <r>     5.6537     0.0000   121.7500 </r>
       <r>     5.7361     0.0017   121.7501 </r>
       <r>     5.8184     0.0224   121.7520 </r>
       <r>     5.9008    -0.0614   121.7469 </r>
       <r>     5.9831     0.0361   121.7499 </r>
       <r>     6.0655     4.0617   122.0844 </r>
       <r>     6.1479    13.0399   123.1584 </r>
       <r>     6.2302    21.0529   124.8923 </r>
       <r>     6.3126    13.0952   125.9708 </r>
       <r>     6.3949     3.5304   126.2615 </r>
       <r>     6.4773    -0.1353   126.2504 </r>
       <r>     6.5597    -0.0250   126.2483 </r>
       <r>     6.6420     0.0191   126.2499 </r>
       <r>     6.7244     0.0012   126.2500 </r>
       <r>     6.8067     0.0000   126.2500 </r>
       <r>     6.8891     0.0000   126.2500 </r>
       <r>     6.9715     0.0000   126.2500 </r>
       <r>     7.0538     0.0018   126.2501 </r>
       <r>     7.1362     0.0221   126.2520 </r>
       <r>     7.2185    -0.1465   126.2399 </r>
       <r>     7.3009     0.3519   126.2689 </r>
       <r>     7.3833     4.3136   126.6241 </r>
       <r>     7.4656     1.8032   126.7727 </r>
       <r>     7.5480    -0.2977   126.7481 </r>
       <r>     7.6303     0.0149   126.7494 </r>
       <r>     7.7127     0.0124   126.7504 </r>
       <r>     7.7950     0.0577   126.7551 </r>
       <r>     7.8774     0.0332   126.7579 </r>
       <r>     7.9598     0.3225   126.7844 </r>
       <r>     8.0421     1.2640   126.8885 </r>
       <r>     8.1245     3.0188   127.1372 </r>
       <r>     8.2068     3.3278   127.4112 </r>
       <r>     8.2892     7.7941   128.0531 </r>
       <r>     8.3716     8.2653   128.7339 </r>
       <r>     8.4539    13.4480   129.8414 </r>
       <r>     8.5363    17.9181   131.3171 </r>
       <r>     8.6186    10.2465   132.1610 </r>
       <r>     8.7010    10.5773   133.0322 </r>
       <r>     8.7834    13.7354   134.1634 </r>
       <r>     8.8657    17.9064   135.6381 </r>
       <r>     8.9481    13.5648   136.7553 </r>
       <r>     9.0304    10.7844   137.6435 </r>
       <r>     9.1128     7.8520   138.2902 </r>
       <r>     9.1951    10.3356   139.1414 </r>
       <r>     9.2775    15.9427   140.4545 </r>
       <r>     9.3599    15.0565   141.6945 </r>
       <r>     9.4422    13.7772   142.8292 </r>
       <r>     9.5246    14.7857   144.0469 </r>
       <r>     9.6069    17.2667   145.4690 </r>
       <r>     9.6893    15.1934   146.7203 </r>
       <r>     9.7717    11.1015   147.6346 </r>
       <r>     9.8540    15.0192   148.8716 </r>
       <r>     9.9364    16.4243   150.2242 </r>
       <r>    10.0187    15.9545   151.5382 </r>
       <r>    10.1011    16.7411   152.9170 </r>
       <r>    10.1835    11.3554   153.8522 </r>
       <r>    10.2658    12.0581   154.8453 </r>
       <r>    10.3482    13.8632   155.9871 </r>
       <r>    10.4305    14.2530   157.1609 </r>
       <r>    10.5129    15.1838   158.4115 </r>
       <r>    10.5952    12.2431   159.4198 </r>
       <r>    10.6776     6.2856   159.9375 </r>
       <r>    10.7600     0.6197   159.9885 </r>
       <r>    10.8423     0.1229   159.9986 </r>
       <r>    10.9247     0.0148   159.9999 </r>
       <r>    11.0070     0.0005   159.9999 </r>
       <r>    11.0894     0.0011   160.0000 </r>
       <r>    11.1718     0.0001   160.0000 </r>
       <r>    11.2541     0.0000   160.0000 </r>
       <r>    11.3365     0.0000   160.0000 </r>
       <r>    11.4188     0.0000   160.0000 </r>
       <r>    11.5012     0.0000   160.0000 </r>
       <r>    11.5836     0.0000   160.0000 </r>
       <r>    11.6659     0.0000   160.0000 </r>
       <r>    11.7483     0.0000   160.0000 </r>
       <r>    11.8306     0.0000   160.0000 </r>
       <r>    11.9130     0.0000   160.0000 </r>
      </set>
     </set>
    </array>
   </total>
  </dos>
 </calculation>
 <structure name="finalpos" >
  <crystal>
   <varray name="basis" >
    <v>       4.48509239      -7.76840789       0.00000000 </v>
    <v>       4.48509239       7.76840789       0.00000000 </v>
    <v>       0.00000000       0.00000000       5.74764574 </v>
   </varray>
   <i name="volume">    400.51925684 </i>
   <varray name="rec_basis" >
    <v>       0.11148042      -0.06436325       0.00000000 </v>
    <v>       0.11148042       0.06436325       0.00000000 </v>
    <v>       0.00000000       0.00000000       0.17398428 </v>
   </varray>
  </crystal>
  <varray name="positions" >
   <v>       0.00322365       0.64857047       0.22416757 </v>
   <v>       0.64534682       0.99677635       0.22416757 </v>
   <v>       0.91946139       0.32459369       0.99207830 </v>
   <v>       0.64857047       0.00322365       0.72416757 </v>
   <v>       0.08053861       0.40513230       0.49207830 </v>
   <v>       0.32459369       0.91946139       0.49207830 </v>
   <v>       0.35142953       0.35465318       0.22416757 </v>
   <v>       0.59486770       0.67540631       0.49207830 </v>
   <v>       0.99677635       0.64534682       0.72416757 </v>
   <v>       0.35465318       0.35142953       0.72416757 </v>
   <v>       0.67540631       0.59486770       0.99207830 </v>
   <v>       0.40513230       0.08053861       0.99207830 </v>
   <v>       0.21239150       0.30061252       0.47453119 </v>
   <v>       0.08822101       0.78760850       0.47453119 </v>
   <v>       0.30061252       0.21239150       0.97453119 </v>
   <v>       0.69938748       0.91177899       0.47453119 </v>
   <v>      -0.00000000      -0.00000000       0.97117263 </v>
   <v>       0.05940817       0.48303582       0.77513122 </v>
   <v>      -0.00000000      -0.00000000       0.47117263 </v>
   <v>       0.66666667       0.33333333       0.42723021 </v>
   <v>       0.57637235       0.51696418       0.27513122 </v>
   <v>       0.78760850       0.08822101       0.97453119 </v>
   <v>       0.91177899       0.69938748       0.97453119 </v>
   <v>       0.33333333       0.66666667       0.92723021 </v>
   <v>       0.94059183       0.42362765       0.27513122 </v>
   <v>       0.42362765       0.94059183       0.77513122 </v>
   <v>       0.51696418       0.57637235       0.77513122 </v>
   <v>       0.48303582       0.05940817       0.27513122 </v>
  </varray>
 </structure>
</modeling>
