unknown system                          
           1
     4.485092   -7.768408    0.000000
     4.485092    7.768408    0.000000
     0.000000    0.000000    5.747646
   Si   N 
  12  16
Direct configuration=     1
   0.00847736  0.64712623  0.21326215
   0.63864887  0.99152264  0.21326215
   0.91417805  0.32157747  0.99187268
   0.64712623  0.00847736  0.71326215
   0.08582195  0.40739942  0.49187268
   0.32157747  0.91417805  0.49187268
   0.35287377  0.36135113  0.21326215
   0.59260058  0.67842253  0.49187268
   0.99152264  0.63864887  0.71326215
   0.36135113  0.35287377  0.71326215
   0.67842253  0.59260058  0.99187268
   0.40739942  0.08582195  0.99187268
   0.21311138  0.30040483  0.46674092
   0.08729345  0.78688862  0.46674092
   0.30040483  0.21311138  0.96674092
   0.69959517  0.91270655  0.46674092
   0.00000000  0.00000000  0.95692726
   0.06686359  0.48449764  0.78259872
   0.00000000  0.00000000  0.45692726
   0.66666667  0.33333333  0.47577702
   0.58236595  0.51550236  0.28259872
   0.78688862  0.08729345  0.96674092
   0.91270655  0.69959517  0.96674092
   0.33333333  0.66666667  0.97577702
   0.93313641  0.41763405  0.28259872
   0.41763405  0.93313641  0.78259872
   0.51550236  0.58236595  0.78259872
   0.48449764  0.06686359  0.28259872
Direct configuration=     2
   0.00593976  0.64691589  0.21585815
   0.64097613  0.99406024  0.21585815
   0.91547798  0.32235255  0.99445006
   0.64691589  0.00593976  0.71585815
   0.08452202  0.40687457  0.49445006
   0.32235255  0.91547798  0.49445006
   0.35308411  0.35902387  0.21585815
   0.59312543  0.67764745  0.49445006
   0.99406024  0.64097613  0.71585815
   0.35902387  0.35308411  0.71585815
   0.67764745  0.59312543  0.99445006
   0.40687457  0.08452202  0.99445006
   0.21621697  0.30419820  0.46702769
   0.08798123  0.78378303  0.46702769
   0.30419820  0.21621697  0.96702769
   0.69580180  0.91201877  0.46702769
  -0.00000000 -0.00000000  0.95758767
   0.06456067  0.48432991  0.77973196
  -0.00000000 -0.00000000  0.45758767
   0.66666667  0.33333333  0.46733646
   0.58023075  0.51567009  0.27973196
   0.78378303  0.08798123  0.96702769
   0.91201877  0.69580180  0.96702769
   0.33333333  0.66666667  0.96733646
   0.93543933  0.41976925  0.27973196
   0.41976925  0.93543933  0.77973196
   0.51567009  0.58023075  0.77973196
   0.48432991  0.06456067  0.27973196
Direct configuration=     3
   0.00509106  0.64684554  0.21672638
   0.64175448  0.99490894  0.21672638
   0.91591275  0.32261178  0.99531206
   0.64684554  0.00509106  0.71672638
   0.08408725  0.40669904  0.49531206
   0.32261178  0.91591275  0.49531206
   0.35315446  0.35824552  0.21672638
   0.59330096  0.67738822  0.49531206
   0.99490894  0.64175448  0.71672638
   0.35824552  0.35315446  0.71672638
   0.67738822  0.59330096  0.99531206
   0.40669904  0.08408725  0.99531206
   0.21725563  0.30546690  0.46712360
   0.08821126  0.78274437  0.46712360
   0.30546690  0.21725563  0.96712360
   0.69453310  0.91178874  0.46712360
  -0.00000000 -0.00000000  0.95780854
   0.06379045  0.48427382  0.77877317
  -0.00000000 -0.00000000  0.45780854
   0.66666667  0.33333333  0.46451352
   0.57951663  0.51572618  0.27877317
   0.78274437  0.08821126  0.96712360
   0.91178874  0.69453310  0.96712360
   0.33333333  0.66666667  0.96451352
   0.93620955  0.42048337  0.27877317
   0.42048337  0.93620955  0.77877317
   0.51572618  0.57951663  0.77877317
   0.48427382  0.06379045  0.27877317
Direct configuration=     4
   0.00302359  0.64524326  0.21887548
   0.64221968  0.99697641  0.21887548
   0.91686641  0.32350426  0.99465200
   0.64524326  0.00302359  0.71887548
   0.08313359  0.40663785  0.49465200
   0.32350426  0.91686641  0.49465200
   0.35475674  0.35778032  0.21887548
   0.59336215  0.67649574  0.49465200
   0.99697641  0.64221968  0.71887548
   0.35778032  0.35475674  0.71887548
   0.67649574  0.59336215  0.99465200
   0.40663785  0.08313359  0.99465200
   0.21581697  0.30505348  0.46901513
   0.08923651  0.78418303  0.46901513
   0.30505348  0.21581697  0.96901513
   0.69494652  0.91076349  0.46901513
  -0.00000000 -0.00000000  0.95886398
   0.06281705  0.48387183  0.77868863
  -0.00000000 -0.00000000  0.45886398
   0.66666667  0.33333333  0.45356999
   0.57894522  0.51612817  0.27868863
   0.78418303  0.08923651  0.96901513
   0.91076349  0.69494652  0.96901513
   0.33333333  0.66666667  0.95356999
   0.93718295  0.42105478  0.27868863
   0.42105478  0.93718295  0.77868863
   0.51612817  0.57894522  0.77868863
   0.48387183  0.06281705  0.27868863
Direct configuration=     5
   0.00118329  0.64381705  0.22078843
   0.64263376  0.99881671  0.22078843
   0.91771529  0.32429867  0.99406447
   0.64381705  0.00118329  0.72078843
   0.08228471  0.40658338  0.49406447
   0.32429867  0.91771529  0.49406447
   0.35618295  0.35736624  0.22078843
   0.59341662  0.67570133  0.49406447
   0.99881671  0.64263376  0.72078843
   0.35736624  0.35618295  0.72078843
   0.67570133  0.59341662  0.99406447
   0.40658338  0.08228471  0.99406447
   0.21453640  0.30468549  0.47069881
   0.09014910  0.78546360  0.47069881
   0.30468549  0.21453640  0.97069881
   0.69531451  0.90985090  0.47069881
  -0.00000000 -0.00000000  0.95980344
   0.06195061  0.48351401  0.77861338
  -0.00000000 -0.00000000  0.45980344
   0.66666667  0.33333333  0.44382895
   0.57843659  0.51648599  0.27861338
   0.78546360  0.09014910  0.97069881
   0.90985090  0.69531451  0.97069881
   0.33333333  0.66666667  0.94382895
   0.93804939  0.42156341  0.27861338
   0.42156341  0.93804939  0.77861338
   0.51648599  0.57843659  0.77861338
   0.48351401  0.06195061  0.27861338
Direct configuration=     6
   0.00145676  0.64625153  0.22367778
   0.64479477  0.99854324  0.22367778
   0.91825900  0.32454007  0.99271809
   0.64625153  0.00145676  0.72367778
   0.08174100  0.40628108  0.49271809
   0.32454007  0.91825900  0.49271809
   0.35374847  0.35520523  0.22367778
   0.59371892  0.67545993  0.49271809
   0.99854324  0.64479477  0.72367778
   0.35520523  0.35374847  0.72367778
   0.67545993  0.59371892  0.99271809
   0.40628108  0.08174100  0.99271809
   0.21406060  0.30326404  0.47178658
   0.08920343  0.78593940  0.47178658
   0.30326404  0.21406060  0.97178658
   0.69673596  0.91079657  0.47178658
  -0.00000000 -0.00000000  0.96162254
   0.06189515  0.48273912  0.77842248
  -0.00000000 -0.00000000  0.46162254
   0.66666667  0.33333333  0.43469036
   0.57915603  0.51726088  0.27842248
   0.78593940  0.08920343  0.97178658
   0.91079657  0.69673596  0.97178658
   0.33333333  0.66666667  0.93469036
   0.93810485  0.42084397  0.27842248
   0.42084397  0.93810485  0.77842248
   0.51726088  0.57915603  0.77842248
   0.48273912  0.06189515  0.27842248
Direct configuration=     7
   0.00146357  0.64631212  0.22374970
   0.64484855  0.99853643  0.22374970
   0.91827253  0.32454608  0.99268458
   0.64631212  0.00146357  0.72374970
   0.08172747  0.40627355  0.49268458
   0.32454608  0.91827253  0.49268458
   0.35368788  0.35515145  0.22374970
   0.59372645  0.67545392  0.49268458
   0.99853643  0.64484855  0.72374970
   0.35515145  0.35368788  0.72374970
   0.67545392  0.59372645  0.99268458
   0.40627355  0.08172747  0.99268458
   0.21404876  0.30322866  0.47181365
   0.08917990  0.78595124  0.47181365
   0.30322866  0.21404876  0.97181365
   0.69677134  0.91082010  0.47181365
  -0.00000000 -0.00000000  0.96166781
   0.06189377  0.48271983  0.77841772
  -0.00000000 -0.00000000  0.46166781
   0.66666667  0.33333333  0.43446290
   0.57917394  0.51728017  0.27841772
   0.78595124  0.08917990  0.97181365
   0.91082010  0.69677134  0.97181365
   0.33333333  0.66666667  0.93446290
   0.93810623  0.42082606  0.27841772
   0.42082606  0.93810623  0.77841772
   0.51728017  0.57917394  0.77841772
   0.48271983  0.06189377  0.27841772
Direct configuration=     8
   0.00156386  0.64714272  0.22452749
   0.64557886  0.99843614  0.22452749
   0.91838942  0.32409996  0.99266384
   0.64714272  0.00156386  0.72452749
   0.08161058  0.40571055  0.49266384
   0.32409996  0.91838942  0.49266384
   0.35285728  0.35442114  0.22452749
   0.59428945  0.67590004  0.49266384
   0.99843614  0.64557886  0.72452749
   0.35442114  0.35285728  0.72452749
   0.67590004  0.59428945  0.99266384
   0.40571055  0.08161058  0.99266384
   0.21349116  0.30156964  0.47334944
   0.08807848  0.78650884  0.47334944
   0.30156964  0.21349116  0.97334944
   0.69843036  0.91192152  0.47334944
  -0.00000000 -0.00000000  0.96359707
   0.06092173  0.48286793  0.77649243
  -0.00000000 -0.00000000  0.46359707
   0.66666667  0.33333333  0.43143102
   0.57805381  0.51713207  0.27649243
   0.78650884  0.08807848  0.97334944
   0.91192152  0.69843036  0.97334944
   0.33333333  0.66666667  0.93143102
   0.93907827  0.42194619  0.27649243
   0.42194619  0.93907827  0.77649243
   0.51713207  0.57805381  0.77649243
   0.48286793  0.06092173  0.27649243
Direct configuration=     9
   0.00161281  0.64754809  0.22490708
   0.64593528  0.99838719  0.22490708
   0.91844646  0.32388224  0.99265372
   0.64754809  0.00161281  0.72490708
   0.08155354  0.40543578  0.49265372
   0.32388224  0.91844646  0.49265372
   0.35245191  0.35406472  0.22490708
   0.59456422  0.67611776  0.49265372
   0.99838719  0.64593528  0.72490708
   0.35406472  0.35245191  0.72490708
   0.67611776  0.59456422  0.99265372
   0.40543578  0.08155354  0.99265372
   0.21321904  0.30075998  0.47409896
   0.08754095  0.78678096  0.47409896
   0.30075998  0.21321904  0.97409896
   0.69924002  0.91245905  0.47409896
  -0.00000000 -0.00000000  0.96453862
   0.06044734  0.48294020  0.77555282
  -0.00000000 -0.00000000  0.46453862
   0.66666667  0.33333333  0.42995135
   0.57750714  0.51705980  0.27555282
   0.78678096  0.08754095  0.97409896
   0.91245905  0.69924002  0.97409896
   0.33333333  0.66666667  0.92995135
   0.93955266  0.42249286  0.27555282
   0.42249286  0.93955266  0.77555282
   0.51705980  0.57750714  0.77555282
   0.48294020  0.06044734  0.27555282
Direct configuration=    10
   0.00208172  0.64781274  0.22491009
   0.64573102  0.99791828  0.22491009
   0.91899242  0.32411306  0.99190000
   0.64781274  0.00208172  0.72491009
   0.08100758  0.40512064  0.49190000
   0.32411306  0.91899242  0.49190000
   0.35218726  0.35426898  0.22491009
   0.59487936  0.67588694  0.49190000
   0.99791828  0.64573102  0.72491009
   0.35426898  0.35218726  0.72491009
   0.67588694  0.59487936  0.99190000
   0.40512064  0.08100758  0.99190000
   0.21265720  0.30049849  0.47465059
   0.08784128  0.78734280  0.47465059
   0.30049849  0.21265720  0.97465059
   0.69950151  0.91215872  0.47465059
  -0.00000000 -0.00000000  0.96621801
   0.05960571  0.48265376  0.77540662
  -0.00000000 -0.00000000  0.46621801
   0.66666667  0.33333333  0.42930778
   0.57695195  0.51734624  0.27540662
   0.78734280  0.08784128  0.97465059
   0.91215872  0.69950151  0.97465059
   0.33333333  0.66666667  0.92930778
   0.94039429  0.42304805  0.27540662
   0.42304805  0.94039429  0.77540662
   0.51734624  0.57695195  0.77540662
   0.48265376  0.05960571  0.27540662
Direct configuration=    11
   0.00211994  0.64783431  0.22491034
   0.64571438  0.99788006  0.22491034
   0.91903692  0.32413187  0.99183857
   0.64783431  0.00211994  0.72491034
   0.08096308  0.40509496  0.49183857
   0.32413187  0.91903692  0.49183857
   0.35216569  0.35428562  0.22491034
   0.59490504  0.67586813  0.49183857
   0.99788006  0.64571438  0.72491034
   0.35428562  0.35216569  0.72491034
   0.67586813  0.59490504  0.99183857
   0.40509496  0.08096308  0.99183857
   0.21261141  0.30047717  0.47469555
   0.08786576  0.78738859  0.47469555
   0.30047717  0.21261141  0.97469555
   0.69952283  0.91213424  0.47469555
  -0.00000000 -0.00000000  0.96635488
   0.05953712  0.48263042  0.77539470
  -0.00000000 -0.00000000  0.46635488
   0.66666667  0.33333333  0.42925532
   0.57690670  0.51736958  0.27539470
   0.78738859  0.08786576  0.97469555
   0.91213424  0.69952283  0.97469555
   0.33333333  0.66666667  0.92925532
   0.94046288  0.42309330  0.27539470
   0.42309330  0.94046288  0.77539470
   0.51736958  0.57690670  0.77539470
   0.48263042  0.05953712  0.27539470
Direct configuration=    12
   0.00273127  0.64831921  0.22484314
   0.64558794  0.99726873  0.22484314
   0.91933639  0.32433246  0.99191449
   0.64831921  0.00273127  0.72484314
   0.08066361  0.40499606  0.49191449
   0.32433246  0.91933639  0.49191449
   0.35168079  0.35441206  0.22484314
   0.59500394  0.67566754  0.49191449
   0.99726873  0.64558794  0.72484314
   0.35441206  0.35168079  0.72484314
   0.67566754  0.59500394  0.99191449
   0.40499606  0.08066361  0.99191449
   0.21257351  0.30073736  0.47462122
   0.08816385  0.78742649  0.47462122
   0.30073736  0.21257351  0.97462122
   0.69926264  0.91183615  0.47462122
  -0.00000000 -0.00000000  0.96812943
   0.05947879  0.48273377  0.77514092
  -0.00000000 -0.00000000  0.46812943
   0.66666667  0.33333333  0.42843896
   0.57674502  0.51726623  0.27514092
   0.78742649  0.08816385  0.97462122
   0.91183615  0.69926264  0.97462122
   0.33333333  0.66666667  0.92843896
   0.94052121  0.42325498  0.27514092
   0.42325498  0.94052121  0.77514092
   0.51726623  0.57674502  0.77514092
   0.48273377  0.05947879  0.27514092
Direct configuration=    13
   0.00308254  0.64859784  0.22480453
   0.64551529  0.99691746  0.22480453
   0.91950848  0.32444771  0.99195811
   0.64859784  0.00308254  0.72480453
   0.08049152  0.40493924  0.49195811
   0.32444771  0.91950848  0.49195811
   0.35140216  0.35448471  0.22480453
   0.59506076  0.67555229  0.49195811
   0.99691746  0.64551529  0.72480453
   0.35448471  0.35140216  0.72480453
   0.67555229  0.59506076  0.99195811
   0.40493924  0.08049152  0.99195811
   0.21255174  0.30088687  0.47457851
   0.08833513  0.78744826  0.47457851
   0.30088687  0.21255174  0.97457851
   0.69911313  0.91166487  0.47457851
  -0.00000000 -0.00000000  0.96914910
   0.05944528  0.48279315  0.77499509
  -0.00000000 -0.00000000  0.46914910
   0.66666667  0.33333333  0.42796987
   0.57665212  0.51720685  0.27499509
   0.78744826  0.08833513  0.97457851
   0.91166487  0.69911313  0.97457851
   0.33333333  0.66666667  0.92796987
   0.94055472  0.42334788  0.27499509
   0.42334788  0.94055472  0.77499509
   0.51720685  0.57665212  0.77499509
   0.48279315  0.05944528  0.27499509
Direct configuration=    14
   0.00340854  0.64859808  0.22419877
   0.64518954  0.99659146  0.22419877
   0.91964279  0.32466672  0.99221927
   0.64859808  0.00340854  0.72419877
   0.08035721  0.40502393  0.49221927
   0.32466672  0.91964279  0.49221927
   0.35140192  0.35481046  0.22419877
   0.59497607  0.67533328  0.49221927
   0.99659146  0.64518954  0.72419877
   0.35481046  0.35140192  0.72419877
   0.67533328  0.59497607  0.99221927
   0.40502393  0.08035721  0.99221927
   0.21239380  0.30075682  0.47469504
   0.08836303  0.78760620  0.47469504
   0.30075682  0.21239380  0.97469504
   0.69924318  0.91163697  0.47469504
  -0.00000000 -0.00000000  0.97116712
   0.05954775  0.48321384  0.77487488
  -0.00000000 -0.00000000  0.47116712
   0.66666667  0.33333333  0.42699665
   0.57633391  0.51678616  0.27487488
   0.78760620  0.08836303  0.97469504
   0.91163697  0.69924318  0.97469504
   0.33333333  0.66666667  0.92699665
   0.94045225  0.42366609  0.27487488
   0.42366609  0.94045225  0.77487488
   0.51678616  0.57633391  0.77487488
   0.48321384  0.05954775  0.27487488
Direct configuration=    15
   0.00334487  0.64859803  0.22431708
   0.64525316  0.99665513  0.22431708
   0.91961656  0.32462395  0.99216827
   0.64859803  0.00334487  0.72431708
   0.08038344  0.40500739  0.49216827
   0.32462395  0.91961656  0.49216827
   0.35140197  0.35474684  0.22431708
   0.59499261  0.67537605  0.49216827
   0.99665513  0.64525316  0.72431708
   0.35474684  0.35140197  0.72431708
   0.67537605  0.59499261  0.99216827
   0.40500739  0.08038344  0.99216827
   0.21242464  0.30078222  0.47467228
   0.08835758  0.78757536  0.47467228
   0.30078222  0.21242464  0.97467228
   0.69921778  0.91164242  0.47467228
  -0.00000000 -0.00000000  0.97077300
   0.05952773  0.48313168  0.77489836
  -0.00000000 -0.00000000  0.47077300
   0.66666667  0.33333333  0.42718672
   0.57639606  0.51686832  0.27489836
   0.78757536  0.08835758  0.97467228
   0.91164242  0.69921778  0.97467228
   0.33333333  0.66666667  0.92718672
   0.94047227  0.42360394  0.27489836
   0.42360394  0.94047227  0.77489836
   0.51686832  0.57639606  0.77489836
   0.48313168  0.05952773  0.27489836
Direct configuration=    16
   0.00325248  0.64857702  0.22420313
   0.64532454  0.99674752  0.22420313
   0.91949830  0.32460089  0.99209970
   0.64857702  0.00325248  0.72420313
   0.08050170  0.40510259  0.49209970
   0.32460089  0.91949830  0.49209970
   0.35142298  0.35467546  0.22420313
   0.59489741  0.67539911  0.49209970
   0.99674752  0.64532454  0.72420313
   0.35467546  0.35142298  0.72420313
   0.67539911  0.59489741  0.99209970
   0.40510259  0.08050170  0.99209970
   0.21239939  0.30065288  0.47456475
   0.08825350  0.78760061  0.47456475
   0.30065288  0.21239939  0.97456475
   0.69934712  0.91174650  0.47456475
  -0.00000000 -0.00000000  0.97107758
   0.05943661  0.48305862  0.77507583
  -0.00000000 -0.00000000  0.47107758
   0.66666667  0.33333333  0.42721987
   0.57637799  0.51694138  0.27507583
   0.78760061  0.08825350  0.97456475
   0.91174650  0.69934712  0.97456475
   0.33333333  0.66666667  0.92721987
   0.94056339  0.42362201  0.27507583
   0.42362201  0.94056339  0.77507583
   0.51694138  0.57637799  0.77507583
   0.48305862  0.05943661  0.27507583
Direct configuration=    17
   0.00322365  0.64857047  0.22416757
   0.64534682  0.99677635  0.22416757
   0.91946139  0.32459369  0.99207830
   0.64857047  0.00322365  0.72416757
   0.08053861  0.40513230  0.49207830
   0.32459369  0.91946139  0.49207830
   0.35142953  0.35465318  0.22416757
   0.59486770  0.67540631  0.49207830
   0.99677635  0.64534682  0.72416757
   0.35465318  0.35142953  0.72416757
   0.67540631  0.59486770  0.99207830
   0.40513230  0.08053861  0.99207830
   0.21239150  0.30061252  0.47453119
   0.08822101  0.78760850  0.47453119
   0.30061252  0.21239150  0.97453119
   0.69938748  0.91177899  0.47453119
  -0.00000000 -0.00000000  0.97117263
   0.05940817  0.48303582  0.77513122
  -0.00000000 -0.00000000  0.47117263
   0.66666667  0.33333333  0.42723021
   0.57637235  0.51696418  0.27513122
   0.78760850  0.08822101  0.97453119
   0.91177899  0.69938748  0.97453119
   0.33333333  0.66666667  0.92723021
   0.94059183  0.42362765  0.27513122
   0.42362765  0.94059183  0.77513122
   0.51696418  0.57637235  0.77513122
   0.48303582  0.05940817  0.27513122
