  56  56   0   0
  0.9684854E+01  0.8155058E-09  0.8155058E-09  0.8155058E-09  0.5000000E-15
  1.000000000000000E-004
  CAR 
 unknown system                          
     17.53452301    -10.15880135  301     12.04112989      1.00000000
    -10.159  0.0000E+00  0.0000E+00
    -10.066  0.0000E+00  0.0000E+00
     -9.974  0.0000E+00  0.0000E+00
     -9.882  0.0000E+00  0.0000E+00
     -9.790  0.4106E-35  0.3790E-36
     -9.697  0.1703E-28  0.1572E-29
     -9.605  0.1230E-22  0.1135E-23
     -9.513  0.1538E-17  0.1419E-18
     -9.420  0.3304E-13  0.3050E-14
     -9.328  0.1203E-09  0.1110E-10
     -9.236  0.7295E-07  0.6745E-08
     -9.143  0.6891E-05  0.6428E-06
     -9.051  0.5650E-04  0.5858E-05
     -8.959 -0.4692E-03 -0.3745E-04
     -8.866  0.4035E-02  0.3350E-03
     -8.774  0.1750E-01  0.1951E-02
     -8.682  0.3151E-01  0.4859E-02
     -8.590  0.3276E-01  0.7884E-02
     -8.497  0.4527E-01  0.1206E-01
     -8.405  0.5090E-01  0.1676E-01
     -8.313  0.5605E-01  0.2193E-01
     -8.220  0.5244E-01  0.2678E-01
     -8.128  0.8391E-01  0.3452E-01
     -8.036  0.7349E-01  0.4131E-01
     -7.943  0.6257E-01  0.4708E-01
     -7.851  0.1139E+00  0.5759E-01
     -7.759  0.1071E+00  0.6748E-01
     -7.666  0.9206E-01  0.7598E-01
     -7.574  0.1414E+00  0.8903E-01
     -7.482  0.1619E+00  0.1040E+00
     -7.389  0.1613E+00  0.1189E+00
     -7.297  0.1812E+00  0.1356E+00
     -7.205  0.1995E+00  0.1540E+00
     -7.113  0.2955E+00  0.1813E+00
     -7.020  0.3197E+00  0.2108E+00
     -6.928  0.2156E+00  0.2307E+00
     -6.836  0.1503E+00  0.2446E+00
     -6.743  0.1421E+00  0.2577E+00
     -6.651  0.6849E-01  0.2640E+00
     -6.559  0.4181E-01  0.2679E+00
     -6.466  0.1208E+00  0.2790E+00
     -6.374  0.8379E-01  0.2868E+00
     -6.282  0.5061E-01  0.2914E+00
     -6.189  0.7678E-01  0.2985E+00
     -6.097  0.9761E-01  0.3075E+00
     -6.005  0.3375E-01  0.3106E+00
     -5.912  0.2803E-01  0.3132E+00
     -5.820  0.3858E-01  0.3168E+00
     -5.728 -0.8924E-02  0.3160E+00
     -5.636  0.2210E+00  0.3364E+00
     -5.543  0.1037E+01  0.4321E+00
     -5.451  0.5575E+00  0.4835E+00
     -5.359 -0.4081E-01  0.4798E+00
     -5.266  0.1279E-02  0.4799E+00
     -5.174  0.1081E-02  0.4800E+00
     -5.082  0.1420E-04  0.4800E+00
     -4.989  0.2483E-07  0.4800E+00
     -4.897  0.6932E-11  0.4800E+00
     -4.805  0.3223E-15  0.4800E+00
     -4.712  0.0000E+00  0.4800E+00
     -4.620  0.0000E+00  0.4800E+00
     -4.528  0.0000E+00  0.4800E+00
     -4.436  0.0000E+00  0.4800E+00
     -4.343  0.0000E+00  0.4800E+00
     -4.251  0.0000E+00  0.4800E+00
     -4.159  0.0000E+00  0.4800E+00
     -4.066  0.0000E+00  0.4800E+00
     -3.974  0.0000E+00  0.4800E+00
     -3.882  0.0000E+00  0.4800E+00
     -3.789  0.0000E+00  0.4800E+00
     -3.697  0.0000E+00  0.4800E+00
     -3.605  0.0000E+00  0.4800E+00
     -3.512  0.0000E+00  0.4800E+00
     -3.420  0.0000E+00  0.4800E+00
     -3.328  0.0000E+00  0.4800E+00
     -3.235  0.0000E+00  0.4800E+00
     -3.143  0.0000E+00  0.4800E+00
     -3.051  0.0000E+00  0.4800E+00
     -2.959  0.0000E+00  0.4800E+00
     -2.866  0.0000E+00  0.4800E+00
     -2.774  0.0000E+00  0.4800E+00
     -2.682  0.0000E+00  0.4800E+00
     -2.589  0.0000E+00  0.4800E+00
     -2.497  0.0000E+00  0.4800E+00
     -2.405  0.0000E+00  0.4800E+00
     -2.312  0.0000E+00  0.4800E+00
     -2.220  0.0000E+00  0.4800E+00
     -2.128  0.0000E+00  0.4800E+00
     -2.035  0.0000E+00  0.4800E+00
     -1.943  0.0000E+00  0.4800E+00
     -1.851  0.0000E+00  0.4800E+00
     -1.758  0.0000E+00  0.4800E+00
     -1.666  0.0000E+00  0.4800E+00
     -1.574  0.0000E+00  0.4800E+00
     -1.482  0.0000E+00  0.4800E+00
     -1.389  0.0000E+00  0.4800E+00
     -1.297  0.0000E+00  0.4800E+00
     -1.205  0.0000E+00  0.4800E+00
     -1.112  0.0000E+00  0.4800E+00
     -1.020  0.4614E-29  0.4800E+00
     -0.928  0.3867E-23  0.4800E+00
     -0.835  0.5560E-18  0.4800E+00
     -0.743  0.1345E-13  0.4800E+00
     -0.651  0.5264E-10  0.4800E+00
     -0.558  0.3166E-07  0.4800E+00
     -0.466  0.2940E-05  0.4800E+00
     -0.374  0.6767E-04  0.4800E+00
     -0.282  0.1070E-03  0.4800E+00
     -0.189 -0.1443E-02  0.4799E+00
     -0.097  0.3470E-01  0.4831E+00
     -0.005  0.9679E-01  0.4920E+00
      0.088  0.1386E+00  0.5048E+00
      0.180  0.3031E+00  0.5328E+00
      0.272  0.2887E+00  0.5594E+00
      0.365  0.3568E+00  0.5924E+00
      0.457  0.3343E+00  0.6232E+00
      0.549  0.2801E+00  0.6491E+00
      0.642  0.2560E+00  0.6727E+00
      0.734  0.2243E+00  0.6934E+00
      0.826  0.2788E+00  0.7192E+00
      0.919  0.1235E+00  0.7306E+00
      1.011  0.1703E+00  0.7463E+00
      1.103  0.2174E+00  0.7663E+00
      1.195  0.1773E+00  0.7827E+00
      1.288  0.2059E+00  0.8017E+00
      1.380  0.1587E+00  0.8164E+00
      1.472  0.1185E+00  0.8273E+00
      1.565  0.5527E-01  0.8324E+00
      1.657  0.4661E-01  0.8367E+00
      1.749  0.2140E+00  0.8565E+00
      1.842  0.1585E+00  0.8711E+00
      1.934  0.8811E-01  0.8792E+00
      2.026  0.2596E+00  0.9032E+00
      2.119  0.2079E+00  0.9224E+00
      2.211  0.1918E+00  0.9401E+00
      2.303  0.2759E+00  0.9656E+00
      2.396  0.2244E+00  0.9863E+00
      2.488  0.1740E+00  0.1002E+01
      2.580  0.1874E+00  0.1020E+01
      2.672  0.1199E+00  0.1031E+01
      2.765  0.1183E+00  0.1042E+01
      2.857  0.1464E+00  0.1055E+01
      2.949  0.1435E+00  0.1068E+01
      3.042  0.1264E+00  0.1080E+01
      3.134  0.1784E+00  0.1097E+01
      3.226  0.1541E+00  0.1111E+01
      3.319  0.5515E-01  0.1116E+01
      3.411  0.1737E+00  0.1132E+01
      3.503  0.3307E+00  0.1162E+01
      3.596  0.2797E+00  0.1188E+01
      3.688  0.2332E+00  0.1210E+01
      3.780  0.3831E+00  0.1245E+01
      3.872  0.3406E+00  0.1277E+01
      3.965  0.1882E+00  0.1294E+01
      4.057  0.3361E+00  0.1325E+01
      4.149  0.2189E+00  0.1345E+01
      4.242  0.3640E+00  0.1379E+01
      4.334  0.3610E+00  0.1412E+01
      4.426  0.2312E+00  0.1433E+01
      4.519  0.2693E+00  0.1458E+01
      4.611  0.2490E+00  0.1481E+01
      4.703  0.2414E+00  0.1504E+01
      4.796  0.3215E+00  0.1533E+01
      4.888  0.3964E+00  0.1570E+01
      4.980  0.4054E+00  0.1607E+01
      5.073  0.2359E+00  0.1629E+01
      5.165  0.1528E+00  0.1643E+01
      5.257  0.8605E-01  0.1651E+01
      5.349  0.2369E+00  0.1673E+01
      5.442  0.1706E+00  0.1689E+01
      5.534  0.4927E-01  0.1693E+01
      5.626  0.1583E+00  0.1708E+01
      5.719  0.9631E-01  0.1717E+01
      5.811  0.9305E-01  0.1725E+01
      5.903  0.1382E+00  0.1738E+01
      5.996  0.1153E+00  0.1749E+01
      6.088  0.1232E+00  0.1760E+01
      6.180  0.1193E+00  0.1771E+01
      6.273  0.4616E-01  0.1775E+01
      6.365  0.1111E+00  0.1786E+01
      6.457  0.1335E+00  0.1798E+01
      6.550  0.9712E-01  0.1807E+01
      6.642  0.1332E+00  0.1819E+01
      6.734  0.2450E+00  0.1842E+01
      6.826  0.2800E+00  0.1868E+01
      6.919  0.2508E+00  0.1891E+01
      7.011  0.1459E+00  0.1904E+01
      7.103  0.1017E+00  0.1914E+01
      7.196  0.4820E-01  0.1918E+01
      7.288  0.2025E-01  0.1920E+01
      7.380  0.8078E-04  0.1920E+01
      7.473  0.6446E-03  0.1920E+01
      7.565  0.2290E-04  0.1920E+01
      7.657 -0.1516E-04  0.1920E+01
      7.750 -0.1907E-03  0.1920E+01
      7.842  0.4315E-02  0.1920E+01
      7.934  0.1870E-02  0.1921E+01
      8.026  0.1514E-02  0.1921E+01
      8.119  0.9881E-02  0.1922E+01
      8.211  0.9643E-03  0.1922E+01
      8.303  0.6853E-02  0.1922E+01
      8.396  0.4830E-02  0.1923E+01
      8.488  0.9212E-02  0.1924E+01
      8.580  0.3043E-01  0.1927E+01
      8.673  0.3537E-01  0.1930E+01
      8.765  0.4117E-01  0.1934E+01
      8.857  0.5564E-01  0.1939E+01
      8.950  0.4350E-01  0.1943E+01
      9.042  0.6693E-01  0.1949E+01
      9.134  0.1406E+00  0.1962E+01
      9.227  0.1112E+00  0.1972E+01
      9.319  0.9327E-01  0.1981E+01
      9.411  0.5001E-01  0.1985E+01
      9.503  0.9273E-01  0.1994E+01
      9.596  0.1054E+00  0.2004E+01
      9.688  0.7772E-01  0.2011E+01
      9.780  0.8091E-01  0.2018E+01
      9.873  0.1755E+00  0.2035E+01
      9.965  0.1812E+00  0.2051E+01
     10.057  0.5374E-01  0.2056E+01
     10.150  0.9060E-01  0.2065E+01
     10.242  0.2260E+00  0.2085E+01
     10.334  0.2089E+00  0.2105E+01
     10.427  0.2311E+00  0.2126E+01
     10.519  0.2977E+00  0.2154E+01
     10.611  0.3045E+00  0.2182E+01
     10.704  0.2032E+00  0.2200E+01
     10.796  0.1777E+00  0.2217E+01
     10.888  0.2417E+00  0.2239E+01
     10.980  0.1334E+00  0.2251E+01
     11.073  0.9039E-01  0.2260E+01
     11.165  0.9151E-01  0.2268E+01
     11.257  0.1621E+00  0.2283E+01
     11.350  0.2677E+00  0.2308E+01
     11.442  0.1721E+00  0.2324E+01
     11.534  0.1123E+00  0.2334E+01
     11.627  0.2139E+00  0.2354E+01
     11.719  0.2462E+00  0.2377E+01
     11.811  0.3080E+00  0.2405E+01
     11.904  0.4361E+00  0.2445E+01
     11.996  0.3138E+00  0.2474E+01
     12.088  0.9497E-01  0.2483E+01
     12.180  0.3100E-01  0.2486E+01
     12.273  0.7076E-01  0.2492E+01
     12.365  0.1316E+00  0.2505E+01
     12.457  0.6623E-01  0.2511E+01
     12.550  0.1039E+00  0.2520E+01
     12.642  0.1927E+00  0.2538E+01
     12.734  0.2644E+00  0.2562E+01
     12.827  0.2030E+00  0.2581E+01
     12.919  0.2320E+00  0.2603E+01
     13.011  0.2157E+00  0.2623E+01
     13.104  0.2099E+00  0.2642E+01
     13.196  0.2935E+00  0.2669E+01
     13.288  0.2976E+00  0.2696E+01
     13.381  0.1699E+00  0.2712E+01
     13.473  0.1198E+00  0.2723E+01
     13.565  0.2985E+00  0.2751E+01
     13.657  0.2876E+00  0.2777E+01
     13.750  0.2643E+00  0.2802E+01
     13.842  0.3081E+00  0.2830E+01
     13.934  0.2908E+00  0.2857E+01
     14.027  0.2185E+00  0.2877E+01
     14.119  0.1605E+00  0.2892E+01
     14.211  0.1800E+00  0.2909E+01
     14.304  0.2582E+00  0.2932E+01
     14.396  0.2725E+00  0.2958E+01
     14.488  0.2208E+00  0.2978E+01
     14.581  0.1602E+00  0.2993E+01
     14.673  0.2513E+00  0.3016E+01
     14.765  0.2039E+00  0.3035E+01
     14.858  0.1875E+00  0.3052E+01
     14.950  0.1688E+00  0.3068E+01
     15.042  0.1056E+00  0.3077E+01
     15.134  0.9023E-01  0.3086E+01
     15.227  0.8378E-01  0.3093E+01
     15.319  0.6260E-01  0.3099E+01
     15.411  0.7338E-01  0.3106E+01
     15.504  0.6004E-01  0.3112E+01
     15.596  0.5927E-02  0.3112E+01
     15.688  0.1307E-01  0.3113E+01
     15.781  0.1559E-01  0.3115E+01
     15.873  0.2947E-01  0.3118E+01
     15.965  0.2528E-01  0.3120E+01
     16.058 -0.9442E-04  0.3120E+01
     16.150 -0.2935E-03  0.3120E+01
     16.242  0.5680E-03  0.3120E+01
     16.334  0.1576E-02  0.3120E+01
     16.427  0.1777E-04  0.3120E+01
     16.519 -0.1916E-04  0.3120E+01
     16.611  0.4377E-05  0.3120E+01
     16.704  0.7671E-07  0.3120E+01
     16.796  0.1492E-09  0.3120E+01
     16.888  0.4288E-13  0.3120E+01
     16.981  0.2004E-17  0.3120E+01
     17.073  0.0000E+00  0.3120E+01
     17.165  0.0000E+00  0.3120E+01
     17.258  0.0000E+00  0.3120E+01
     17.350  0.0000E+00  0.3120E+01
     17.442  0.0000E+00  0.3120E+01
     17.535  0.0000E+00  0.3120E+01
