   56   56  100    1
  0.9684854E+01  0.8155058E-09  0.8155058E-09  0.8155058E-09  0.5000000E-15
  1.000000000000000E-004
  CAR 
 unknown system                          
    248     20    156
 
  0.3742002E-15  0.3742002E-15  0.3742002E-15  0.4629630E-02
    1       -8.900014   1.000000
    2       -7.612960   1.000000
    3       -7.612960   1.000000
    4       -7.612960   1.000000
    5       -7.612959   1.000000
    6       -7.612959   1.000000
    7       -7.612959   1.000000
    8       -7.027811   1.000000
    9       -6.929624   1.000000
   10       -6.929624   1.000000
   11       -6.929624   1.000000
   12       -6.929616   1.000000
   13       -6.929616   1.000000
   14       -6.929616   1.000000
   15       -6.733415   1.000000
   16       -5.687936   1.000000
   17       -5.687936   1.000000
   18       -5.687936   1.000000
   19       -5.687936   1.000000
   20       -5.687936   1.000000
   21       -5.687936   1.000000
   22       -5.508961   1.000000
   23       -5.508961   1.000000
   24       -5.508961   1.000000
   25       -0.214470   1.000000
   26        0.004434   1.000000
   27        0.004434   1.000000
   28        0.004434   1.000000
   29        0.572811   1.000000
   30        0.572811   1.000000
   31        0.572811   1.000000
   32        0.572811   1.000000
   33        0.572811   1.000000
   34        0.572811   1.000000
   35        1.110773   1.000000
   36        1.110773   1.000000
   37        1.110773   1.000000
   38        1.110778   1.000000
   39        1.110778   1.000000
   40        1.110778   1.000000
   41        1.824679   1.000000
   42        1.824679   1.000000
   43        1.824679   1.000000
   44        2.247054   1.000000
   45        2.247054   1.000000
   46        2.266279   1.000000
   47        2.266279   1.000000
   48        2.266279   1.000000
   49        2.266283   1.000000
   50        2.266283   1.000000
   51        2.266283   1.000000
   52        2.822486   1.000000
   53        2.822486   1.000000
   54        2.822486   1.000000
   55        2.822486   1.000000
   56        2.822486   1.000000
   57        2.822486   1.000000
   58        3.770452   1.000000
   59        3.770452   1.000000
   60        3.770452   1.000000
   61        3.770453   1.000000
   62        3.770453   1.000000
   63        3.770453   1.000000
   64        4.008860   1.000000
   65        4.008860   1.000000
   66        4.008860   1.000000
   67        4.008860   1.000000
   68        4.008860   1.000000
   69        4.008860   1.000000
   70        4.075524   1.000000
   71        4.075524   1.000000
   72        4.075524   1.000000
   73        4.075524   1.000000
   74        4.075524   1.000000
   75        4.075524   1.000000
   76        4.412677   1.000000
   77        4.412677   1.000000
   78        4.412677   1.000000
   79        4.788125   1.000000
   80        4.788125   1.000000
   81        4.788125   1.000000
   82        4.788125   1.000000
   83        4.788125   1.000000
   84        4.788125   1.000000
   85        6.051093   1.000000
   86        6.051093   1.000000
   87        6.051093   1.000000
   88        6.762954   1.000000
   89        6.762954   1.000000
   90        6.762954   1.000000
   91        6.762954   1.000000
   92        6.762954   1.000000
   93        6.762954   1.000000
   94        7.270215   1.000000
   95        7.270215   1.000000
   96        7.270215   1.000000
   97        7.395723   1.000000
   98       10.132030   1.000000
   99       10.132030   1.000000
  100       10.132030   1.000000
  101       10.132031   1.000000
  102       10.132031   1.000000
  103       10.132031   1.000000
  104       10.444916   1.000000
  105       10.444916   1.000000
  106       10.444916   1.000000
  107       10.826809   1.000000
  108       10.826809   1.000000
  109       10.826809   1.000000
  110       10.826809   1.000000
  111       10.826809   1.000000
  112       10.826809   1.000000
  113       11.110188   1.000000
  114       11.110188   1.000000
  115       11.110188   1.000000
  116       11.187519   1.000000
  117       11.187519   1.000000
  118       11.187519   1.000000
  119       11.187539   1.000000
  120       11.187539   1.000000
  121       11.187539   1.000000
  122       11.518697   1.000000
  123       11.518697   1.000000
  124       11.518697   1.000000
  125       11.518697   1.000000
  126       11.518697   1.000000
  127       11.518697   1.000000
  128       12.978103   0.000000
  129       12.978103   0.000000
  130       12.978103   0.000000
  131       12.978112   0.000000
  132       12.978112   0.000000
  133       12.978112   0.000000
  134       13.027169   0.000000
  135       13.176649   0.000000
  136       13.176649   0.000000
  137       13.690799   0.000000
  138       13.690799   0.000000
  139       13.690799   0.000000
  140       13.690811   0.000000
  141       13.690811   0.000000
  142       13.690811   0.000000
  143       13.759655   0.000000
  144       13.759655   0.000000
  145       13.759655   0.000000
  146       13.759655   0.000000
  147       13.759655   0.000000
  148       13.759655   0.000000
  149       14.526989   0.000000
  150       14.526989   0.000000
  151       14.891178   0.000000
  152       14.891178   0.000000
  153       14.891178   0.000000
  154       15.677200   0.000000
  155       16.266640   0.000000
  156       16.275736   0.000000
 
  0.1666667E+00  0.3742002E-15  0.3742002E-15  0.2777778E-01
    1       -8.858137   1.000000
    2       -7.941657   1.000000
    3       -7.590017   1.000000
    4       -7.590017   1.000000
    5       -7.590015   1.000000
    6       -7.590015   1.000000
    7       -7.362182   1.000000
    8       -7.043293   1.000000
    9       -6.978318   1.000000
   10       -6.978318   1.000000
   11       -6.978311   1.000000
   12       -6.978311   1.000000
   13       -6.966060   1.000000
   14       -6.756332   1.000000
   15       -6.753136   1.000000
   16       -5.676456   1.000000
   17       -5.676456   1.000000
   18       -5.654457   1.000000
   19       -5.654457   1.000000
   20       -5.654457   1.000000
   21       -5.654457   1.000000
   22       -5.579662   1.000000
   23       -5.521626   1.000000
   24       -5.521626   1.000000
   25       -0.120822   1.000000
   26        0.026593   1.000000
   27        0.026593   1.000000
   28        0.094432   1.000000
   29        0.512012   1.000000
   30        0.512012   1.000000
   31        0.572566   1.000000
   32        0.572566   1.000000
   33        0.572567   1.000000
   34        0.572567   1.000000
   35        0.899016   1.000000
   36        1.088285   1.000000
   37        1.088285   1.000000
   38        1.088289   1.000000
   39        1.088289   1.000000
   40        1.259620   1.000000
   41        1.417081   1.000000
   42        1.741865   1.000000
   43        1.911800   1.000000
   44        1.911800   1.000000
   45        2.245280   1.000000
   46        2.245280   1.000000
   47        2.245284   1.000000
   48        2.245284   1.000000
   49        2.291844   1.000000
   50        2.509456   1.000000
   51        2.748755   1.000000
   52        2.748755   1.000000
   53        2.748755   1.000000
   54        2.748755   1.000000
   55        2.781374   1.000000
   56        2.861980   1.000000
   57        2.861980   1.000000
   58        3.329827   1.000000
   59        3.688862   1.000000
   60        3.688862   1.000000
   61        3.688862   1.000000
   62        3.688862   1.000000
   63        3.865064   1.000000
   64        3.865064   1.000000
   65        3.967137   1.000000
   66        3.967137   1.000000
   67        3.967137   1.000000
   68        3.967137   1.000000
   69        4.211356   1.000000
   70        4.238385   1.000000
   71        4.256502   1.000000
   72        4.320617   1.000000
   73        4.368950   1.000000
   74        4.368950   1.000000
   75        4.424882   1.000000
   76        4.424882   1.000000
   77        4.424883   1.000000
   78        4.424883   1.000000
   79        4.802256   1.000000
   80        4.802256   1.000000
   81        4.802257   1.000000
   82        4.802257   1.000000
   83        4.935526   1.000000
   84        4.935526   1.000000
   85        5.941736   1.000000
   86        5.941736   1.000000
   87        5.947641   1.000000
   88        6.634854   1.000000
   89        6.634854   1.000000
   90        6.634854   1.000000
   91        6.634854   1.000000
   92        6.782764   1.000000
   93        6.782764   1.000000
   94        6.873013   1.000000
   95        7.207748   1.000000
   96        7.207748   1.000000
   97        7.824805   1.000000
   98        9.496124   1.000000
   99       10.201529   1.000000
  100       10.201529   1.000000
  101       10.201530   1.000000
  102       10.201530   1.000000
  103       10.247058   1.000000
  104       10.403857   1.000000
  105       10.564302   1.000000
  106       10.564302   1.000000
  107       10.564310   1.000000
  108       10.564310   1.000000
  109       10.681904   1.000000
  110       10.681904   1.000000
  111       10.806270   1.000000
  112       10.806270   1.000000
  113       10.849105   1.000000
  114       11.029686   1.000000
  115       11.029686   1.000000
  116       11.029693   1.000000
  117       11.029693   1.000000
  118       11.078161   1.000000
  119       11.078161   1.000000
  120       11.263399   1.000000
  121       11.551301   1.000000
  122       11.715361   0.999918
  123       11.715361   0.999918
  124       11.957955   1.045201
  125       11.957955   1.045201
  126       11.957962   1.045193
  127       11.957962   1.045193
  128       12.767812   0.000000
  129       12.767812   0.000000
  130       12.767817   0.000000
  131       12.767817   0.000000
  132       12.925100   0.000000
  133       13.107671   0.000000
  134       13.147734   0.000000
  135       13.189264   0.000000
  136       13.267426   0.000000
  137       13.315025   0.000000
  138       13.644458   0.000000
  139       13.644460   0.000000
  140       13.688078   0.000000
  141       13.688078   0.000000
  142       13.688084   0.000000
  143       13.688085   0.000000
  144       13.995679   0.000000
  145       13.995681   0.000000
  146       13.995682   0.000000
  147       13.995689   0.000000
  148       14.221600   0.000000
  149       14.342901   0.000000
  150       14.589688   0.000000
  151       14.775981   0.000000
  152       14.870585   0.000000
  153       14.870586   0.000000
  154       15.900760   0.000000
  155       15.914173   0.000000
  156       15.922422   0.000000
 
  0.3333333E+00  0.3742002E-15  0.3742002E-15  0.2777778E-01
    1       -8.733748   1.000000
    2       -8.261673   1.000000
    3       -7.532735   1.000000
    4       -7.532735   1.000000
    5       -7.532731   1.000000
    6       -7.532731   1.000000
    7       -7.228927   1.000000
    8       -7.085568   1.000000
    9       -7.082564   1.000000
   10       -7.082564   1.000000
   11       -7.082555   1.000000
   12       -7.082555   1.000000
   13       -6.935136   1.000000
   14       -6.805533   1.000000
   15       -6.437724   1.000000
   16       -5.781226   1.000000
   17       -5.644860   1.000000
   18       -5.644860   1.000000
   19       -5.591676   1.000000
   20       -5.591676   1.000000
   21       -5.591676   1.000000
   22       -5.591676   1.000000
   23       -5.555454   1.000000
   24       -5.555454   1.000000
   25        0.097075   1.000000
   26        0.097075   1.000000
   27        0.152257   1.000000
   28        0.351036   1.000000
   29        0.369971   1.000000
   30        0.369971   1.000000
   31        0.569963   1.000000
   32        0.569963   1.000000
   33        0.569964   1.000000
   34        0.569964   1.000000
   35        0.771475   1.000000
   36        1.026062   1.000000
   37        1.044197   1.000000
   38        1.044197   1.000000
   39        1.044199   1.000000
   40        1.044199   1.000000
   41        1.104704   1.000000
   42        1.143857   1.000000
   43        2.154911   1.000000
   44        2.154911   1.000000
   45        2.203581   1.000000
   46        2.203581   1.000000
   47        2.203586   1.000000
   48        2.203586   1.000000
   49        2.426371   1.000000
   50        2.659733   1.000000
   51        2.659733   1.000000
   52        2.659733   1.000000
   53        2.659733   1.000000
   54        2.746137   1.000000
   55        2.798017   1.000000
   56        2.798017   1.000000
   57        2.951165   1.000000
   58        3.459532   1.000000
   59        3.459532   1.000000
   60        3.459532   1.000000
   61        3.459532   1.000000
   62        3.520759   1.000000
   63        3.741378   1.000000
   64        3.788177   1.000000
   65        3.788177   1.000000
   66        4.227040   1.000000
   67        4.227040   1.000000
   68        4.290477   1.000000
   69        4.290477   1.000000
   70        4.290478   1.000000
   71        4.290478   1.000000
   72        4.455401   1.000000
   73        4.682878   1.000000
   74        4.682878   1.000000
   75        4.682882   1.000000
   76        4.682882   1.000000
   77        4.760723   1.000000
   78        4.843342   1.000000
   79        4.930045   1.000000
   80        4.930045   1.000000
   81        4.930051   1.000000
   82        4.930051   1.000000
   83        5.182633   1.000000
   84        5.182633   1.000000
   85        5.662118   1.000000
   86        5.690727   1.000000
   87        5.690727   1.000000
   88        6.290952   1.000000
   89        6.330343   1.000000
   90        6.330343   1.000000
   91        6.330344   1.000000
   92        6.330344   1.000000
   93        6.845802   1.000000
   94        6.845802   1.000000
   95        7.079189   1.000000
   96        7.079189   1.000000
   97        8.440347   1.000000
   98        9.134516   1.000000
   99        9.756185   1.000000
  100        9.911806   1.000000
  101       10.142086   1.000000
  102       10.142086   1.000000
  103       10.142097   1.000000
  104       10.142097   1.000000
  105       10.439602   1.000000
  106       10.439602   1.000000
  107       10.439602   1.000000
  108       10.439602   1.000000
  109       10.781066   1.000000
  110       10.819307   1.000000
  111       10.819307   1.000000
  112       10.954909   1.000000
  113       10.954909   1.000000
  114       10.954913   1.000000
  115       10.954913   1.000000
  116       10.995770   1.000000
  117       10.995770   1.000000
  118       11.178862   1.000000
  119       11.257106   1.000000
  120       11.257106   1.000000
  121       12.059054   0.315041
  122       12.059055   0.315040
  123       12.070521   0.209029
  124       12.070521   0.209029
  125       12.070532   0.208937
  126       12.070532   0.208937
  127       12.389302   0.000023
  128       12.806059   0.000000
  129       12.806059   0.000000
  130       12.806061   0.000000
  131       12.806061   0.000000
  132       12.936539   0.000000
  133       13.076561   0.000000
  134       13.218263   0.000000
  135       13.319018   0.000000
  136       13.333161   0.000000
  137       13.440145   0.000000
  138       13.440146   0.000000
  139       13.500985   0.000000
  140       13.754721   0.000000
  141       13.754721   0.000000
  142       13.754722   0.000000
  143       13.754722   0.000000
  144       13.974468   0.000000
  145       14.339254   0.000000
  146       14.349433   0.000000
  147       14.349434   0.000000
  148       14.349440   0.000000
  149       14.349442   0.000000
  150       14.528805   0.000000
  151       14.528807   0.000000
  152       14.583470   0.000000
  153       14.999497   0.000000
  154       15.367411   0.000000
  155       15.368674   0.000000
  156       15.723029   0.000000
 
  0.5000000E+00  0.3742002E-15  0.3742002E-15  0.1388889E-01
    1       -8.531783   1.000000
    2       -8.531783   1.000000
    3       -7.493757   1.000000
    4       -7.493757   1.000000
    5       -7.493752   1.000000
    6       -7.493752   1.000000
    7       -7.147650   1.000000
    8       -7.147650   1.000000
    9       -7.143416   1.000000
   10       -7.143416   1.000000
   11       -7.143405   1.000000
   12       -7.143405   1.000000
   13       -6.873494   1.000000
   14       -6.873494   1.000000
   15       -6.084268   1.000000
   16       -6.084268   1.000000
   17       -5.600735   1.000000
   18       -5.600735   1.000000
   19       -5.600735   1.000000
   20       -5.600735   1.000000
   21       -5.562055   1.000000
   22       -5.562055   1.000000
   23       -5.562054   1.000000
   24       -5.562054   1.000000
   25        0.216692   1.000000
   26        0.216692   1.000000
   27        0.216692   1.000000
   28        0.216692   1.000000
   29        0.566826   1.000000
   30        0.566826   1.000000
   31        0.566828   1.000000
   32        0.566828   1.000000
   33        0.570301   1.000000
   34        0.570301   1.000000
   35        0.725125   1.000000
   36        0.725125   1.000000
   37        0.827486   1.000000
   38        0.827486   1.000000
   39        1.022752   1.000000
   40        1.022752   1.000000
   41        1.022753   1.000000
   42        1.022753   1.000000
   43        2.182715   1.000000
   44        2.182715   1.000000
   45        2.182720   1.000000
   46        2.182720   1.000000
   47        2.493527   1.000000
   48        2.493527   1.000000
   49        2.493527   1.000000
   50        2.493527   1.000000
   51        2.632646   1.000000
   52        2.632646   1.000000
   53        2.632646   1.000000
   54        2.632646   1.000000
   55        2.647810   1.000000
   56        2.647810   1.000000
   57        3.201824   1.000000
   58        3.201824   1.000000
   59        3.371973   1.000000
   60        3.371973   1.000000
   61        3.371974   1.000000
   62        3.371974   1.000000
   63        3.989786   1.000000
   64        3.989786   1.000000
   65        3.989786   1.000000
   66        3.989786   1.000000
   67        4.157009   1.000000
   68        4.157009   1.000000
   69        4.501610   1.000000
   70        4.501610   1.000000
   71        4.501611   1.000000
   72        4.501611   1.000000
   73        4.638625   1.000000
   74        4.638625   1.000000
   75        4.638626   1.000000
   76        4.638626   1.000000
   77        5.130393   1.000000
   78        5.130393   1.000000
   79        5.130399   1.000000
   80        5.130399   1.000000
   81        5.245859   1.000000
   82        5.245859   1.000000
   83        5.425376   1.000000
   84        5.425376   1.000000
   85        5.425376   1.000000
   86        5.425376   1.000000
   87        5.581597   1.000000
   88        5.581597   1.000000
   89        6.120574   1.000000
   90        6.120574   1.000000
   91        6.120575   1.000000
   92        6.120575   1.000000
   93        6.949384   1.000000
   94        6.949384   1.000000
   95        6.949384   1.000000
   96        6.949384   1.000000
   97        9.114022   1.000000
   98        9.114022   1.000000
   99        9.322643   1.000000
  100        9.322643   1.000000
  101       10.010611   1.000000
  102       10.010611   1.000000
  103       10.010625   1.000000
  104       10.010625   1.000000
  105       10.545811   1.000000
  106       10.545811   1.000000
  107       10.545813   1.000000
  108       10.545813   1.000000
  109       10.894336   1.000000
  110       10.894336   1.000000
  111       10.894336   1.000000
  112       10.894336   1.000000
  113       10.934693   1.000000
  114       10.934693   1.000000
  115       10.934696   1.000000
  116       10.934696   1.000000
  117       10.967432   1.000000
  118       10.967432   1.000000
  119       11.877205   1.002576
  120       11.877205   1.002576
  121       11.877216   1.002581
  122       11.877216   1.002581
  123       11.880648   1.004313
  124       11.880648   1.004313
  125       11.880648   1.004313
  126       11.880648   1.004313
  127       12.995489   0.000000
  128       12.995489   0.000000
  129       13.061631   0.000000
  130       13.061631   0.000000
  131       13.061636   0.000000
  132       13.061636   0.000000
  133       13.193591   0.000000
  134       13.193591   0.000000
  135       13.281374   0.000000
  136       13.281374   0.000000
  137       13.612318   0.000000
  138       13.612318   0.000000
  139       13.743452   0.000000
  140       13.743453   0.000000
  141       13.743458   0.000000
  142       13.743459   0.000000
  143       13.765331   0.000000
  144       13.765331   0.000000
  145       13.765333   0.000000
  146       13.765334   0.000000
  147       14.436446   0.000000
  148       14.436448   0.000000
  149       14.572786   0.000000
  150       14.572791   0.000000
  151       14.572798   0.000000
  152       14.572805   0.000000
  153       15.433872   0.000000
  154       15.434632   0.000000
  155       15.436974   0.000000
  156       15.442007   0.000000
 
  0.1666667E+00  0.1666667E+00  0.3742002E-15  0.5555556E-01
    1       -8.816429   1.000000
    2       -7.908910   1.000000
    3       -7.908910   1.000000
    4       -7.574123   1.000000
    5       -7.565669   1.000000
    6       -7.360553   1.000000
    7       -7.360553   1.000000
    8       -7.153764   1.000000
    9       -7.059044   1.000000
   10       -7.016975   1.000000
   11       -7.016975   1.000000
   12       -6.870188   1.000000
   13       -6.792364   1.000000
   14       -6.792364   1.000000
   15       -6.776023   1.000000
   16       -5.671126   1.000000
   17       -5.659878   1.000000
   18       -5.647757   1.000000
   19       -5.647757   1.000000
   20       -5.642081   1.000000
   21       -5.642081   1.000000
   22       -5.591863   1.000000
   23       -5.529081   1.000000
   24       -5.515755   1.000000
   25       -0.127302   1.000000
   26        0.105419   1.000000
   27        0.124486   1.000000
   28        0.143305   1.000000
   29        0.454296   1.000000
   30        0.454296   1.000000
   31        0.526030   1.000000
   32        0.559808   1.000000
   33        0.559808   1.000000
   34        0.666202   1.000000
   35        0.821800   1.000000
   36        0.894840   1.000000
   37        0.894840   1.000000
   38        1.232129   1.000000
   39        1.232129   1.000000
   40        1.277753   1.000000
   41        1.296679   1.000000
   42        1.765040   1.000000
   43        1.769616   1.000000
   44        1.769616   1.000000
   45        1.999991   1.000000
   46        2.222175   1.000000
   47        2.262143   1.000000
   48        2.299195   1.000000
   49        2.432761   1.000000
   50        2.432761   1.000000
   51        2.673504   1.000000
   52        2.720306   1.000000
   53        2.720306   1.000000
   54        2.856199   1.000000
   55        2.856199   1.000000
   56        2.939576   1.000000
   57        3.087628   1.000000
   58        3.452073   1.000000
   59        3.619138   1.000000
   60        3.619138   1.000000
   61        3.625510   1.000000
   62        3.625510   1.000000
   63        3.831002   1.000000
   64        3.831002   1.000000
   65        3.914365   1.000000
   66        3.917056   1.000000
   67        3.972654   1.000000
   68        4.039018   1.000000
   69        4.235668   1.000000
   70        4.235668   1.000000
   71        4.336544   1.000000
   72        4.389051   1.000000
   73        4.407574   1.000000
   74        4.407574   1.000000
   75        4.432282   1.000000
   76        4.538666   1.000000
   77        4.538666   1.000000
   78        4.728710   1.000000
   79        4.810673   1.000000
   80        4.815028   1.000000
   81        4.913819   1.000000
   82        4.913819   1.000000
   83        5.040638   1.000000
   84        5.040638   1.000000
   85        5.688660   1.000000
   86        5.838085   1.000000
   87        6.007497   1.000000
   88        6.320475   1.000000
   89        6.621254   1.000000
   90        6.648982   1.000000
   91        6.648982   1.000000
   92        6.672962   1.000000
   93        6.672962   1.000000
   94        6.760008   1.000000
   95        7.137142   1.000000
   96        7.210155   1.000000
   97        8.066663   1.000000
   98        9.591271   1.000000
   99        9.591271   1.000000
  100       10.115105   1.000000
  101       10.130860   1.000000
  102       10.206410   1.000000
  103       10.206410   1.000000
  104       10.393467   1.000000
  105       10.393467   1.000000
  106       10.432903   1.000000
  107       10.451925   1.000000
  108       10.547392   1.000000
  109       10.595715   1.000000
  110       10.723968   1.000000
  111       10.774266   1.000000
  112       10.774266   1.000000
  113       10.859035   1.000000
  114       10.896442   1.000000
  115       11.040846   1.000000
  116       11.066532   1.000000
  117       11.315474   1.000000
  118       11.315474   1.000000
  119       11.469332   1.000000
  120       11.469332   1.000000
  121       11.586485   1.000000
  122       11.755749   0.999430
  123       11.879364   1.003640
  124       11.879364   1.003640
  125       12.121905  -0.042290
  126       12.121905  -0.042290
  127       12.238707   0.004870
  128       12.350707   0.000189
  129       12.708340   0.000000
  130       12.708340   0.000000
  131       12.878662   0.000000
  132       12.878662   0.000000
  133       13.169376   0.000000
  134       13.210994   0.000000
  135       13.281794   0.000000
  136       13.308420   0.000000
  137       13.357247   0.000000
  138       13.370626   0.000000
  139       13.370626   0.000000
  140       13.709605   0.000000
  141       13.709609   0.000000
  142       13.896970   0.000000
  143       13.896971   0.000000
  144       14.018126   0.000000
  145       14.055346   0.000000
  146       14.057754   0.000000
  147       14.245596   0.000000
  148       14.369948   0.000000
  149       14.369948   0.000000
  150       14.488387   0.000000
  151       14.666249   0.000000
  152       14.843841   0.000000
  153       14.847236   0.000000
  154       15.686506   0.000000
  155       15.797032   0.000000
  156       15.869708   0.000000
 
  0.3333333E+00  0.1666667E+00  0.3742002E-15  0.1111111E+00
    1       -8.692918   1.000000
    2       -8.224655   1.000000
    3       -7.814659   1.000000
    4       -7.566173   1.000000
    5       -7.502722   1.000000
    6       -7.372138   1.000000
    7       -7.296384   1.000000
    8       -7.242806   1.000000
    9       -7.137222   1.000000
   10       -7.102564   1.000000
   11       -6.981933   1.000000
   12       -6.853966   1.000000
   13       -6.852227   1.000000
   14       -6.836201   1.000000
   15       -6.470532   1.000000
   16       -5.850082   1.000000
   17       -5.632051   1.000000
   18       -5.621887   1.000000
   19       -5.615063   1.000000
   20       -5.600222   1.000000
   21       -5.572680   1.000000
   22       -5.550308   1.000000
   23       -5.539693   1.000000
   24       -5.535652   1.000000
   25       -0.063353   1.000000
   26        0.179559   1.000000
   27        0.276355   1.000000
   28        0.363865   1.000000
   29        0.367471   1.000000
   30        0.405119   1.000000
   31        0.438444   1.000000
   32        0.446802   1.000000
   33        0.697416   1.000000
   34        0.698666   1.000000
   35        0.756105   1.000000
   36        0.797605   1.000000
   37        0.844623   1.000000
   38        0.960784   1.000000
   39        1.105024   1.000000
   40        1.161358   1.000000
   41        1.245362   1.000000
   42        1.261354   1.000000
   43        1.854272   1.000000
   44        1.935756   1.000000
   45        2.056015   1.000000
   46        2.127711   1.000000
   47        2.243529   1.000000
   48        2.244017   1.000000
   49        2.382700   1.000000
   50        2.556998   1.000000
   51        2.567509   1.000000
   52        2.646225   1.000000
   53        2.783909   1.000000
   54        2.887150   1.000000
   55        2.905873   1.000000
   56        2.934621   1.000000
   57        3.366741   1.000000
   58        3.453473   1.000000
   59        3.498374   1.000000
   60        3.502890   1.000000
   61        3.573151   1.000000
   62        3.685493   1.000000
   63        3.704640   1.000000
   64        3.722714   1.000000
   65        3.837654   1.000000
   66        4.156396   1.000000
   67        4.175529   1.000000
   68        4.218244   1.000000
   69        4.223259   1.000000
   70        4.250536   1.000000
   71        4.286192   1.000000
   72        4.470742   1.000000
   73        4.610733   1.000000
   74        4.621789   1.000000
   75        4.746223   1.000000
   76        4.754839   1.000000
   77        4.787155   1.000000
   78        4.821284   1.000000
   79        4.882496   1.000000
   80        4.953819   1.000000
   81        4.960954   1.000000
   82        5.116014   1.000000
   83        5.312391   1.000000
   84        5.312812   1.000000
   85        5.412241   1.000000
   86        5.593267   1.000000
   87        5.835570   1.000000
   88        6.009389   1.000000
   89        6.195916   1.000000
   90        6.333290   1.000000
   91        6.434696   1.000000
   92        6.639767   1.000000
   93        6.721040   1.000000
   94        6.765608   1.000000
   95        6.990341   1.000000
   96        7.086975   1.000000
   97        8.601088   1.000000
   98        9.196026   1.000000
   99        9.611249   1.000000
  100        9.648965   1.000000
  101        9.800828   1.000000
  102        9.917501   1.000000
  103       10.158839   1.000000
  104       10.189621   1.000000
  105       10.222752   1.000000
  106       10.397820   1.000000
  107       10.410216   1.000000
  108       10.582318   1.000000
  109       10.587987   1.000000
  110       10.631516   1.000000
  111       10.754076   1.000000