 running on   16 total cores
 distrk:  each k-point on   16 cores,    1 groups
 distr:  one band on    4 cores,    4 groups
 using from now: INCAR     
 vasp.5.4.4.18Apr17-6-g9f103f2a35 (build Nov 01 2019 12:17:22) complex          
  
 POSCAR found type information on POSCAR  Si N 
 POSCAR found :  2 types and      56 ions
 WARNING: type information on POSCAR and POTCAR are incompatible
 POTCAR overwrites the type information in POSCAR
 typ   1 type information:  Si N 
 WARNING: type information on POSCAR and POTCAR are incompatible
 POTCAR overwrites the type information in POSCAR
 typ   2 type information:  N  Si
 LDA part: xc-table for Pade appr. of Perdew
 generate k-points for:    6    6    6
 POSCAR, INCAR and KPOINTS ok, starting setup
 FFT: planning ...
 WAVECAR not read
 entering main loop
       N       E                     dE             d eps       ncg     rms          rms(c)
DAV:   1     0.899652625298E+03    0.89965E+03   -0.10184E+05  6240   0.119E+03
DAV:   2    -0.252262783317E+03   -0.11519E+04   -0.11074E+04  7852   0.250E+02
DAV:   3    -0.347758772016E+03   -0.95496E+02   -0.91512E+02  7696   0.679E+01
DAV:   4    -0.350759936463E+03   -0.30012E+01   -0.28935E+01  7824   0.108E+01
DAV:   5    -0.350847431738E+03   -0.87495E-01   -0.86730E-01  7584   0.158E+00    0.427E+01
RMM:   6    -0.321266357896E+03    0.29581E+02   -0.14337E+02  6245   0.213E+01    0.196E+01
RMM:   7    -0.320908386781E+03    0.35797E+00   -0.45450E+00  6532   0.316E+00    0.108E+01
RMM:   8    -0.320777949627E+03    0.13044E+00   -0.15282E+00  6265   0.259E+00    0.178E+00
RMM:   9    -0.320696852399E+03    0.81097E-01   -0.14726E-01  6404   0.655E-01    0.653E-01
RMM:  10    -0.320691939006E+03    0.49134E-02   -0.89450E-02  6590   0.469E-01    0.249E-01
RMM:  11    -0.320692068163E+03   -0.12916E-03   -0.55619E-03  6434   0.139E-01    0.858E-02
RMM:  12    -0.320692023690E+03    0.44473E-04   -0.22012E-03  6415   0.682E-02    0.409E-02
RMM:  13    -0.320691955208E+03    0.68481E-04   -0.22016E-04  4043   0.228E-02
   1 F= -.32069196E+03 E0= -.32069375E+03  d E =-.320692E+03
 curvature:   0.00 expect dE= 0.000E+00 dE for cont linesearch  0.000E+00
 trial: gam= 0.00000 g(F)=  0.496E-01 g(S)=  0.000E+00 ort = 0.000E+00 (trialstep = 0.100E+01)
 search vector abs. value=  0.496E-01
 bond charge predicted
       N       E                     dE             d eps       ncg     rms          rms(c)
DAV:   1    -0.320677746973E+03    0.14277E-01   -0.63261E-01  7000   0.229E+00    0.427E-01
RMM:   2    -0.320683768737E+03   -0.60218E-02   -0.86048E-02  6253   0.744E-01    0.423E-01
RMM:   3    -0.320682674732E+03    0.10940E-02   -0.44502E-03  6575   0.115E-01    0.319E-01
RMM:   4    -0.320682397390E+03    0.27734E-03   -0.15573E-03  6303   0.773E-02    0.130E-01
RMM:   5    -0.320682386351E+03    0.11038E-04   -0.53825E-04  5274   0.457E-02
   2 F= -.32068239E+03 E0= -.32068474E+03  d E =0.956886E-02
 trial-energy change:    0.009569  1 .order    0.010142   -0.049646    0.069931
 step:   0.4222(harm=  0.4152)  dis= 0.00211  next Energy=  -320.702479 (dE=-0.105E-01)
 bond charge predicted
       N       E                     dE             d eps       ncg     rms          rms(c)
DAV:   1    -0.320701141214E+03   -0.18744E-01   -0.21066E-01  6840   0.131E+00    0.251E-01
RMM:   2    -0.320702788885E+03   -0.16477E-02   -0.26818E-02  6244   0.420E-01    0.248E-01
RMM:   3    -0.320702409670E+03    0.37921E-03   -0.14469E-03  6071   0.680E-02    0.178E-01
RMM:   4    -0.320702340551E+03    0.69119E-04   -0.27154E-04  3916   0.360E-02
   3 F= -.32070234E+03 E0= -.32070442E+03  d E =-.103853E-01
 curvature:  -0.21 expect dE=-0.330E-05 dE for cont linesearch -0.330E-05
 trial: gam= 0.00000 g(F)=  0.159E-04 g(S)=  0.000E+00 ort =-0.889E-03 (trialstep = 0.884E+00)
 search vector abs. value=  0.159E-04
 reached required accuracy - stopping structural energy minimisation
