 vasp.5.4.4.18Apr17-6-g9f103f2a35 (build Nov 01 2019 12:17:22) complex          
  
 executed on             LinuxIFC date 2023.05.19  18:21:55
 running on   16 total cores
 distrk:  each k-point on   16 cores,    1 groups
 distr:  one band on NCORES_PER_BAND=   4 cores,    4 groups


--------------------------------------------------------------------------------------------------------


 INCAR:
 POTCAR:    PAW_PBE N 08Apr2002                   
 POTCAR:    PAW_PBE Si 05Jan2001                  
 POTCAR:    PAW_PBE N 08Apr2002                   
   VRHFIN =N: s2p3                                                              
   LEXCH  = PE                                                                  
   EATOM  =   264.5486 eV,   19.4438 Ry                                         
                                                                                
   TITEL  = PAW_PBE N 08Apr2002                                                 
   LULTRA =        F    use ultrasoft PP ?                                      
   IUNSCR =        1    unscreen: 0-lin 1-nonlin 2-no                           
   RPACOR =    1.200    partial core radius                                     
   POMASS =   14.001; ZVAL   =    5.000    mass and valenz                      
   RCORE  =    1.500    outmost cutoff radius                                   
   RWIGS  =    1.400; RWIGS  =    0.741    wigner-seitz radius (au A)           
   ENMAX  =  400.000; ENMIN  =  300.000 eV                                      
   ICORE  =        2    local potential                                         
   LCOR   =        T    correct aug charges                                     
   LPAW   =        T    paw PP                                                  
   EAUG   =  627.112                                                            
   DEXC   =    0.000                                                            
   RMAX   =    1.529    core radius for proj-oper                               
   RAUG   =    1.300    factor for augmentation sphere                          
   RDEP   =    1.514    radius for radial grids                                 
   RDEPT  =    1.338    core radius for aug-charge                              
                                                                                
   Atomic configuration                                                         
    4 entries                                                                   
     n  l   j            E        occ.                                          
     1  0  0.50      -384.7179   2.0000                                         
     2  0  0.50       -18.5828   2.0000                                         
     2  1  0.50        -7.0898   3.0000                                         
     3  2  1.50        -6.8029   0.0000                                         
   Description                                                                  
     l       E           TYP  RCUT    TYP  RCUT                                 
     0    -18.5828119     23  1.200                                             
     0    -13.5018863     23  1.200                                             
     1     -7.0897853     23  1.500                                             
     1      9.5240782     23  1.500                                             
     2     -6.8029130      7  1.500                                             
  local pseudopotential read in
  partial core-charges read in
  partial kinetic energy density read in
  atomic valenz-charges read in
  non local Contribution for L=           0  read in
    real space projection operators read in
  non local Contribution for L=           0  read in
    real space projection operators read in
  non local Contribution for L=           1  read in
    real space projection operators read in
  non local Contribution for L=           1  read in
    real space projection operators read in
    PAW grid and wavefunctions read in
 
   number of l-projection  operators is LMAX  =           4
   number of lm-projection operators is LMMAX =           8
 
 POTCAR:    PAW_PBE Si 05Jan2001                  
   VRHFIN =Si: s2p2                                                             
   LEXCH  = PE                                                                  
   EATOM  =   103.0669 eV,    7.5752 Ry                                         
                                                                                
   TITEL  = PAW_PBE Si 05Jan2001                                                
   LULTRA =        F    use ultrasoft PP ?                                      
   IUNSCR =        1    unscreen: 0-lin 1-nonlin 2-no                           
   RPACOR =    1.500    partial core radius                                     
   POMASS =   28.085; ZVAL   =    4.000    mass and valenz                      
   RCORE  =    1.900    outmost cutoff radius                                   
   RWIGS  =    2.480; RWIGS  =    1.312    wigner-seitz radius (au A)           
   ENMAX  =  245.345; ENMIN  =  184.009 eV                                      
   ICORE  =        2    local potential                                         
   LCOR   =        T    correct aug charges                                     
   LPAW   =        T    paw PP                                                  
   EAUG   =  322.069                                                            
   DEXC   =    0.000                                                            
   RMAX   =    1.950    core radius for proj-oper                               
   RAUG   =    1.300    factor for augmentation sphere                          
   RDEP   =    1.993    radius for radial grids                                 
   RDEPT  =    1.837    core radius for aug-charge                              
                                                                                
   Atomic configuration                                                         
    6 entries                                                                   
     n  l   j            E        occ.                                          
     1  0  0.50     -1785.8828   2.0000                                         
     2  0  0.50      -139.4969   2.0000                                         
     2  1  1.50       -95.5546   6.0000                                         
     3  0  0.50       -10.8127   2.0000                                         
     3  1  0.50        -4.0811   2.0000                                         
     3  2  1.50        -4.0817   0.0000                                         
   Description                                                                  
     l       E           TYP  RCUT    TYP  RCUT                                 
     0    -10.8127223     23  1.900                                             
     0     -7.6451159     23  1.900                                             
     1     -4.0811372     23  1.900                                             
     1      2.4879257     23  1.900                                             
     2     -4.0817478      7  1.900                                             
  local pseudopotential read in
  partial core-charges read in
  partial kinetic energy density read in
  atomic valenz-charges read in
  non local Contribution for L=           0  read in
    real space projection operators read in
  non local Contribution for L=           0  read in
    real space projection operators read in
  non local Contribution for L=           1  read in
    real space projection operators read in
  non local Contribution for L=           1  read in
    real space projection operators read in
    PAW grid and wavefunctions read in
 
   number of l-projection  operators is LMAX  =           4
   number of lm-projection operators is LMMAX =           8
 
 Optimization of the real space projectors (new method)

 maximal supplied QI-value         = 25.13
 optimisation between [QCUT,QGAM] = [ 10.05, 20.36] = [ 28.30,116.06] Ry 
 Optimized for a Real-space Cutoff    1.70 Angstroem

   l    n(q)    QCUT    max X(q) W(low)/X(q) W(high)/X(q)  e(spline) 
   0     10    10.053    79.467    0.61E-04    0.98E-04    0.61E-06
   0     10    10.053    66.151    0.60E-04    0.98E-04    0.61E-06
   1     10    10.053     8.350    0.17E-03    0.71E-03    0.45E-05
   1     10    10.053     5.531    0.18E-03    0.77E-03    0.49E-05
 Optimization of the real space projectors (new method)

 maximal supplied QI-value         = 19.84
 optimisation between [QCUT,QGAM] = [ 10.12, 20.44] = [ 28.68,116.96] Ry 
 Optimized for a Real-space Cutoff    1.38 Angstroem

   l    n(q)    QCUT    max X(q) W(low)/X(q) W(high)/X(q)  e(spline) 
   0      8    10.119   159.560    0.58E-04    0.11E-03    0.54E-07
   0      8    10.119   115.863    0.56E-04    0.11E-03    0.54E-07
   1      8    10.119    88.339    0.22E-03    0.17E-03    0.19E-06
   1      8    10.119    48.592    0.22E-03    0.17E-03    0.18E-06
  PAW_PBE N 08Apr2002                   :
 energy of atom  1       EATOM= -264.5486
 kinetic energy error for atom=    0.0736 (will be added to EATOM!!)
  PAW_PBE Si 05Jan2001                  :
 energy of atom  2       EATOM= -103.0669
 kinetic energy error for atom=    0.0012 (will be added to EATOM!!)
 
 
 POSCAR: Si24 N32                                
  positions in direct lattice
  No initial velocities read in
 exchange correlation table for  LEXCH =        8
   RHO(1)=    0.500       N(1)  =     2000
   RHO(2)=  100.500       N(2)  =     4000
 


--------------------------------------------------------------------------------------------------------


 ion  position               nearest neighbor table
   1  0.875  0.875  0.125-  26 2.05  28 2.05  47 2.05  49 2.05  54 2.05  56 2.05
   2  0.375  0.125  0.375-  25 2.05  27 2.05  29 2.05  31 2.05  32 2.05  42 2.05
   3  0.625  0.875  0.375-  27 2.05  31 2.05  44 2.05  49 2.05  53 2.05  54 2.05
   4  0.125  0.125  0.125-  26 2.05  28 2.05  29 2.05  30 2.05  32 2.05  43 2.05
   5  0.250  0.750  0.250-  28 1.75  50 1.75  51 1.75  31 1.75
   6  0.000  0.000  0.500-  29 1.75  38 1.75  48 1.75  49 1.75
   7  0.875  0.375  0.625-  34 2.05  36 2.05  41 2.05  46 2.05  48 2.05  55 2.05
   8  0.375  0.625  0.875-  33 2.05  35 2.05  37 2.05  39 2.05  40 2.05  50 2.05
   9  0.625  0.375  0.875-  35 2.05  39 2.05  41 2.05  45 2.05  46 2.05  52 2.05
  10  0.125  0.625  0.625-  34 2.05  36 2.05  37 2.05  38 2.05  40 2.05  51 2.05
  11  0.250  0.250  0.750-  36 1.75  42 1.75  43 1.75  39 1.75
  12  0.000  0.500  0.000-  30 1.75  37 1.75  56 1.75  41 1.75
  13  0.375  0.875  0.625-  31 2.05  33 2.05  38 2.05  40 2.05  42 2.05  44 2.05
  14  0.875  0.125  0.875-  26 2.05  41 2.05  43 2.05  45 2.05  47 2.05  48 2.05
  15  0.125  0.875  0.875-  28 2.05  33 2.05  37 2.05  38 2.05  43 2.05  47 2.05
  16  0.625  0.125  0.625-  27 2.05  42 2.05  44 2.05  45 2.05  46 2.05  48 2.05
  17  0.750  0.750  0.750-  34 1.75  35 1.75  44 1.75  47 1.75
  18  0.500  0.000  0.000-  32 1.75  45 1.75  54 1.75  33 1.75
  19  0.375  0.375  0.125-  25 2.05  30 2.05  32 2.05  39 2.05  50 2.05  52 2.05
  20  0.875  0.625  0.375-  34 2.05  49 2.05  51 2.05  53 2.05  55 2.05  56 2.05
  21  0.125  0.375  0.375-  25 2.05  29 2.05  30 2.05  36 2.05  51 2.05  55 2.05
  22  0.625  0.625  0.125-  35 2.05  50 2.05  52 2.05  53 2.05  54 2.05  56 2.05
  23  0.750  0.250  0.250-  26 1.75  27 1.75  52 1.75  55 1.75
  24  0.500  0.500  0.500-  40 1.75  46 1.75  53 1.75  25 1.75
  25  0.376  0.376  0.376-  24 1.75  19 2.05  21 2.05   2 2.05  40 2.85  46 2.85  53 2.85  51 2.88
                            27 2.88  50 2.88  42 2.88  52 2.88  36 2.88  32 2.91  29 2.91  30 2.91
  26  0.874  0.126  0.126-  23 1.75   4 2.05  14 2.05   1 2.05  27 2.85  52 2.85  55 2.85  41 2.88
                            45 2.88  49 2.88  29 2.88  54 2.88  30 2.88  28 2.91  47 2.91  43 2.91
  27  0.626  0.126  0.374-  23 1.75   3 2.05  16 2.05   2 2.05  26 2.85  52 2.85  55 2.85  25 2.88
                            49 2.88  32 2.88  46 2.88  54 2.88  48 2.88  31 2.91  42 2.91  44 2.91
  28  0.126  0.874  0.126-   5 1.75   4 2.05   1 2.05  15 2.05  50 2.85  51 2.85  31 2.85  33 2.88
                            37 2.88  49 2.88  29 2.88  32 2.88  56 2.88  43 2.91  47 2.91  26 2.91
  29  0.124  0.124  0.376-   6 1.75   4 2.05   2 2.05  21 2.05  38 2.85  48 2.85  49 2.85  31 2.88
                            55 2.88  42 2.88  26 2.88  36 2.88  28 2.88  30 2.91  25 2.91  32 2.91
  30  0.124  0.376  0.124-  12 1.75   4 2.05  19 2.05  21 2.05  37 2.85  56 2.85  41 2.85  26 2.88
                            43 2.88  50 2.88  51 2.88  55 2.88  39 2.88  32 2.91  25 2.91  29 2.91
  31  0.374  0.874  0.374-   5 1.75   3 2.05   2 2.05  13 2.05  28 2.85  50 2.85  51 2.85  29 2.88
                            53 2.88  32 2.88  38 2.88  40 2.88  54 2.88  42 2.91  44 2.91  27 2.91
  32  0.376  0.124  0.124-  18 1.75   4 2.05   2 2.05  19 2.05  45 2.85  54 2.85  33 2.85  27 2.88
                            39 2.88  43 2.88  28 2.88  52 2.88  31 2.88  29 2.91  30 2.91  25 2.91
  33  0.376  0.876  0.876-  18 1.75  13 2.05  15 2.05   8 2.05  32 2.85  45 2.85  54 2.85  35 2.88
                            43 2.88  44 2.88  42 2.88  50 2.88  28 2.88  37 2.91  38 2.91  40 2.91
  34  0.874  0.626  0.626-  17 1.75  10 2.05   7 2.05  20 2.05  35 2.85  44 2.85  47 2.85  41 2.88
                            37 2.88  46 2.88  38 2.88  49 2.88  53 2.88  51 2.91  36 2.91  55 2.91
  35  0.626  0.626  0.874-  17 1.75   9 2.05   8 2.05  22 2.05  34 2.85  44 2.85  47 2.85  33 2.88
                            41 2.88  46 2.88  40 2.88  54 2.88  56 2.88  52 2.91  39 2.91  50 2.91
  36  0.126  0.374  0.626-  11 1.75  10 2.05   7 2.05  21 2.05  42 2.85  43 2.85  39 2.85  25 2.88
                            40 2.88  41 2.88  29 2.88  37 2.88  48 2.88  34 2.91  51 2.91  55 2.91
  37  0.124  0.624  0.876-  12 1.75  10 2.05   8 2.05  15 2.05  30 2.85  56 2.85  41 2.85  47 2.88
                            39 2.88  34 2.88  36 2.88  50 2.88  28 2.88  33 2.91  40 2.91  38 2.91
  38  0.124  0.876  0.624-   6 1.75  10 2.05  13 2.05  15 2.05  29 2.85  48 2.85  49 2.85  42 2.88
                            43 2.88  47 2.88  31 2.88  34 2.88  51 2.88  33 2.91  37 2.91  40 2.91
  39  0.374  0.374  0.874-  11 1.75   9 2.05   8 2.05  19 2.05  36 2.85  42 2.85  43 2.85  37 2.88
                            45 2.88  30 2.88  32 2.88  40 2.88  46 2.88  35 2.91  50 2.91  52 2.91
  40  0.376  0.624  0.624-  24 1.75  10 2.05  13 2.05   8 2.05  46 2.85  53 2.85  25 2.85  36 2.88
                            39 2.88  44 2.88  31 2.88  51 2.88  35 2.88  38 2.91  33 2.91  37 2.91
  41  0.876  0.376  0.876-  12 1.75   9 2.05   7 2.05  14 2.05  30 2.85  37 2.85  56 2.85  43 2.88
                            35 2.88  34 2.88  26 2.88  52 2.88  36 2.88  48 2.91  45 2.91  46 2.91
  42  0.374  0.126  0.626-  11 1.75   2 2.05  13 2.05  16 2.05  36 2.85  43 2.85  39 2.85  25 2.88
                            38 2.88  29 2.88  33 2.88  45 2.88  46 2.88  44 2.91  31 2.91  27 2.91
  43  0.126  0.126  0.874-  11 1.75   4 2.05  14 2.05  15 2.05  36 2.85  42 2.85  39 2.85  41 2.88
                            33 2.88  30 2.88  32 2.88  38 2.88  48 2.88  28 2.91  47 2.91  26 2.91
  44  0.626  0.874  0.626-  17 1.75  13 2.05  16 2.05   3 2.05  34 2.85  35 2.85  47 2.85  40 2.88
                            45 2.88  33 2.88  48 2.88  49 2.88  53 2.88  42 2.91  27 2.91  31 2.91
  45  0.624  0.124  0.876-  18 1.75  14 2.05  16 2.05   9 2.05  32 2.85  54 2.85  33 2.85  47 2.88
                            39 2.88  44 2.88  26 2.88  52 2.88  42 2.88  48 2.91  46 2.91  41 2.91
  46  0.624  0.376  0.624-  24 1.75   9 2.05  16 2.05   7 2.05  40 2.85  53 2.85  25 2.85  35 2.88
                            39 2.88  27 2.88  42 2.88  34 2.88  55 2.88  48 2.91  41 2.91  45 2.91
  47  0.874  0.874  0.874-  17 1.75  14 2.05  15 2.05   1 2.05  34 2.85  35 2.85  44 2.85  37 2.88
                            45 2.88  38 2.88  48 2.88  54 2.88  56 2.88  43 2.91  26 2.91  28 2.91
  48  0.876  0.124  0.624-   6 1.75   7 2.05  14 2.05  16 2.05  29 2.85  38 2.85  49 2.85  27 2.88
                            43 2.88  44 2.88  47 2.88  36 2.88  55 2.88  41 2.91  45 2.91  46 2.91
  49  0.876  0.876  0.376-   6 1.75   3 2.05   1 2.05  20 2.05  29 2.85  38 2.85  48 2.85  27 2.88
                            51 2.88  28 2.88  44 2.88  26 2.88  34 2.88  53 2.91  54 2.91  56 2.91
  50  0.374  0.626  0.126-   5 1.75   8 2.05  19 2.05  22 2.05  28 2.85  51 2.85  31 2.85  25 2.88
                            33 2.88  37 2.88  30 2.88  53 2.88  54 2.88  52 2.91  39 2.91  35 2.91
  51  0.126  0.626  0.374-   5 1.75  10 2.05  20 2.05  21 2.05  28 2.85  50 2.85  31 2.85  49 2.88
                            25 2.88  40 2.88  30 2.88  38 2.88  56 2.88  36 2.91  55 2.91  34 2.91
  52  0.626  0.374  0.126-  23 1.75  19 2.05  22 2.05   9 2.05  26 2.85  27 2.85  55 2.85  32 2.88
                            41 2.88  45 2.88  53 2.88  25 2.88  56 2.88  35 2.91  39 2.91  50 2.91
  53  0.624  0.624  0.376-  24 1.75  20 2.05  22 2.05   3 2.05  40 2.85  46 2.85  25 2.85  31 2.88
                            55 2.88  34 2.88  50 2.88  52 2.88  44 2.88  54 2.91  49 2.91  56 2.91
  54  0.624  0.876  0.124-  18 1.75   3 2.05   1 2.05  22 2.05  32 2.85  45 2.85  33 2.85  26 2.88
                            27 2.88  35 2.88  31 2.88  47 2.88  50 2.88  49 2.91  53 2.91  56 2.91
  55  0.874  0.374  0.374-  23 1.75  20 2.05  21 2.05   7 2.05  26 2.85  27 2.85  52 2.85  29 2.88
                            53 2.88  48 2.88  30 2.88  46 2.88  56 2.88  34 2.91  36 2.91  51 2.91
  56  0.876  0.624  0.124-  12 1.75   1 2.05  20 2.05  22 2.05  30 2.85  37 2.85  41 2.85  28 2.88
                            35 2.88  47 2.88  51 2.88  52 2.88  55 2.88  53 2.91  54 2.91  49 2.91
 
  LATTYP: Found a simple cubic cell.
 ALAT       =     8.1550577303
  
  Lattice vectors:
  
 A1 = (   8.1550577303,   0.0000000000,   0.0000000000)
 A2 = (   0.0000000000,   8.1550577303,   0.0000000000)
 A3 = (   0.0000000000,   0.0000000000,   8.1550577303)


Analysis of symmetry for initial positions (statically):
=====================================================================
 Subroutine PRICEL returns following result:
 
  LATTYP: Found a face centered cubic cell.
 ALAT       =     8.1550577303
  
  Lattice vectors:
  
 A1 = (   4.0775288651,   4.0775288651,   0.0000000000)
 A2 = (   4.0775288651,   0.0000000000,  -4.0775288651)
 A3 = (   0.0000000000,   4.0775288651,  -4.0775288651)
 
   4 primitive cells build up your supercell.
 

 Routine SETGRP: Setting up the symmetry group for a 
 simple cubic supercell.


 Subroutine GETGRP returns: Found 48 space group operations
 (whereof 24 operations were pure point group operations)
 out of a pool of 48 trial point group operations.


The static configuration has the point symmetry T_d .
 The point group associated with its full space group is O_h .


Analysis of symmetry for dynamics (positions and initial velocities):
=====================================================================
 Subroutine PRICEL returns following result:
 
  LATTYP: Found a face centered cubic cell.
 ALAT       =     8.1550577303
  
  Lattice vectors:
  
 A1 = (   4.0775288651,   4.0775288651,   0.0000000000)
 A2 = (   4.0775288651,   0.0000000000,  -4.0775288651)
 A3 = (   0.0000000000,   4.0775288651,  -4.0775288651)
 
   4 primitive cells build up your supercell.
 

 Routine SETGRP: Setting up the symmetry group for a 
 simple cubic supercell.


 Subroutine GETGRP returns: Found 48 space group operations
 (whereof 24 operations were pure point group operations)
 out of a pool of 48 trial point group operations.


The dynamic configuration has the point symmetry T_d .
 The point group associated with its full space group is O_h .


 Subroutine INISYM returns: Found 48 space group operations
 (whereof 24 operations are pure point group operations),
 and found     4 'primitive' translations

 
 
 KPOINTS: Automatic mesh                          

Automatic generation of k-mesh.
 generate k-points for:    6    6    6
Space group operators:
 irot       det(A)        alpha          n_x          n_y          n_z        tau_x        tau_y        tau_z
    1     1.000000     0.000000     1.000000     0.000000     0.000000     0.000000     0.000000    -0.000000
    2     1.000000   120.000000    -0.577350    -0.577350    -0.577350     0.000000     0.000000    -0.000000
    3     1.000000   120.000000     0.577350     0.577350     0.577350     0.000000     0.000000    -0.000000
    4    -1.000000    90.000000     0.000000     0.000000    -1.000000     0.000000     0.000000    -0.000000
    5    -1.000000   180.000000     0.000000    -0.707107    -0.707107     0.000000     0.000000    -0.000000
    6    -1.000000    90.000000     0.000000     1.000000     0.000000     0.000000     0.000000    -0.000000
    7     1.000000   180.000000    -0.000000    -0.000000     1.000000     0.000000     0.000000    -0.000000
    8     1.000000   120.000000    -0.577350     0.577350     0.577350     0.000000     0.000000    -0.000000
    9     1.000000   120.000000    -0.577350     0.577350    -0.577350     0.000000     0.000000    -0.000000
   10    -1.000000    90.000000    -0.000000    -0.000000     1.000000     0.000000     0.000000    -0.000000
   11    -1.000000    90.000000    -1.000000     0.000000    -0.000000     0.000000     0.000000    -0.000000
   12    -1.000000   180.000000    -0.707107     0.000000    -0.707107     0.000000     0.000000    -0.000000
   13     1.000000   120.000000     0.577350    -0.577350     0.577350     0.000000     0.000000    -0.000000
   14     1.000000   120.000000    -0.577350    -0.577350     0.577350     0.000000     0.000000    -0.000000
   15     1.000000   180.000000     1.000000     0.000000     0.000000     0.000000     0.000000    -0.000000
   16    -1.000000    90.000000    -0.000000    -1.000000     0.000000     0.000000     0.000000    -0.000000
   17    -1.000000   180.000000     0.707107     0.707107     0.000000     0.000000     0.000000    -0.000000
   18    -1.000000    90.000000     1.000000    -0.000000    -0.000000     0.000000     0.000000    -0.000000
   19     1.000000   120.000000     0.577350    -0.577350    -0.577350     0.000000     0.000000    -0.000000
   20     1.000000   180.000000    -0.000000     1.000000     0.000000     0.000000     0.000000    -0.000000
   21     1.000000   120.000000     0.577350     0.577350    -0.577350     0.000000     0.000000    -0.000000
   22    -1.000000   180.000000    -0.000000    -0.707107     0.707107     0.000000     0.000000    -0.000000
   23    -1.000000   180.000000     0.707107    -0.707107     0.000000     0.000000     0.000000    -0.000000
   24    -1.000000   180.000000     0.707107     0.000000    -0.707107     0.000000     0.000000    -0.000000
   25    -1.000000     0.000000     1.000000     0.000000     0.000000     0.750000     0.750000    -0.750000
   26    -1.000000   120.000000    -0.577350    -0.577350    -0.577350     0.750000     0.750000    -0.750000
   27    -1.000000   120.000000     0.577350     0.577350     0.577350     0.750000     0.750000    -0.750000
   28     1.000000    90.000000     0.000000     0.000000    -1.000000     0.750000     0.750000    -0.750000
   29     1.000000   180.000000     0.000000    -0.707107    -0.707107     0.750000     0.750000    -0.750000
   30     1.000000    90.000000     0.000000     1.000000     0.000000     0.750000     0.750000    -0.750000
   31    -1.000000   180.000000    -0.000000    -0.000000     1.000000     0.750000     0.750000    -0.750000
   32    -1.000000   120.000000    -0.577350     0.577350     0.577350     0.750000     0.750000    -0.750000
   33    -1.000000   120.000000    -0.577350     0.577350    -0.577350     0.750000     0.750000    -0.750000
   34     1.000000    90.000000    -0.000000    -0.000000     1.000000     0.750000     0.750000    -0.750000
   35     1.000000    90.000000    -1.000000     0.000000    -0.000000     0.750000     0.750000    -0.750000
   36     1.000000   180.000000    -0.707107     0.000000    -0.707107     0.750000     0.750000    -0.750000
   37    -1.000000   120.000000     0.577350    -0.577350     0.577350     0.750000     0.750000    -0.750000
   38    -1.000000   120.000000    -0.577350    -0.577350     0.577350     0.750000     0.750000    -0.750000
   39    -1.000000   180.000000     1.000000     0.000000     0.000000     0.750000     0.750000    -0.750000
   40     1.000000    90.000000    -0.000000    -1.000000     0.000000     0.750000     0.750000    -0.750000
   41     1.000000   180.000000     0.707107     0.707107     0.000000     0.750000     0.750000    -0.750000
   42     1.000000    90.000000     1.000000    -0.000000    -0.000000     0.750000     0.750000    -0.750000
   43    -1.000000   120.000000     0.577350    -0.577350    -0.577350     0.750000     0.750000    -0.750000
   44    -1.000000   180.000000    -0.000000     1.000000     0.000000     0.750000     0.750000    -0.750000
   45    -1.000000   120.000000     0.577350     0.577350    -0.577350     0.750000     0.750000    -0.750000
   46     1.000000   180.000000    -0.000000    -0.707107     0.707107     0.750000     0.750000    -0.750000
   47     1.000000   180.000000     0.707107    -0.707107     0.000000     0.750000     0.750000    -0.750000
   48     1.000000   180.000000     0.707107     0.000000    -0.707107     0.750000     0.750000    -0.750000
 
 Subroutine IBZKPT returns following result:
 ===========================================
 
 Found     20 irreducible k-points:
 
 Following reciprocal coordinates:
            Coordinates               Weight
  0.000000  0.000000  0.000000      1.000000
  0.166667  0.000000  0.000000      6.000000
  0.333333  0.000000  0.000000      6.000000
  0.500000  0.000000  0.000000      3.000000
  0.166667  0.166667  0.000000     12.000000
  0.333333  0.166667  0.000000     24.000000
  0.500000  0.166667  0.000000     12.000000
  0.333333  0.333333  0.000000     12.000000
  0.500000  0.333333  0.000000     12.000000
  0.500000  0.500000  0.000000      3.000000
  0.166667  0.166667  0.166667      8.000000
  0.333333  0.166667  0.166667     24.000000
  0.500000  0.166667  0.166667     12.000000
  0.333333  0.333333  0.166667     24.000000
  0.500000  0.333333  0.166667     24.000000
  0.500000  0.500000  0.166667      6.000000
  0.333333  0.333333  0.333333      8.000000
  0.500000  0.333333  0.333333     12.000000
  0.500000  0.500000  0.333333      6.000000
  0.500000  0.500000  0.500000      1.000000
 
 Following cartesian coordinates:
            Coordinates               Weight
  0.000000  0.000000  0.000000      1.000000
  0.020437  0.000000  0.000000      6.000000
  0.040874  0.000000  0.000000      6.000000
  0.061312  0.000000  0.000000      3.000000
  0.020437  0.020437  0.000000     12.000000
  0.040874  0.020437  0.000000     24.000000
  0.061312  0.020437  0.000000     12.000000
  0.040874  0.040874  0.000000     12.000000
  0.061312  0.040874  0.000000     12.000000
  0.061312  0.061312  0.000000      3.000000
  0.020437  0.020437  0.020437      8.000000
  0.040874  0.020437  0.020437     24.000000
  0.061312  0.020437  0.020437     12.000000
  0.040874  0.040874  0.020437     24.000000
  0.061312  0.040874  0.020437     24.000000
  0.061312  0.061312  0.020437      6.000000
  0.040874  0.040874  0.040874      8.000000
  0.061312  0.040874  0.040874     12.000000
  0.061312  0.061312  0.040874      6.000000
  0.061312  0.061312  0.061312      1.000000
 


--------------------------------------------------------------------------------------------------------




 Dimension of arrays:
   k-points           NKPTS =     20   k-points in BZ     NKDIM =     20   number of bands    NBANDS=    156
   number of dos      NEDOS =    301   number of ions     NIONS =     56
   non local maximal  LDIM  =      4   non local SUM 2l+1 LMDIM =      8
   total plane-waves  NPLWV = 157464
   max r-space proj   IRMAX =   6002   max aug-charges    IRDMAX=   9906
   dimension x,y,z NGX =    54 NGY =   54 NGZ =   54
   dimension x,y,z NGXF=   108 NGYF=  108 NGZF=  108
   support grid    NGXF=   108 NGYF=  108 NGZF=  108
   ions per type =              24  32
   NGX,Y,Z   is equivalent  to a cutoff of  11.01, 11.01, 11.01 a.u.
   NGXF,Y,Z  is equivalent  to a cutoff of  22.02, 22.02, 22.02 a.u.

 SYSTEM =  unknown system                          
 POSCAR =  Si24 N32                                

 Startparameter for this run:
   NWRITE =      2    write-flag & timer
   PREC   = accura    normal or accurate (medium, high low for compatibility)
   ISTART =      0    job   : 0-new  1-cont  2-samecut
   ICHARG =      2    charge: 1-file 2-atom 10-const
   ISPIN  =      1    spin polarized calculation?
   LNONCOLLINEAR =      F non collinear calculations
   LSORBIT =      F    spin-orbit coupling
   INIWAV =      1    electr: 0-lowe 1-rand  2-diag
   LASPH  =      F    aspherical Exc in radial PAW
   METAGGA=      F    non-selfconsistent MetaGGA calc.

 Electronic Relaxation 1
   ENCUT  =  400.0 eV  29.40 Ry    5.42 a.u.  13.30 13.30 13.30*2*pi/ulx,y,z
   ENINI  =  400.0     initial cutoff
   ENAUG  =  627.1 eV  augmentation charge cutoff
   NELM   =     60;   NELMIN=  2; NELMDL= -5     # of ELM steps 
   EDIFF  = 0.1E-03   stopping-criterion for ELM
   LREAL  =      T    real-space projection
   NLSPLINE    = F    spline interpolate recip. space projectors
   LCOMPAT=      F    compatible to vasp.4.4
   GGA_COMPAT  = T    GGA compatible to vasp.4.4-vasp.4.6
   LMAXPAW     = -100 max onsite density
   LMAXMIX     =    2 max onsite mixed and CHGCAR
   VOSKOWN=      0    Vosko Wilk Nusair interpolation
   ROPT   =   -0.00025  -0.00025
 Ionic relaxation
   EDIFFG = 0.1E-02   stopping-criterion for IOM
   NSW    =    100    number of steps for IOM
   NBLOCK =      1;   KBLOCK =    100    inner block; outer block 
   IBRION =      2    ionic relax: 0-MD 1-quasi-New 2-CG
   NFREE  =      1    steps in history (QN), initial steepest desc. (CG)
   ISIF   =      2    stress and relaxation
   IWAVPR =     11    prediction:  0-non 1-charg 2-wave 3-comb
   ISYM   =      2    0-nonsym 1-usesym 2-fastsym
   LCORR  =      T    Harris-Foulkes like correction to forces

   POTIM  = 0.5000    time-step for ionic-motion
   TEIN   =    0.0    initial temperature
   TEBEG  =    0.0;   TEEND  =   0.0 temperature during run
   SMASS  =  -3.00    Nose mass-parameter (am)
   estimated Nose-frequenzy (Omega)   =  0.10E-29 period in steps =****** mass=  -0.152E-26a.u.
   SCALEE = 1.0000    scale energy and forces
   NPACO  =    256;   APACO  = 16.0  distance and # of slots for P.C.
   PSTRESS=    0.0 pullay stress

  Mass of Ions in am
   POMASS =  14.00 28.09
  Ionic Valenz
   ZVAL   =   5.00  4.00
  Atomic Wigner-Seitz radii
   RWIGS  =  -1.00 -1.00
  virtual crystal weights 
   VCA    =   1.00  1.00
   NELECT =     248.0000    total number of electrons
   NUPDOWN=      -1.0000    fix difference up-down

 DOS related values:
   EMIN   =  10.00;   EMAX   =-10.00  energy-range for DOS
   EFERMI =   0.00
   ISMEAR =     2;   SIGMA  =   0.10  broadening in eV -4-tet -1-fermi 0-gaus

 Electronic relaxation 2 (details)
   IALGO  =     68    algorithm
   LDIAG  =      T    sub-space diagonalisation (order eigenvalues)
   LSUBROT=      F    optimize rotation matrix (better conditioning)
   TURBO    =      0    0=normal 1=particle mesh
   IRESTART =      0    0=no restart 2=restart with 2 vectors
   NREBOOT  =      0    no. of reboots
   NMIN     =      0    reboot dimension
   EREF     =   0.00    reference energy to select bands
   IMIX   =      4    mixing-type and parameters
     AMIX     =   0.40;   BMIX     =  1.00
     AMIX_MAG =   1.60;   BMIX_MAG =  1.00
     AMIN     =   0.10
     WC   =   100.;   INIMIX=   1;  MIXPRE=   1;  MAXMIX= -45

 Intra band minimization:
   WEIMIN = 0.0010     energy-eigenvalue tresh-hold
   EBREAK =  0.16E-06  absolut break condition
   DEPER  =   0.30     relativ break condition  

   TIME   =   0.40     timestep for ELM

  volume/ion in A,a.u.               =       9.68        65.36
  Fermi-wavevector in a.u.,A,eV,Ry     =   1.261242  2.383401 21.643207  1.590731
  Thomas-Fermi vector in A             =   2.394711
 
 Write flags
   LWAVE        =      F    write WAVECAR
   LDOWNSAMPLE  =      F    k-point downsampling of WAVECAR
   LCHARG       =      F    write CHGCAR
   LVTOT        =      F    write LOCPOT, total local potential
   LVHAR        =      F    write LOCPOT, Hartree potential only
   LELF         =      F    write electronic localiz. function (ELF)
   LORBIT       =      0    0 simple, 1 ext, 2 COOP (PROOUT), +10 PAW based schemes


 Dipole corrections
   LMONO  =      F    monopole corrections only (constant potential shift)
   LDIPOL =      F    correct potential (dipole corrections)
   IDIPOL =      0    1-x, 2-y, 3-z, 4-all directions 
   EPSILON=  1.0000000 bulk dielectric constant

 Exchange correlation treatment:
   GGA     =    --    GGA type
   LEXCH   =     8    internal setting for exchange type
   VOSKOWN=      0    Vosko Wilk Nusair interpolation
   LHFCALC =     F    Hartree Fock is set to
   LHFONE  =     F    Hartree Fock one center treatment
   AEXX    =    0.0000 exact exchange contribution

 Linear response parameters
   LEPSILON=     F    determine dielectric tensor
   LRPA    =     F    only Hartree local field effects (RPA)
   LNABLA  =     F    use nabla operator in PAW spheres
   LVEL    =     F    velocity operator in full k-point grid
   LINTERFAST=   F  fast interpolation
   KINTER  =     0    interpolate to denser k-point grid
   CSHIFT  =0.1000    complex shift for real part using Kramers Kronig
   OMEGAMAX=  -1.0    maximum frequency
   DEG_THRESHOLD= 0.2000000E-02 threshold for treating states as degnerate
   RTIME   =   -0.100 relaxation time in fs
  (WPLASMAI=    0.000 imaginary part of plasma frequency in eV, 0.658/RTIME)
   DFIELD  = 0.0000000 0.0000000 0.0000000 field for delta impulse in time
 
 Orbital magnetization related:
   ORBITALMAG=     F  switch on orbital magnetization
   LCHIMAG   =     F  perturbation theory with respect to B field
   DQ        =  0.001000  dq finite difference perturbation B field
   LLRAUG    =     F  two centre corrections for induced B field



--------------------------------------------------------------------------------------------------------


 conjugate gradient relaxation of ions
 charge density and potential will be updated during run
 non-spin polarized calculation
 RMM-DIIS sequential band-by-band and
  variant of blocked Davidson during initial phase
 perform sub-space diagonalisation
    before iterative eigenvector-optimisation
 modified Broyden-mixing scheme, WC =      100.0
 initial mixing is a Kerker type mixing with AMIX =  0.4000 and BMIX =      1.0000
 Hartree-type preconditioning will be used
 using additional bands           32
 real space projection scheme for non local part
 use partial core corrections
 calculate Harris-corrections to forces 
   (improved forces if not selfconsistent)
 use gradient corrections 
 use of overlap-Matrix (Vanderbilt PP)
 Methfessel and Paxton  Order N= 2 SIGMA  =   0.10


--------------------------------------------------------------------------------------------------------


  energy-cutoff  :      400.00
  volume of cell :      542.35
      direct lattice vectors                 reciprocal lattice vectors
     8.155057730  0.000000000  0.000000000     0.122623289 -0.000000000  0.000000000
     0.000000000  8.155057730  0.000000000    -0.000000000  0.122623289  0.000000000
     0.000000000  0.000000000  8.155057730    -0.000000000 -0.000000000  0.122623289

  length of vectors
     8.155057730  8.155057730  8.155057730     0.122623289  0.122623289  0.122623289


 
 k-points in units of 2pi/SCALE and weight: Automatic mesh                          
   0.00000000  0.00000000  0.00000000       0.005
   0.02043721  0.00000000  0.00000000       0.028
   0.04087443  0.00000000  0.00000000       0.028
   0.06131164  0.00000000  0.00000000       0.014
   0.02043721  0.02043721  0.00000000       0.056
   0.04087443  0.02043721  0.00000000       0.111
   0.06131164  0.02043721  0.00000000       0.056
   0.04087443  0.04087443  0.00000000       0.056
   0.06131164  0.04087443  0.00000000       0.056
   0.06131164  0.06131164  0.00000000       0.014
   0.02043721  0.02043721  0.02043721       0.037
   0.04087443  0.02043721  0.02043721       0.111
   0.06131164  0.02043721  0.02043721       0.056
   0.04087443  0.04087443  0.02043721       0.111
   0.06131164  0.04087443  0.02043721       0.111
   0.06131164  0.06131164  0.02043721       0.028
   0.04087443  0.04087443  0.04087443       0.037
   0.06131164  0.04087443  0.04087443       0.056
   0.06131164  0.06131164  0.04087443       0.028
   0.06131164  0.06131164  0.06131164       0.005
 
 k-points in reciprocal lattice and weights: Automatic mesh                          
   0.00000000  0.00000000  0.00000000       0.005
   0.16666667  0.00000000  0.00000000       0.028
   0.33333333  0.00000000  0.00000000       0.028
   0.50000000  0.00000000  0.00000000       0.014
   0.16666667  0.16666667  0.00000000       0.056
   0.33333333  0.16666667  0.00000000       0.111
   0.50000000  0.16666667  0.00000000       0.056
   0.33333333  0.33333333  0.00000000       0.056
   0.50000000  0.33333333  0.00000000       0.056
   0.50000000  0.50000000  0.00000000       0.014
   0.16666667  0.16666667  0.16666667       0.037
   0.33333333  0.16666667  0.16666667       0.111
   0.50000000  0.16666667  0.16666667       0.056
   0.33333333  0.33333333  0.16666667       0.111
   0.50000000  0.33333333  0.16666667       0.111
   0.50000000  0.50000000  0.16666667       0.028
   0.33333333  0.33333333  0.33333333       0.037
   0.50000000  0.33333333  0.33333333       0.056
   0.50000000  0.50000000  0.33333333       0.028
   0.50000000  0.50000000  0.50000000       0.005
 
 position of ions in fractional coordinates (direct lattice) 
   0.87500000  0.87500000  0.12500000
   0.37500000  0.12500000  0.37500000
   0.62500000  0.87500000  0.37500000
   0.12500000  0.12500000  0.12500000
   0.25000000  0.75000000  0.25000000
   0.00000000  0.00000000  0.50000000
   0.87500000  0.37500000  0.62500000
   0.37500000  0.62500000  0.87500000
   0.62500000  0.37500000  0.87500000
   0.12500000  0.62500000  0.62500000
   0.25000000  0.25000000  0.75000000
   0.00000000  0.50000000  0.00000000
   0.37500000  0.87500000  0.62500000
   0.87500000  0.12500000  0.87500000
   0.12500000  0.87500000  0.87500000
   0.62500000  0.12500000  0.62500000
   0.75000000  0.75000000  0.75000000
   0.50000000  0.00000000  0.00000000
   0.37500000  0.37500000  0.12500000
   0.87500000  0.62500000  0.37500000
   0.12500000  0.37500000  0.37500000
   0.62500000  0.62500000  0.12500000
   0.75000000  0.25000000  0.25000000
   0.50000000  0.50000000  0.50000000
   0.37630293  0.37630293  0.37630293
   0.87369707  0.12630293  0.12630293
   0.62630293  0.12630293  0.37369707
   0.12630293  0.87369707  0.12630293
   0.12369707  0.12369707  0.37630293
   0.12369707  0.37630293  0.12369707
   0.37369707  0.87369707  0.37369707
   0.37630293  0.12369707  0.12369707
   0.37630293  0.87630293  0.87630293
   0.87369707  0.62630293  0.62630293
   0.62630293  0.62630293  0.87369707
   0.12630293  0.37369707  0.62630293
   0.12369707  0.62369707  0.87630293
   0.12369707  0.87630293  0.62369707
   0.37369707  0.37369707  0.87369707
   0.37630293  0.62369707  0.62369707
   0.87630293  0.37630293  0.87630293
   0.37369707  0.12630293  0.62630293
   0.12630293  0.12630293  0.87369707
   0.62630293  0.87369707  0.62630293
   0.62369707  0.12369707  0.87630293
   0.62369707  0.37630293  0.62369707
   0.87369707  0.87369707  0.87369707
   0.87630293  0.12369707  0.62369707
   0.87630293  0.87630293  0.37630293
   0.37369707  0.62630293  0.12630293
   0.12630293  0.62630293  0.37369707
   0.62630293  0.37369707  0.12630293
   0.62369707  0.62369707  0.37630293
   0.62369707  0.87630293  0.12369707
   0.87369707  0.37369707  0.37369707
   0.87630293  0.62369707  0.12369707
 
 position of ions in cartesian coordinates  (Angst):
   7.13567551  7.13567551  1.01938222
   3.05814665  1.01938222  3.05814665
   5.09691108  7.13567551  3.05814665
   1.01938222  1.01938222  1.01938222
   2.03876443  6.11629330  2.03876443
   0.00000000  0.00000000  4.07752887
   7.13567551  3.05814665  5.09691108
   3.05814665  5.09691108  7.13567551
   5.09691108  3.05814665  7.13567551
   1.01938222  5.09691108  5.09691108
   2.03876443  2.03876443  6.11629330
   0.00000000  4.07752887  0.00000000
   3.05814665  7.13567551  5.09691108
   7.13567551  1.01938222  7.13567551
   1.01938222  7.13567551  7.13567551
   5.09691108  1.01938222  5.09691108
   6.11629330  6.11629330  6.11629330
   4.07752887  0.00000000  0.00000000
   3.05814665  3.05814665  1.01938222
   7.13567551  5.09691108  3.05814665
   1.01938222  3.05814665  3.05814665
   5.09691108  5.09691108  1.01938222
   6.11629330  2.03876443  2.03876443
   4.07752887  4.07752887  4.07752887
   3.06877215  3.06877215  3.06877215
   7.12505002  1.03000771  1.03000771
   5.10753658  1.03000771  3.04752115
   1.03000771  7.12505002  1.03000771
   1.00875672  1.00875672  3.06877215
   1.00875672  3.06877215  1.00875672
   3.04752115  7.12505002  3.04752115
   3.06877215  1.00875672  1.00875672
   3.06877215  7.14630101  7.14630101
   7.12505002  5.10753658  5.10753658
   5.10753658  5.10753658  7.12505002
   1.03000771  3.04752115  5.10753658
   1.00875672  5.08628558  7.14630101
   1.00875672  7.14630101  5.08628558
   3.04752115  3.04752115  7.12505002
   3.06877215  5.08628558  5.08628558
   7.14630101  3.06877215  7.14630101
   3.04752115  1.03000771  5.10753658
   1.03000771  1.03000771  7.12505002
   5.10753658  7.12505002  5.10753658
   5.08628558  1.00875672  7.14630101
   5.08628558  3.06877215  5.08628558
   7.12505002  7.12505002  7.12505002
   7.14630101  1.00875672  5.08628558
   7.14630101  7.14630101  3.06877215
   3.04752115  5.10753658  1.03000771
   1.03000771  5.10753658  3.04752115
   5.10753658  3.04752115  1.03000771
   5.08628558  5.08628558  3.06877215
   5.08628558  7.14630101  1.00875672
   7.12505002  3.04752115  3.04752115
   7.14630101  5.08628558  1.00875672
 


--------------------------------------------------------------------------------------------------------


 k-point  1 :   0.0000 0.0000 0.0000  plane waves:    9795
 k-point  2 :   0.1667 0.0000 0.0000  plane waves:    9851
 k-point  3 :   0.3333 0.0000 0.0000  plane waves:    9838
 k-point  4 :   0.5000 0.0000 0.0000  plane waves:    9890
 k-point  5 :   0.1667 0.1667 0.0000  plane waves:    9853
 k-point  6 :   0.3333 0.1667 0.0000  plane waves:    9856
 k-point  7 :   0.5000 0.1667 0.0000  plane waves:    9862
 k-point  8 :   0.3333 0.3333 0.0000  plane waves:    9847
 k-point  9 :   0.5000 0.3333 0.0000  plane waves:    9862
 k-point 10 :   0.5000 0.5000 0.0000  plane waves:    9844
 k-point 11 :   0.1667 0.1667 0.1667  plane waves:    9861
 k-point 12 :   0.3333 0.1667 0.1667  plane waves:    9885
 k-point 13 :   0.5000 0.1667 0.1667  plane waves:    9842
 k-point 14 :   0.3333 0.3333 0.1667  plane waves:    9841
 k-point 15 :   0.5000 0.3333 0.1667  plane waves:    9832
 k-point 16 :   0.5000 0.5000 0.1667  plane waves:    9844
 k-point 17 :   0.3333 0.3333 0.3333  plane waves:    9871
 k-point 18 :   0.5000 0.3333 0.3333  plane waves:    9848
 k-point 19 :   0.5000 0.5000 0.3333  plane waves:    9840
 k-point 20 :   0.5000 0.5000 0.5000  plane waves:    9952

 maximum and minimum number of plane-waves per node :      2498     2423

 maximum number of plane-waves:      9952
 maximum index in each direction: 
   IXMAX=   13   IYMAX=   13   IZMAX=   13
   IXMIN=  -13   IYMIN=  -13   IZMIN=  -13


 real space projection operators:
  total allocation   :      14906.75 KBytes
  max/ min on nodes  :       3875.50       3577.88


 parallel 3D FFT for wavefunctions:
    minimum data exchange during FFTs selected (reduces bandwidth)
 parallel 3D FFT for charge:
    minimum data exchange during FFTs selected (reduces bandwidth)


 total amount of memory used by VASP MPI-rank0    83254. kBytes
=======================================================================

   base      :      30000. kBytes
   nonlr-proj:      10502. kBytes
   fftplans  :       3984. kBytes
   grid      :       6277. kBytes
   one-center:         43. kBytes
   wavefun   :      32448. kBytes
 
     INWAV:  cpu time    0.0000: real time    0.0000
 Broyden mixing: mesh for mixing (old mesh)
   NGX = 27   NGY = 27   NGZ = 27
  (NGX  =108   NGY  =108   NGZ  =108)
  gives a total of  19683 points

 initial charge density was supplied:
 charge density of overlapping atoms calculated
 number of electron     248.0000000 magnetization 
 keeping initial charge density in first step


--------------------------------------------------------------------------------------------------------


 Maximum index for non-local projection operator         1630
 Maximum index for augmentation-charges          678 (set IRDMAX)


--------------------------------------------------------------------------------------------------------


 First call to EWALD:  gamma=   0.217
 Maximum number of real-space cells 3x 3x 3
 Maximum number of reciprocal cells 3x 3x 3

    FEWALD:  cpu time    0.0037: real time    0.0037


--------------------------------------- Iteration      1(   1)  ---------------------------------------


    POTLOK:  cpu time    0.0606: real time    0.0639
    SETDIJ:  cpu time    0.0073: real time    0.0073
     EDDAV:  cpu time   12.9193: real time   12.9188
       DOS:  cpu time    0.0031: real time    0.0031
    --------------------------------------------
      LOOP:  cpu time   12.9903: real time   12.9930

 eigenvalue-minimisations  :  6240
 total energy-change (2. order) : 0.8996526E+03  (-0.1018356E+05)
 number of electron     248.0000000 magnetization 
 augmentation part      248.0000000 magnetization 

 Free energy of the ion-electron system (eV)
  ---------------------------------------------------
  alpha Z        PSCENC =       359.63456017
  Ewald energy   TEWEN  =    -10199.89241564
  -Hartree energ DENC   =     -1406.56495639
  -exchange      EXHF   =         0.00000000
  -V(xc)+E(xc)   XCENC  =       219.04859998
  PAW double counting   =      7738.34714636    -7203.94574617
  entropy T*S    EENTRO =         0.00399023
  eigenvalues    EBANDS =      1747.51750952
  atomic energy  EATOM  =      9645.50393724
  Solvation  Ediel_sol  =         0.00000000
  ---------------------------------------------------
  free energy    TOTEN  =       899.65262530 eV

  energy without entropy =      899.64863507  energy(sigma->0) =      899.65162774


--------------------------------------------------------------------------------------------------------




--------------------------------------- Iteration      1(   2)  ---------------------------------------


     EDDAV:  cpu time   15.3525: real time   15.3544
       DOS:  cpu time    0.0034: real time    0.0034
    --------------------------------------------
      LOOP:  cpu time   15.3559: real time   15.3578

 eigenvalue-minimisations  :  7852
 total energy-change (2. order) :-0.1151915E+04  (-0.1107427E+04)
 number of electron     248.0000000 magnetization 
 augmentation part      248.0000000 magnetization 

 Free energy of the ion-electron system (eV)
  ---------------------------------------------------
  alpha Z        PSCENC =       359.63456017
  Ewald energy   TEWEN  =    -10199.89241564
  -Hartree energ DENC   =     -1406.56495639
  -exchange      EXHF   =         0.00000000
  -V(xc)+E(xc)   XCENC  =       219.04859998
  PAW double counting   =      7738.34714636    -7203.94574617
  entropy T*S    EENTRO =        -0.00134117
  eigenvalues    EBANDS =       595.60743230
  atomic energy  EATOM  =      9645.50393724
  Solvation  Ediel_sol  =         0.00000000
  ---------------------------------------------------
  free energy    TOTEN  =      -252.26278332 eV

  energy without entropy =     -252.26144214  energy(sigma->0) =     -252.26244802


--------------------------------------------------------------------------------------------------------




--------------------------------------- Iteration      1(   3)  ---------------------------------------


     EDDAV:  cpu time   15.1552: real time   15.1560
       DOS:  cpu time    0.0035: real time    0.0035
    --------------------------------------------
      LOOP:  cpu time   15.1587: real time   15.1595

 eigenvalue-minimisations  :  7696
 total energy-change (2. order) :-0.9549599E+02  (-0.9151248E+02)
 number of electron     248.0000000 magnetization 
 augmentation part      248.0000000 magnetization 

 Free energy of the ion-electron system (eV)
  ---------------------------------------------------
  alpha Z        PSCENC =       359.63456017
  Ewald energy   TEWEN  =    -10199.89241564
  -Hartree energ DENC   =     -1406.56495639
  -exchange      EXHF   =         0.00000000
  -V(xc)+E(xc)   XCENC  =       219.04859998
  PAW double counting   =      7738.34714636    -7203.94574617
  entropy T*S    EENTRO =        -0.00669635
  eigenvalues    EBANDS =       500.11679878
  atomic energy  EATOM  =      9645.50393724
  Solvation  Ediel_sol  =         0.00000000
  ---------------------------------------------------
  free energy    TOTEN  =      -347.75877202 eV

  energy without entropy =     -347.75207567  energy(sigma->0) =     -347.75709793


--------------------------------------------------------------------------------------------------------




--------------------------------------- Iteration      1(   4)  ---------------------------------------


     EDDAV:  cpu time   15.2960: real time   15.2964
       DOS:  cpu time    0.0035: real time    0.0035
    --------------------------------------------
      LOOP:  cpu time   15.2994: real time   15.2999

 eigenvalue-minimisations  :  7824
 total energy-change (2. order) :-0.3001164E+01  (-0.2893459E+01)
 number of electron     248.0000000 magnetization 
 augmentation part      248.0000000 magnetization 

 Free energy of the ion-electron system (eV)
  ---------------------------------------------------
  alpha Z        PSCENC =       359.63456017
  Ewald energy   TEWEN  =    -10199.89241564
  -Hartree energ DENC   =     -1406.56495639
  -exchange      EXHF   =         0.00000000
  -V(xc)+E(xc)   XCENC  =       219.04859998
  PAW double counting   =      7738.34714636    -7203.94574617
  entropy T*S    EENTRO =        -0.00648281
  eigenvalues    EBANDS =       497.11542079
  atomic energy  EATOM  =      9645.50393724
  Solvation  Ediel_sol  =         0.00000000
  ---------------------------------------------------
  free energy    TOTEN  =      -350.75993646 eV

  energy without entropy =     -350.75345365  energy(sigma->0) =     -350.75831576


--------------------------------------------------------------------------------------------------------




--------------------------------------- Iteration      1(   5)  ---------------------------------------


     EDDAV:  cpu time   14.9692: real time   14.9710
       DOS:  cpu time    0.0032: real time    0.0032
    CHARGE:  cpu time    0.5208: real time    0.5209
    MIXING:  cpu time    0.0086: real time    0.0086
    --------------------------------------------
      LOOP:  cpu time   15.5017: real time   15.5037

 eigenvalue-minimisations  :  7584
 total energy-change (2. order) :-0.8749527E-01  (-0.8673042E-01)
 number of electron     248.0000055 magnetization 
 augmentation part       -0.5524044 magnetization 

 Broyden mixing:
  rms(total) = 0.42719E+01    rms(broyden)= 0.42712E+01
  rms(prec ) = 0.56226E+01
  weight for this iteration     100.00

 Free energy of the ion-electron system (eV)
  ---------------------------------------------------
  alpha Z        PSCENC =       359.63456017
  Ewald energy   TEWEN  =    -10199.89241564
  -Hartree energ DENC   =     -1406.56495639
  -exchange      EXHF   =         0.00000000
  -V(xc)+E(xc)   XCENC  =       219.04859998
  PAW double counting   =      7738.34714636    -7203.94574617
  entropy T*S    EENTRO =        -0.00590992
  eigenvalues    EBANDS =       497.02735263
  atomic energy  EATOM  =      9645.50393724
  Solvation  Ediel_sol  =         0.00000000
  ---------------------------------------------------
  free energy    TOTEN  =      -350.84743174 eV

  energy without entropy =     -350.84152182  energy(sigma->0) =     -350.84595426


--------------------------------------------------------------------------------------------------------




--------------------------------------- Iteration      1(   6)  ---------------------------------------


    POTLOK:  cpu time    0.0584: real time    0.0602
    SETDIJ:  cpu time    0.0073: real time    0.0073
    EDDIAG:  cpu time    1.4888: real time    1.4888
  RMM-DIIS:  cpu time    8.0832: real time    8.0829
    ORTHCH:  cpu time    0.1986: real time    0.1986
       DOS:  cpu time    0.0035: real time    0.0035
    CHARGE:  cpu time    0.5264: real time    0.5266
    MIXING:  cpu time    0.0016: real time    0.0016
    --------------------------------------------
      LOOP:  cpu time   10.3677: real time   10.3695

 eigenvalue-minimisations  :  6245
 total energy-change (2. order) : 0.2958107E+02  (-0.1433706E+02)
 number of electron     248.0000039 magnetization 
 augmentation part       -3.1616036 magnetization 

 Broyden mixing:
  rms(total) = 0.19587E+01    rms(broyden)= 0.19580E+01
  rms(prec ) = 0.20359E+01
  weight for this iteration     100.00

 eigenvalues of (default mixing * dielectric matrix)
  average eigenvalue GAMMA=   1.1086
  1.1086

 Free energy of the ion-electron system (eV)
  ---------------------------------------------------
  alpha Z        PSCENC =       359.63456017
  Ewald energy   TEWEN  =    -10199.89241564
  -Hartree energ DENC   =     -1665.27896421
  -exchange      EXHF   =         0.00000000
  -V(xc)+E(xc)   XCENC  =       237.11371424
  PAW double counting   =     14835.69102161   -14303.57057159
  entropy T*S    EENTRO =         0.00310048
  eigenvalues    EBANDS =       769.52925982
  atomic energy  EATOM  =      9645.50393724
  Solvation  Ediel_sol  =         0.00000000
  ---------------------------------------------------
  free energy    TOTEN  =      -321.26635790 eV

  energy without entropy =     -321.26945837  energy(sigma->0) =     -321.26713302


--------------------------------------------------------------------------------------------------------




--------------------------------------- Iteration      1(   7)  ---------------------------------------


    POTLOK:  cpu time    0.0578: real time    0.0596
    SETDIJ:  cpu time    0.0072: real time    0.0072
    EDDIAG:  cpu time    1.4773: real time    1.4773
  RMM-DIIS:  cpu time    8.4082: real time    8.4079
    ORTHCH:  cpu time    0.1997: real time    0.1997
       DOS:  cpu time    0.0035: real time    0.0035
    CHARGE:  cpu time    0.5209: real time    0.5210
    MIXING:  cpu time    0.0016: real time    0.0016
    --------------------------------------------
      LOOP:  cpu time   10.6762: real time   10.6777

 eigenvalue-minimisations  :  6532
 total energy-change (2. order) : 0.3579711E+00  (-0.4545023E+00)
 number of electron     248.0000040 magnetization 
 augmentation part       -3.3701040 magnetization 

 Broyden mixing:
  rms(total) = 0.10805E+01    rms(broyden)= 0.10804E+01
  rms(prec ) = 0.11387E+01
  weight for this iteration     100.00

 eigenvalues of (default mixing * dielectric matrix)
  average eigenvalue GAMMA=   1.5972
  1.0769  2.1176

 Free energy of the ion-electron system (eV)
  ---------------------------------------------------
  alpha Z        PSCENC =       359.63456017
  Ewald energy   TEWEN  =    -10199.89241564
  -Hartree energ DENC   =     -1665.99304835
  -exchange      EXHF   =         0.00000000
  -V(xc)+E(xc)   XCENC  =       237.84977792
  PAW double counting   =     20784.95267890   -20253.64704089
  entropy T*S    EENTRO =         0.00654218
  eigenvalues    EBANDS =       770.67662170
  atomic energy  EATOM  =      9645.50393724
  Solvation  Ediel_sol  =         0.00000000
  ---------------------------------------------------
  free energy    TOTEN  =      -320.90838678 eV

  energy without entropy =     -320.91492896  energy(sigma->0) =     -320.91002233


--------------------------------------------------------------------------------------------------------




--------------------------------------- Iteration      1(   8)  ---------------------------------------


    POTLOK:  cpu time    0.0579: real time    0.0598
    SETDIJ:  cpu time    0.0074: real time    0.0074
    EDDIAG:  cpu time    1.4751: real time    1.4750
  RMM-DIIS:  cpu time    8.1544: real time    8.1538
    ORTHCH:  cpu time    0.1981: real time    0.1982
       DOS:  cpu time    0.0034: real time    0.0034
    CHARGE:  cpu time    0.5186: real time    0.5185
    MIXING:  cpu time    0.0017: real time    0.0017
    --------------------------------------------
      LOOP:  cpu time   10.4166: real time   10.4178

 eigenvalue-minimisations  :  6265
 total energy-change (2. order) : 0.1304372E+00  (-0.1528197E+00)
 number of electron     248.0000040 magnetization 
 augmentation part       -3.1913964 magnetization 

 Broyden mixing:
  rms(total) = 0.17773E+00    rms(broyden)= 0.17769E+00
  rms(prec ) = 0.26006E+00
  weight for this iteration     100.00

 eigenvalues of (default mixing * dielectric matrix)
  average eigenvalue GAMMA=   1.3929
  2.3085  0.9351  0.9351

 Free energy of the ion-electron system (eV)
  ---------------------------------------------------
  alpha Z        PSCENC =       359.63456017
  Ewald energy   TEWEN  =    -10199.89241564
  -Hartree energ DENC   =     -1643.88506492
  -exchange      EXHF   =         0.00000000
  -V(xc)+E(xc)   XCENC  =       237.29718599
  PAW double counting   =     28253.39819734   -27722.97394463
  entropy T*S    EENTRO =         0.00608525
  eigenvalues    EBANDS =       750.13350957
  atomic energy  EATOM  =      9645.50393724
  Solvation  Ediel_sol  =         0.00000000
  ---------------------------------------------------
  free energy    TOTEN  =      -320.77794963 eV

  energy without entropy =     -320.78403488  energy(sigma->0) =     -320.77947094


--------------------------------------------------------------------------------------------------------




--------------------------------------- Iteration      1(   9)  ---------------------------------------


    POTLOK:  cpu time    0.0589: real time    0.0595
    SETDIJ:  cpu time    0.0072: real time    0.0072
    EDDIAG:  cpu time    1.4690: real time    1.4691
  RMM-DIIS:  cpu time    8.2194: real time    8.2199
    ORTHCH:  cpu time    0.2013: real time    0.2013
       DOS:  cpu time    0.0035: real time    0.0035
    CHARGE:  cpu time    0.5226: real time    0.5227
    MIXING:  cpu time    0.0018: real time    0.0018
    --------------------------------------------
      LOOP:  cpu time   10.4836: real time   10.4850

 eigenvalue-minimisations  :  6404
 total energy-change (2. order) : 0.8109723E-01  (-0.1472639E-01)
 number of electron     248.0000040 magnetization 
 augmentation part       -3.2547224 magnetization 

 Broyden mixing:
  rms(total) = 0.65265E-01    rms(broyden)= 0.65259E-01
  rms(prec ) = 0.94405E-01
  weight for this iteration     100.00

 eigenvalues of (default mixing * dielectric matrix)
  average eigenvalue GAMMA=   1.2937
  2.3240  0.9696  0.9696  0.9117

 Free energy of the ion-electron system (eV)
  ---------------------------------------------------
  alpha Z        PSCENC =       359.63456017
  Ewald energy   TEWEN  =    -10199.89241564
  -Hartree energ DENC   =     -1654.89110134
  -exchange      EXHF   =         0.00000000
  -V(xc)+E(xc)   XCENC  =       238.12620879
  PAW double counting   =     29104.43266323   -28574.17062807
  entropy T*S    EENTRO =         0.00717752
  eigenvalues    EBANDS =       760.55274569
  atomic energy  EATOM  =      9645.50393724
  Solvation  Ediel_sol  =         0.00000000
  ---------------------------------------------------
  free energy    TOTEN  =      -320.69685240 eV

  energy without entropy =     -320.70402992  energy(sigma->0) =     -320.69864678


--------------------------------------------------------------------------------------------------------




--------------------------------------- Iteration      1(  10)  ---------------------------------------


    POTLOK:  cpu time    0.0584: real time    0.0603
    SETDIJ:  cpu time    0.0075: real time    0.0075
    EDDIAG:  cpu time    1.4683: real time    1.4685
  RMM-DIIS:  cpu time    8.4549: real time    8.4557
    ORTHCH:  cpu time    0.1992: real time    0.1992
       DOS:  cpu time    0.0032: real time    0.0032
    CHARGE:  cpu time    0.5197: real time    0.5198
    MIXING:  cpu time    0.0018: real time    0.0018
    --------------------------------------------
      LOOP:  cpu time   10.7130: real time   10.7158

 eigenvalue-minimisations  :  6590
 total energy-change (2. order) : 0.4913393E-02  (-0.8944970E-02)
 number of electron     248.0000040 magnetization 
 augmentation part       -3.3062871 magnetization 

 Broyden mixing:
  rms(total) = 0.24940E-01    rms(broyden)= 0.24897E-01
  rms(prec ) = 0.29694E-01
  weight for this iteration     100.00

 eigenvalues of (default mixing * dielectric matrix)
  average eigenvalue GAMMA=   1.5457
  2.3829  2.3829  0.9342  1.0142  1.0142

 Free energy of the ion-electron system (eV)
  ---------------------------------------------------
  alpha Z        PSCENC =       359.63456017
  Ewald energy   TEWEN  =    -10199.89241564
  -Hartree energ DENC   =     -1660.28910044
  -exchange      EXHF   =         0.00000000
  -V(xc)+E(xc)   XCENC  =       238.51684038
  PAW double counting   =     29210.11218322   -28679.91150125
  entropy T*S    EENTRO =         0.00717163
  eigenvalues    EBANDS =       765.62638570
  atomic energy  EATOM  =      9645.50393724
  Solvation  Ediel_sol  =         0.00000000
  ---------------------------------------------------
  free energy    TOTEN  =      -320.69193901 eV

  energy without entropy =     -320.69911063  energy(sigma->0) =     -320.69373191


--------------------------------------------------------------------------------------------------------




--------------------------------------- Iteration      1(  11)  ---------------------------------------


    POTLOK:  cpu time    0.0578: real time    0.0598
    SETDIJ:  cpu time    0.0072: real time    0.0072
    EDDIAG:  cpu time    1.4568: real time    1.4570
  RMM-DIIS:  cpu time    8.2952: real time    8.2948
    ORTHCH:  cpu time    0.2002: real time    0.2002
       DOS:  cpu time    0.0034: real time    0.0034
    CHARGE:  cpu time    0.5185: real time    0.5185
    MIXING:  cpu time    0.0018: real time    0.0018
    --------------------------------------------
      LOOP:  cpu time   10.5409: real time   10.5427

 eigenvalue-minimisations  :  6434
 total energy-change (2. order) :-0.1291571E-03  (-0.5561867E-03)
 number of electron     248.0000040 magnetization 
 augmentation part       -3.2976581 magnetization 

 Broyden mixing:
  rms(total) = 0.85831E-02    rms(broyden)= 0.85813E-02
  rms(prec ) = 0.12425E-01
  weight for this iteration     100.00

 eigenvalues of (default mixing * dielectric matrix)
  average eigenvalue GAMMA=   1.5040
  2.5904  2.4809  1.0033  1.0033  0.9731  0.9731

 Free energy of the ion-electron system (eV)
  ---------------------------------------------------
  alpha Z        PSCENC =       359.63456017
  Ewald energy   TEWEN  =    -10199.89241564
  -Hartree energ DENC   =     -1658.90161089
  -exchange      EXHF   =         0.00000000
  -V(xc)+E(xc)   XCENC  =       238.46519560
  PAW double counting   =     29149.47681804   -28619.29849593
  entropy T*S    EENTRO =         0.00709301
  eigenvalues    EBANDS =       764.31285023
  atomic energy  EATOM  =      9645.50393724
  Solvation  Ediel_sol  =         0.00000000
  ---------------------------------------------------
  free energy    TOTEN  =      -320.69206816 eV

  energy without entropy =     -320.69916118  energy(sigma->0) =     -320.69384142


--------------------------------------------------------------------------------------------------------




--------------------------------------- Iteration      1(  12)  ---------------------------------------


    POTLOK:  cpu time    0.0577: real time    0.0595
    SETDIJ:  cpu time    0.0073: real time    0.0073
    EDDIAG:  cpu time    1.4574: real time    1.4573
  RMM-DIIS:  cpu time    8.2751: real time    8.2749
    ORTHCH:  cpu time    0.1989: real time    0.1988
       DOS:  cpu time    0.0034: real time    0.0034
    CHARGE:  cpu time    0.5176: real time    0.5176
    MIXING:  cpu time    0.0019: real time    0.0019
    --------------------------------------------
      LOOP:  cpu time   10.5191: real time   10.5206

 eigenvalue-minimisations  :  6415
 total energy-change (2. order) : 0.4447284E-04  (-0.2201188E-03)
 number of electron     248.0000040 magnetization 
 augmentation part       -3.3033725 magnetization 

 Broyden mixing:
  rms(total) = 0.40911E-02    rms(broyden)= 0.40870E-02
  rms(prec ) = 0.64963E-02
  weight for this iteration     100.00

 eigenvalues of (default mixing * dielectric matrix)
  average eigenvalue GAMMA=   1.5513
  2.5912  2.1795  2.1795  0.9658  0.9658  0.9885  0.9885

 Free energy of the ion-electron system (eV)
  ---------------------------------------------------
  alpha Z        PSCENC =       359.63456017
  Ewald energy   TEWEN  =    -10199.89241564
  -Hartree energ DENC   =     -1659.75712681
  -exchange      EXHF   =         0.00000000
  -V(xc)+E(xc)   XCENC  =       238.53036518
  PAW double counting   =     29131.40049546   -28601.22917841
  entropy T*S    EENTRO =         0.00724394
  eigenvalues    EBANDS =       765.11009519
  atomic energy  EATOM  =      9645.50393724
  Solvation  Ediel_sol  =         0.00000000
  ---------------------------------------------------
  free energy    TOTEN  =      -320.69202369 eV

  energy without entropy =     -320.69926763  energy(sigma->0) =     -320.69383467


--------------------------------------------------------------------------------------------------------




--------------------------------------- Iteration      1(  13)  ---------------------------------------


    POTLOK:  cpu time    0.0581: real time    0.0595
    SETDIJ:  cpu time    0.0074: real time    0.0074
    EDDIAG:  cpu time    1.4444: real time    1.4443
  RMM-DIIS:  cpu time    5.4094: real time    5.4090
    ORTHCH:  cpu time    0.1983: real time    0.1983
       DOS:  cpu time    0.0034: real time    0.0034
    --------------------------------------------
      LOOP:  cpu time    7.1211: real time    7.1220

 eigenvalue-minimisations  :  4043
 total energy-change (2. order) : 0.6848147E-04  (-0.2201640E-04)
 number of electron     248.0000040 magnetization 
 augmentation part       -3.3033725 magnetization 

 Free energy of the ion-electron system (eV)
  ---------------------------------------------------
  alpha Z        PSCENC =       359.63456017
  Ewald energy   TEWEN  =    -10199.89241564
  -Hartree energ DENC   =     -1659.45201043
  -exchange      EXHF   =         0.00000000
  -V(xc)+E(xc)   XCENC  =       238.51311436
  PAW double counting   =     29135.97451844   -28605.80023689
  entropy T*S    EENTRO =         0.00718389
  eigenvalues    EBANDS =       764.81939365
  atomic energy  EATOM  =      9645.50393724
  Solvation  Ediel_sol  =         0.00000000
  ---------------------------------------------------
  free energy    TOTEN  =      -320.69195521 eV

  energy without entropy =     -320.69913910  energy(sigma->0) =     -320.69375118


--------------------------------------------------------------------------------------------------------




 average (electrostatic) potential at core
  the test charge radii are     0.7089  0.9892
  (the norm of the test charge is              1.0000)
       1 -59.3471       2 -59.3471       3 -59.3471       4 -59.3471       5 -58.7846
       6 -58.7846       7 -59.3471       8 -59.3471       9 -59.3471      10 -59.3471
      11 -58.7846      12 -58.7846      13 -59.3471      14 -59.3471      15 -59.3471
      16 -59.3471      17 -58.7846      18 -58.7846      19 -59.3471      20 -59.3471
      21 -59.3471      22 -59.3471      23 -58.7846      24 -58.7846      25 -78.8779
      26 -78.8779      27 -78.8779      28 -78.8779      29 -78.8779      30 -78.8779
      31 -78.8779      32 -78.8779      33 -78.8779      34 -78.8779      35 -78.8779
      36 -78.8779      37 -78.8779      38 -78.8779      39 -78.8779      40 -78.8779
      41 -78.8779      42 -78.8779      43 -78.8779      44 -78.8779      45 -78.8779
      46 -78.8779      47 -78.8779      48 -78.8779      49 -78.8779      50 -78.8779
      51 -78.8779      52 -78.8779      53 -78.8779      54 -78.8779      55 -78.8779
      56 -78.8779
 
 
 
 E-fermi :  12.0524     XC(G=0): -12.1080     alpha+bet :-17.9962


 k-point     1 :       0.0000    0.0000    0.0000
  band No.  band energies     occupation 
      1      -8.8988      2.00000
      2      -7.5834      2.00000
      3      -7.5834      2.00000
      4      -7.5834      2.00000
      5      -7.5834      2.00000
      6      -7.5834      2.00000
      7      -7.5834      2.00000
      8      -6.9673      2.00000
      9      -6.9356      2.00000
     10      -6.9356      2.00000
     11      -6.9356      2.00000
     12      -6.9355      2.00000
     13      -6.9355      2.00000
     14      -6.9355      2.00000
     15      -6.7117      2.00000
     16      -5.7193      2.00000
     17      -5.7193      2.00000
     18      -5.7193      2.00000
     19      -5.7193      2.00000
     20      -5.7193      2.00000
     21      -5.7193      2.00000
     22      -5.5420      2.00000
     23      -5.5420      2.00000
     24      -5.5420      2.00000
     25      -0.2691      2.00000
     26       0.0014      2.00000
     27       0.0014      2.00000
     28       0.0014      2.00000
     29       0.5905      2.00000
     30       0.5905      2.00000
     31       0.5905      2.00000
     32       0.5905      2.00000
     33       0.5905      2.00000
     34       0.5905      2.00000
     35       1.0983      2.00000
     36       1.0983      2.00000
     37       1.0983      2.00000
     38       1.0983      2.00000
     39       1.0983      2.00000
     40       1.0983      2.00000
     41       1.8705      2.00000
     42       1.8705      2.00000
     43       1.8705      2.00000
     44       2.2288      2.00000
     45       2.2288      2.00000
     46       2.2667      2.00000
     47       2.2667      2.00000
     48       2.2667      2.00000
     49       2.2667      2.00000
     50       2.2667      2.00000
     51       2.2667      2.00000
     52       2.8452      2.00000
     53       2.8452      2.00000
     54       2.8452      2.00000
     55       2.8452      2.00000
     56       2.8452      2.00000
     57       2.8452      2.00000
     58       3.7497      2.00000
     59       3.7497      2.00000
     60       3.7497      2.00000
     61       3.7497      2.00000
     62       3.7497      2.00000
     63       3.7497      2.00000
     64       4.0046      2.00000
     65       4.0046      2.00000
     66       4.0046      2.00000
     67       4.0046      2.00000
     68       4.0046      2.00000
     69       4.0046      2.00000
     70       4.0688      2.00000
     71       4.0688      2.00000
     72       4.0688      2.00000
     73       4.0688      2.00000
     74       4.0688      2.00000
     75       4.0688      2.00000
     76       4.4375      2.00000
     77       4.4375      2.00000
     78       4.4375      2.00000
     79       4.7993      2.00000
     80       4.7993      2.00000
     81       4.7993      2.00000
     82       4.7993      2.00000
     83       4.7993      2.00000
     84       4.7993      2.00000
     85       6.0260      2.00000
     86       6.0260      2.00000
     87       6.0260      2.00000
     88       6.7240      2.00000
     89       6.7240      2.00000
     90       6.7240      2.00000
     91       6.7240      2.00000
     92       6.7240      2.00000
     93       6.7240      2.00000
     94       7.2345      2.00000
     95       7.2345      2.00000
     96       7.2345      2.00000
     97       7.4131      2.00000
     98      10.1510      2.00000
     99      10.1510      2.00000
    100      10.1510      2.00000
    101      10.1510      2.00000
    102      10.1510      2.00000
    103      10.1510      2.00000
    104      10.4436      2.00000
    105      10.4436      2.00000
    106      10.4436      2.00000
    107      10.8442      2.00000
    108      10.8442      2.00000
    109      10.8442      2.00000
    110      10.8442      2.00000
    111      10.8442      2.00000
    112      10.8442      2.00000
    113      11.1353      2.00000
    114      11.1353      2.00000
    115      11.1353      2.00000
    116      11.1965      2.00000
    117      11.1965      2.00000
    118      11.1965      2.00000
    119      11.1965      2.00000
    120      11.1965      2.00000
    121      11.1965      2.00000
    122      11.5324      2.00000
    123      11.5324      2.00000
    124      11.5324      2.00000
    125      11.5324      2.00000
    126      11.5324      2.00000
    127      11.5324      2.00000
    128      12.9670      0.00000
    129      12.9934      0.00000
    130      12.9934      0.00000
    131      12.9934      0.00000
    132      12.9934      0.00000
    133      12.9934      0.00000
    134      12.9934      0.00000
    135      13.1916      0.00000
    136      13.1916      0.00000
    137      13.6814      0.00000
    138      13.6814      0.00000
    139      13.6814      0.00000
    140      13.6814      0.00000
    141      13.6814      0.00000
    142      13.6814      0.00000
    143      13.7717      0.00000
    144      13.7717      0.00000
    145      13.7717      0.00000
    146      13.7717      0.00000
    147      13.7717      0.00000
    148      13.7717      0.00000
    149      14.5243      0.00000
    150      14.5244      0.00000
    151      14.9013      0.00000
    152      14.9014      0.00000
    153      14.9015      0.00000
    154      15.7047      0.00000
    155      16.2669      0.00000
    156      16.2956      0.00000

 k-point     2 :       0.1667    0.0000    0.0000
  band No.  band energies     occupation 
      1      -8.8567      2.00000
      2      -7.9279      2.00000
      3      -7.5578      2.00000
      4      -7.5578      2.00000
      5      -7.5578      2.00000
      6      -7.5578      2.00000
      7      -7.3096      2.00000
      8      -6.9880      2.00000
      9      -6.9880      2.00000
     10      -6.9880      2.00000
     11      -6.9880      2.00000
     12      -6.9830      2.00000
     13      -6.9566      2.00000
     14      -6.7848      2.00000
     15      -6.7317      2.00000
     16      -5.7080      2.00000
     17      -5.7080      2.00000
     18      -5.6848      2.00000
     19      -5.6848      2.00000
     20      -5.6848      2.00000
     21      -5.6848      2.00000
     22      -5.6128      2.00000
     23      -5.5546      2.00000
     24      -5.5546      2.00000
     25      -0.1748      2.00000
     26       0.0249      2.00000
     27       0.0249      2.00000
     28       0.0909      2.00000
     29       0.5277      2.00000
     30       0.5277      2.00000
     31       0.5878      2.00000
     32       0.5878      2.00000
     33       0.5878      2.00000
     34       0.5878      2.00000
     35       0.8940      2.00000
     36       1.0816      2.00000
     37       1.0816      2.00000
     38       1.0816      2.00000
     39       1.0816      2.00000
     40       1.2382      2.00000
     41       1.4392      2.00000
     42       1.7182      2.00000
     43       1.9568      2.00000
     44       1.9568      2.00000
     45       2.2437      2.00000
     46       2.2437      2.00000
     47       2.2437      2.00000
     48       2.2437      2.00000
     49       2.2735      2.00000
     50       2.5458      2.00000
     51       2.7575      2.00000
     52       2.7575      2.00000
     53       2.7575      2.00000
     54       2.7575      2.00000
     55       2.7866      2.00000
     56       2.8924      2.00000
     57       2.8924      2.00000
     58       3.3099      2.00000
     59       3.6974      2.00000
     60       3.6974      2.00000
     61       3.6974      2.00000
     62       3.6974      2.00000
     63       3.8585      2.00000
     64       3.8585      2.00000
     65       3.9534      2.00000
     66       3.9534      2.00000
     67       3.9534      2.00000
     68       3.9534      2.00000
     69       4.2055      2.00000
     70       4.2349      2.00000
     71       4.2372      2.00000
     72       4.3298      2.00000
     73       4.3924      2.00000
     74       4.3924      2.00000
     75       4.4132      2.00000
     76       4.4132      2.00000
     77       4.4132      2.00000
     78       4.4132      2.00000
     79       4.8118      2.00000
     80       4.8118      2.00000
     81       4.8118      2.00000
     82       4.8118      2.00000
     83       4.9429      2.00000
     84       4.9429      2.00000
     85       5.9175      2.00000
     86       5.9175      2.00000
     87       5.9228      2.00000
     88       6.5959      2.00000
     89       6.5959      2.00000
     90       6.5959      2.00000
     91       6.5959      2.00000
     92       6.7441      2.00000
     93       6.7441      2.00000
     94       6.8447      2.00000
     95       7.1727      2.00000
     96       7.1727      2.00000
     97       7.8337      2.00000
     98       9.5125      2.00000
     99      10.2199      2.00000
    100      10.2199      2.00000
    101      10.2199      2.00000
    102      10.2199      2.00000
    103      10.2669      2.00000
    104      10.4080      2.00000
    105      10.5766      2.00000
    106      10.5766      2.00000
    107      10.5766      2.00000
    108      10.5766      2.00000
    109      10.6804      2.00000
    110      10.6804      2.00000
    111      10.8250      2.00000
    112      10.8250      2.00000
    113      10.8667      2.00000
    114      11.0457      2.00000
    115      11.0457      2.00000
    116      11.0457      2.00000
    117      11.0457      2.00000
    118      11.1029      2.00000
    119      11.1029      2.00000
    120      11.2696      2.00000
    121      11.5611      2.00000
    122      11.7278      1.99982
    123      11.7278      1.99982
    124      11.9700      2.08867
    125      11.9700      2.08867
    126      11.9700      2.08866
    127      11.9700      2.08866
    128      12.7820      0.00000
    129      12.7820      0.00000
    130      12.7820      0.00000
    131      12.7820      0.00000
    132      12.9401      0.00000
    133      13.1232      0.00000
    134      13.1311      0.00000
    135      13.1626      0.00000
    136      13.2837      0.00000
    137      13.3177      0.00000
    138      13.6548      0.00000
    139      13.6550      0.00000
    140      13.6940      0.00000
    141      13.6940      0.00000
    142      13.6940      0.00000
    143      13.6940      0.00000
    144      13.9933      0.00000
    145      13.9933      0.00000
    146      13.9933      0.00000
[...]
    120      12.2776      0.00603
    121      12.2776      0.00603
    122      12.2776      0.00603
    123      12.2776      0.00603
    124      12.2776      0.00603
    125      12.2940      0.00379
    126      12.2940      0.00379
    127      12.2940      0.00379
    128      12.2940      0.00379
    129      12.2940      0.00379
    130      12.2940      0.00379
    131      12.2940      0.00379
    132      12.2940      0.00379
    133      13.7812      0.00000
    134      13.7812      0.00000
    135      13.7812      0.00000
    136      13.7812      0.00000
    137      14.3038      0.00000
    138      14.3040      0.00000
    139      14.3041      0.00000
    140      14.3042      0.00000
    141      14.3043      0.00000
    142      14.3044      0.00000
    143      14.3046      0.00000
    144      14.3051      0.00000
    145      14.4052      0.00000
    146      14.4053      0.00000
    147      14.4054      0.00000
    148      14.4056      0.00000
    149      14.4058      0.00000
    150      14.4067      0.00000
    151      14.4077      0.00000
    152      14.4105      0.00000
    153      14.6535      0.00000
    154      14.7168      0.00000
    155      14.7195      0.00000
    156      14.7220      0.00000


--------------------------------------------------------------------------------------------------------


 soft charge-density along one line, spin component           1
         0         1         2         3         4         5         6         7         8         9
 total charge-density along one line
 
 pseudopotential strength for first ion, spin component:           1
 12.165  14.576   0.000   0.000   0.000   0.000   0.000   0.000
 14.576  17.465   0.000   0.000   0.000   0.000   0.000   0.000
  0.000   0.000  -5.644  -0.003   0.003  -7.463  -0.004   0.004
  0.000   0.000  -0.003  -5.644  -0.003  -0.004  -7.463  -0.004
  0.000   0.000   0.003  -0.003  -5.644   0.004  -0.004  -7.463
  0.000   0.000  -7.463  -0.004   0.004  -9.139  -0.006   0.006
  0.000   0.000  -0.004  -7.463  -0.004  -0.006  -9.139  -0.006
  0.000   0.000   0.004  -0.004  -7.463   0.006  -0.006  -9.139
 total augmentation occupancy for first ion, spin component:           1
  6.543  -3.278   0.000   0.000  -0.000  -0.000   0.000   0.000
 -3.278   2.229   0.000   0.000   0.000  -0.000  -0.000   0.000
  0.000   0.000   1.974  -0.039   0.039  -0.323   0.003  -0.003
  0.000   0.000  -0.039   1.974  -0.039   0.003  -0.323   0.003
 -0.000   0.000   0.039  -0.039   1.974  -0.003   0.003  -0.323
 -0.000   0.000  -0.323   0.003  -0.003   0.065   0.001  -0.001
  0.000   0.000   0.003  -0.323   0.003   0.001   0.065   0.001
  0.000  -0.000  -0.003   0.003  -0.323  -0.001   0.001   0.065


------------------------ aborting loop because EDIFF is reached ----------------------------------------


    CHARGE:  cpu time    0.5158: real time    0.5159
    FORLOC:  cpu time    0.0235: real time    0.0235
    FORNL :  cpu time    3.8363: real time    3.8364
    STRESS:  cpu time   11.4887: real time   11.4885
    FORCOR:  cpu time    0.0808: real time    0.0810
    FORHAR:  cpu time    0.0356: real time    0.0355
    MIXING:  cpu time    0.0019: real time    0.0019
    OFIELD:  cpu time    0.0000: real time    0.0000

  FORCE on cell =-STRESS in cart. coord.  units (eV):
  Direction    XX          YY          ZZ          XY          YZ          ZX
  --------------------------------------------------------------------------------------
  Alpha Z   359.63456   359.63456   359.63456
  Ewald   -3400.17510 -3400.17510 -3400.17510     0.00000     0.00000     0.00000
  Hartree   552.82232   552.82232   552.82232    -0.00000    -0.00000    -0.00000
  E(xc)    -948.22281  -948.22281  -948.22281     0.00000    -0.00000     0.00000
  Local    -653.13166  -653.13166  -653.13166     0.00000    -0.00000     0.00000
  n-local   959.76743   959.46752   958.91989     1.99353     3.39889     1.32719
  augment  -173.75448  -173.75448  -173.75448    -0.00000     0.00000     0.00000
  Kinetic  3388.11344  3401.69976  3424.37044    -4.50432    -4.45433    -2.07609
  Fock        0.00000     0.00000     0.00000     0.00000     0.00000     0.00000
  -------------------------------------------------------------------------------------
  Total     101.28565   101.28565   101.28565     0.00000     0.00000     0.00000
  in kB     299.21088   299.21088   299.21088     0.00000     0.00000     0.00000
  external pressure =      299.21 kB  Pullay stress =        0.00 kB


 VOLUME and BASIS-vectors are now :
 -----------------------------------------------------------------------------
  energy-cutoff  :      400.00
  volume of cell :      542.35
      direct lattice vectors                 reciprocal lattice vectors
     8.155057730  0.000000000  0.000000000     0.122623289 -0.000000000  0.000000000
     0.000000000  8.155057730  0.000000000    -0.000000000  0.122623289  0.000000000
     0.000000000  0.000000000  8.155057730    -0.000000000 -0.000000000  0.122623289

  length of vectors
     8.155057730  8.155057730  8.155057730     0.122623289  0.122623289  0.122623289


 FORCES acting on ions
    electron-ion (+dipol)            ewald-force                    non-local-force                 convergence-correction
 -----------------------------------------------------------------------------------------------
   0.312E-11 0.149E-11 0.874E-12   0.111E-13 -.284E-13 0.133E-13   -.134E-19 0.883E-20 0.679E-20   0.990E-14 0.123E-11 0.675E-12
   -.421E-12 -.353E-12 -.369E-12   0.285E-13 0.137E-13 -.195E-13   0.533E-20 0.202E-19 0.104E-20   -.317E-13 -.393E-12 -.100E-11
   0.776E-13 0.761E-12 0.161E-12   0.178E-13 0.391E-13 0.160E-13   -.222E-19 -.107E-19 0.105E-20   -.158E-12 0.693E-12 -.988E-12
   -.678E-14 -.428E-12 0.423E-12   0.444E-13 0.351E-13 -.342E-13   0.222E-19 -.166E-19 -.252E-20   -.297E-13 -.576E-12 0.941E-12
   0.178E-12 0.338E-12 0.364E-12   -.124E-13 0.160E-13 0.302E-13   0.246E-17 0.398E-17 0.340E-17   0.305E-12 0.783E-12 0.264E-12
   -.118E-12 0.548E-14 0.166E-12   -.364E-13 -.355E-13 -.266E-14   -.361E-17 -.253E-17 -.201E-17   0.720E-13 0.135E-11 -.195E-11
   -.190E-11 0.202E-11 0.890E-12   0.430E-13 -.222E-13 -.341E-14   -.162E-19 0.720E-20 0.107E-19   0.140E-12 0.890E-12 0.194E-12
   -.258E-12 -.705E-12 0.646E-12   0.175E-13 0.262E-13 -.195E-13   0.212E-19 0.864E-20 0.133E-19   -.200E-12 -.797E-12 -.965E-12
   0.729E-12 0.428E-12 0.136E-12   0.355E-14 0.302E-13 -.355E-14   -.229E-19 -.103E-19 0.432E-22   -.196E-13 0.532E-12 -.109E-11
   -.558E-14 0.267E-12 0.130E-11   0.426E-13 0.305E-14 -.166E-13   0.124E-19 -.184E-19 -.151E-19   0.801E-13 -.124E-11 0.443E-12
   0.160E-12 0.133E-12 0.499E-12   0.444E-15 0.115E-13 0.355E-14   -.955E-18 0.405E-17 -.698E-19   0.188E-13 0.113E-11 -.120E-12
   -.871E-13 0.147E-12 0.219E-13   -.497E-13 -.497E-13 -.142E-13   -.562E-17 -.115E-17 -.413E-17   0.286E-12 0.585E-12 -.183E-11
   -.354E-13 0.132E-11 -.887E-12   0.284E-13 -.102E-13 0.150E-13   -.162E-19 0.976E-20 0.103E-19   -.152E-12 -.947E-12 -.831E-12
   0.287E-11 -.308E-12 0.252E-11   0.225E-13 0.204E-13 0.711E-14   0.152E-19 0.149E-19 0.981E-20   0.107E-12 0.912E-12 0.873E-12
   -.242E-13 0.492E-12 0.152E-11   -.355E-13 0.568E-13 0.338E-13   -.193E-19 -.129E-19 -.306E-21   0.506E-13 -.640E-12 0.847E-12
   -.362E-12 0.247E-12 -.119E-11   0.311E-13 0.235E-13 0.264E-13   0.857E-20 -.209E-19 -.139E-19   0.620E-13 0.106E-11 -.837E-12
   0.289E-12 0.299E-11 0.164E-11   0.187E-13 0.417E-13 0.604E-13   0.413E-17 0.146E-17 0.179E-17   -.547E-13 -.307E-11 -.457E-13
   0.175E-13 -.817E-14 0.134E-11   -.631E-13 0.178E-14 0.138E-13   -.289E-17 -.263E-17 -.319E-17   -.166E-12 0.117E-11 0.184E-11
   -.629E-12 -.547E-12 -.293E-12   0.465E-13 -.542E-13 -.183E-13   -.129E-19 0.137E-19 0.135E-19   -.110E-12 -.102E-11 -.369E-12
   -.587E-12 0.314E-11 0.221E-11   0.343E-13 0.110E-13 -.497E-13   0.101E-19 0.165E-19 -.114E-20   0.117E-12 0.130E-12 0.126E-11
   0.390E-13 -.107E-12 0.761E-12   -.178E-13 0.444E-13 0.178E-14   -.153E-19 -.608E-20 -.191E-20   0.450E-13 -.652E-12 0.115E-11
   -.244E-12 -.922E-12 -.387E-12   0.355E-13 0.198E-13 0.283E-14   0.263E-19 -.234E-19 -.940E-21   -.297E-12 0.749E-12 -.397E-12
   0.300E-12 0.580E-12 -.125E-11   0.204E-13 0.639E-13 0.480E-13   0.521E-17 0.136E-17 0.428E-17   -.158E-12 -.321E-11 0.187E-12
   0.245E-13 -.146E-11 -.559E-12   -.888E-14 -.222E-14 0.195E-13   -.111E-17 -.494E-17 0.715E-18   -.904E-13 0.976E-12 0.172E-11
   -.179E+00 -.179E+00 -.179E+00   0.253E+01 0.253E+01 0.253E+01   -.235E+01 -.235E+01 -.235E+01   -.304E-02 -.304E-02 -.304E-02
   0.179E+00 -.179E+00 -.179E+00   -.253E+01 0.253E+01 0.253E+01   0.235E+01 -.235E+01 -.235E+01   0.304E-02 -.304E-02 -.304E-02
   -.179E+00 -.179E+00 0.179E+00   0.253E+01 0.253E+01 -.253E+01   -.235E+01 -.235E+01 0.235E+01   -.304E-02 -.304E-02 0.304E-02
   -.179E+00 0.179E+00 -.179E+00   0.253E+01 -.253E+01 0.253E+01   -.235E+01 0.235E+01 -.235E+01   -.304E-02 0.304E-02 -.304E-02
   0.179E+00 0.179E+00 -.179E+00   -.253E+01 -.253E+01 0.253E+01   0.235E+01 0.235E+01 -.235E+01   0.304E-02 0.304E-02 -.304E-02
   0.179E+00 -.179E+00 0.179E+00   -.253E+01 0.253E+01 -.253E+01   0.235E+01 -.235E+01 0.235E+01   0.304E-02 -.304E-02 0.304E-02
   0.179E+00 0.179E+00 0.179E+00   -.253E+01 -.253E+01 -.253E+01   0.235E+01 0.235E+01 0.235E+01   0.304E-02 0.304E-02 0.304E-02
   -.179E+00 0.179E+00 0.179E+00   0.253E+01 -.253E+01 -.253E+01   -.235E+01 0.235E+01 0.235E+01   -.304E-02 0.304E-02 0.304E-02
   -.179E+00 -.179E+00 -.179E+00   0.253E+01 0.253E+01 0.253E+01   -.235E+01 -.235E+01 -.235E+01   -.304E-02 -.304E-02 -.304E-02
   0.179E+00 -.179E+00 -.179E+00   -.253E+01 0.253E+01 0.253E+01   0.235E+01 -.235E+01 -.235E+01   0.304E-02 -.304E-02 -.304E-02
   -.179E+00 -.179E+00 0.179E+00   0.253E+01 0.253E+01 -.253E+01   -.235E+01 -.235E+01 0.235E+01   -.304E-02 -.304E-02 0.304E-02
   -.179E+00 0.179E+00 -.179E+00   0.253E+01 -.253E+01 0.253E+01   -.235E+01 0.235E+01 -.235E+01   -.304E-02 0.304E-02 -.304E-02
   0.179E+00 0.179E+00 -.179E+00   -.253E+01 -.253E+01 0.253E+01   0.235E+01 0.235E+01 -.235E+01   0.304E-02 0.304E-02 -.304E-02
   0.179E+00 -.179E+00 0.179E+00   -.253E+01 0.253E+01 -.253E+01   0.235E+01 -.235E+01 0.235E+01   0.304E-02 -.304E-02 0.304E-02
   0.179E+00 0.179E+00 0.179E+00   -.253E+01 -.253E+01 -.253E+01   0.235E+01 0.235E+01 0.235E+01   0.304E-02 0.304E-02 0.304E-02
   -.179E+00 0.179E+00 0.179E+00   0.253E+01 -.253E+01 -.253E+01   -.235E+01 0.235E+01 0.235E+01   -.304E-02 0.304E-02 0.304E-02
   -.179E+00 -.179E+00 -.179E+00   0.253E+01 0.253E+01 0.253E+01   -.235E+01 -.235E+01 -.235E+01   -.304E-02 -.304E-02 -.304E-02
   0.179E+00 -.179E+00 -.179E+00   -.253E+01 0.253E+01 0.253E+01   0.235E+01 -.235E+01 -.235E+01   0.304E-02 -.304E-02 -.304E-02
   -.179E+00 -.179E+00 0.179E+00   0.253E+01 0.253E+01 -.253E+01   -.235E+01 -.235E+01 0.235E+01   -.304E-02 -.304E-02 0.304E-02
   -.179E+00 0.179E+00 -.179E+00   0.253E+01 -.253E+01 0.253E+01   -.235E+01 0.235E+01 -.235E+01   -.304E-02 0.304E-02 -.304E-02
   0.179E+00 0.179E+00 -.179E+00   -.253E+01 -.253E+01 0.253E+01   0.235E+01 0.235E+01 -.235E+01   0.304E-02 0.304E-02 -.304E-02
   0.179E+00 -.179E+00 0.179E+00   -.253E+01 0.253E+01 -.253E+01   0.235E+01 -.235E+01 0.235E+01   0.304E-02 -.304E-02 0.304E-02
   0.179E+00 0.179E+00 0.179E+00   -.253E+01 -.253E+01 -.253E+01   0.235E+01 0.235E+01 0.235E+01   0.304E-02 0.304E-02 0.304E-02
   -.179E+00 0.179E+00 0.179E+00   0.253E+01 -.253E+01 -.253E+01   -.235E+01 0.235E+01 0.235E+01   -.304E-02 0.304E-02 0.304E-02
   -.179E+00 -.179E+00 -.179E+00   0.253E+01 0.253E+01 0.253E+01   -.235E+01 -.235E+01 -.235E+01   -.304E-02 -.304E-02 -.304E-02
   0.179E+00 -.179E+00 -.179E+00   -.253E+01 0.253E+01 0.253E+01   0.235E+01 -.235E+01 -.235E+01   0.304E-02 -.304E-02 -.304E-02
   -.179E+00 -.179E+00 0.179E+00   0.253E+01 0.253E+01 -.253E+01   -.235E+01 -.235E+01 0.235E+01   -.304E-02 -.304E-02 0.304E-02
   -.179E+00 0.179E+00 -.179E+00   0.253E+01 -.253E+01 0.253E+01   -.235E+01 0.235E+01 -.235E+01   -.304E-02 0.304E-02 -.304E-02
   0.179E+00 0.179E+00 -.179E+00   -.253E+01 -.253E+01 0.253E+01   0.235E+01 0.235E+01 -.235E+01   0.304E-02 0.304E-02 -.304E-02
   0.179E+00 -.179E+00 0.179E+00   -.253E+01 0.253E+01 -.253E+01   0.235E+01 -.235E+01 0.235E+01   0.304E-02 -.304E-02 0.304E-02
   0.179E+00 0.179E+00 0.179E+00   -.253E+01 -.253E+01 -.253E+01   0.235E+01 0.235E+01 0.235E+01   0.304E-02 0.304E-02 0.304E-02
   -.179E+00 0.179E+00 0.179E+00   0.253E+01 -.253E+01 -.253E+01   -.235E+01 0.235E+01 0.235E+01   -.304E-02 0.304E-02 0.304E-02
 -----------------------------------------------------------------------------------------------
   0.304E-12 0.122E-10 0.112E-10   -.209E-13 0.000E+00 -.675E-13   -.444E-15 0.666E-14 0.533E-14   -.161E-12 -.342E-12 -.183E-13
 
 
 POSITION                                       TOTAL-FORCE (eV/Angst)
 -----------------------------------------------------------------------------------
      7.13568      7.13568      1.01938         0.000000      0.000000      0.000000
      3.05815      1.01938      3.05815         0.000000      0.000000      0.000000
      5.09691      7.13568      3.05815         0.000000      0.000000      0.000000
      1.01938      1.01938      1.01938         0.000000      0.000000      0.000000
      2.03876      6.11629      2.03876         0.000000      0.000000      0.000000
     -0.00000     -0.00000      4.07753         0.000000      0.000000      0.000000
      7.13568      3.05815      5.09691         0.000000      0.000000      0.000000
      3.05815      5.09691      7.13568         0.000000      0.000000      0.000000
      5.09691      3.05815      7.13568         0.000000      0.000000      0.000000
      1.01938      5.09691      5.09691         0.000000      0.000000      0.000000
      2.03876      2.03876      6.11629         0.000000      0.000000      0.000000
      0.00000      4.07753      0.00000         0.000000      0.000000      0.000000
      3.05815      7.13568      5.09691         0.000000      0.000000      0.000000
      7.13568      1.01938      7.13568         0.000000      0.000000      0.000000
      1.01938      7.13568      7.13568         0.000000      0.000000      0.000000
      5.09691      1.01938      5.09691         0.000000      0.000000      0.000000
      6.11629      6.11629      6.11629         0.000000      0.000000      0.000000
      4.07753      0.00000      0.00000         0.000000      0.000000      0.000000
      3.05815      3.05815      1.01938         0.000000      0.000000      0.000000
      7.13568      5.09691      3.05815         0.000000      0.000000      0.000000
      1.01938      3.05815      3.05815         0.000000      0.000000      0.000000
      5.09691      5.09691      1.01938         0.000000      0.000000      0.000000
      6.11629      2.03876      2.03876         0.000000      0.000000      0.000000
      4.07753      4.07753      4.07753         0.000000      0.000000      0.000000
      3.07088      3.07088      3.07088        -0.001853     -0.001853     -0.001853
      7.12294      1.03212      1.03212         0.001853     -0.001853     -0.001853
      5.10965      1.03212      3.04541        -0.001853     -0.001853      0.001853
      1.03212      7.12294      1.03212        -0.001853      0.001853     -0.001853
      1.00665      1.00665      3.07088         0.001853      0.001853     -0.001853
      1.00665      3.07088      1.00665         0.001853     -0.001853      0.001853
      3.04541      7.12294      3.04541         0.001853      0.001853      0.001853
      3.07088      1.00665      1.00665        -0.001853      0.001853      0.001853
      3.07088      7.14841      7.14841        -0.001853     -0.001853     -0.001853
      7.12294      5.10965      5.10965         0.001853     -0.001853     -0.001853
      5.10965      5.10965      7.12294        -0.001853     -0.001853      0.001853
      1.03212      3.04541      5.10965        -0.001853      0.001853     -0.001853
      1.00665      5.08418      7.14841         0.001853      0.001853     -0.001853
      1.00665      7.14841      5.08418         0.001853     -0.001853      0.001853
      3.04541      3.04541      7.12294         0.001853      0.001853      0.001853
      3.07088      5.08418      5.08418        -0.001853      0.001853      0.001853
      7.14841      3.07088      7.14841        -0.001853     -0.001853     -0.001853
      3.04541      1.03212      5.10965         0.001853     -0.001853     -0.001853
      1.03212      1.03212      7.12294        -0.001853     -0.001853      0.001853
      5.10965      7.12294      5.10965        -0.001853      0.001853     -0.001853
      5.08418      1.00665      7.14841         0.001853      0.001853     -0.001853
      5.08418      3.07088      5.08418         0.001853     -0.001853      0.001853
      7.12294      7.12294      7.12294         0.001853      0.001853      0.001853
      7.14841      1.00665      5.08418        -0.001853      0.001853      0.001853
      7.14841      7.14841      3.07088        -0.001853     -0.001853     -0.001853
      3.04541      5.10965      1.03212         0.001853     -0.001853     -0.001853
      1.03212      5.10965      3.04541        -0.001853     -0.001853      0.001853
      5.10965      3.04541      1.03212        -0.001853      0.001853     -0.001853
      5.08418      5.08418      3.07088         0.001853      0.001853     -0.001853
      5.08418      7.14841      1.00665         0.001853     -0.001853      0.001853
      7.12294      3.04541      3.04541         0.001853      0.001853      0.001853
      7.14841      5.08418      1.00665        -0.001853      0.001853      0.001853
 -----------------------------------------------------------------------------------
    total drift:                                0.000000      0.000000      0.000000


--------------------------------------------------------------------------------------------------------



  FREE ENERGIE OF THE ION-ELECTRON SYSTEM (eV)
  ---------------------------------------------------
  free  energy   TOTEN  =      -320.70234055 eV

  energy  without entropy=     -320.71067721  energy(sigma->0) =     -320.70442471
 
 d Force = 0.2045963E-01[ 0.513E-03, 0.404E-01]  d Energy = 0.1995420E-01 0.505E-03
 d Force =-0.5792612E+00[-0.701E+00,-0.457E+00]  d Ewald  =-0.5793572E+00 0.960E-04


--------------------------------------------------------------------------------------------------------


    POTLOK:  cpu time    0.0662: real time    0.0662


--------------------------------------------------------------------------------------------------------




--------------------------------------------------------------------------------------------------------


  
 reached required accuracy - stopping structural energy minimisation
     LOOP+:  cpu time   57.6475: real time   57.7529
    4ORBIT:  cpu time    0.0000: real time    0.0000

 total amount of memory used by VASP MPI-rank0    83254. kBytes
=======================================================================

   base      :      30000. kBytes
   nonlr-proj:      10502. kBytes
   fftplans  :       3984. kBytes
   grid      :       6277. kBytes
   one-center:         43. kBytes
   wavefun   :      32448. kBytes
 
  
  
 General timing and accounting informations for this job:
 ========================================================
  
                  Total CPU time used (sec):      307.107
                            User time (sec):      306.248
                          System time (sec):        0.859
                         Elapsed time (sec):      307.693
  
                   Maximum memory used (kb):      102968.
                   Average memory used (kb):           0.
  
                          Minor page faults:       152061
                          Major page faults:            5
                 Voluntary context switches:         7264
