<?xml version="1.0" encoding="ISO-8859-1"?>
<modeling>
 <generator>
  <i name="program" type="string">vasp </i>
  <i name="version" type="string">5.4.4.18Apr17-6-g9f103f2a35  </i>
  <i name="subversion" type="string">(build Nov 01 2019 12:17:22) complex            parallel </i>
  <i name="platform" type="string">LinuxIFC </i>
  <i name="date" type="string">2023 05 19 </i>
  <i name="time" type="string">18:21:55 </i>
 </generator>
 <incar>
  <i type="string" name="PREC">accurate</i>
  <i type="string" name="ALGO"> Fast</i>
  <i type="int" name="IBRION">     2</i>
  <i type="int" name="NSW">   100</i>
  <i type="int" name="ISIF">     2</i>
  <i type="string" name="LREAL"> Auto</i>
  <i type="int" name="ISMEAR">     2</i>
  <i name="SIGMA">      0.10000000</i>
  <i type="logical" name="LWAVE"> F  </i>
  <i type="logical" name="LCHARG"> F  </i>
  <v type="int" name="KPOINT_BSE">    -1     0     0     0</v>
 </incar>
 <structure name="primitive_cell" >
  <crystal>
   <varray name="basis" >
    <v>       4.07752887       4.07752887       0.00000000 </v>
    <v>       4.07752887       0.00000000      -4.07752887 </v>
    <v>       0.00000000       4.07752887      -4.07752887 </v>
   </varray>
   <i name="volume">    135.58796046 </i>
   <varray name="rec_basis" >
    <v>       0.12262329       0.12262329       0.12262329 </v>
    <v>       0.12262329      -0.12262329      -0.12262329 </v>
    <v>      -0.12262329       0.12262329      -0.12262329 </v>
   </varray>
  </crystal>
  <varray name="positions" >
   <v>      -0.12500000      -0.12500000      -0.12500000 </v>
   <v>       0.12630293      -0.37890880       0.12630293 </v>
   <v>       0.12630293       0.12630293      -0.37890880 </v>
   <v>      -0.37890880       0.12630293       0.12630293 </v>
   <v>       0.12890880      -0.37630293      -0.37630293 </v>
   <v>      -0.37630293      -0.37630293       0.12890880 </v>
   <v>      -0.37630293       0.12890880      -0.37630293 </v>
   <v>      -0.12500000       0.37500000      -0.12500000 </v>
   <v>      -0.12500000      -0.12500000       0.37500000 </v>
   <v>       0.37500000      -0.12500000      -0.12500000 </v>
   <v>      -0.50000000      -0.50000000      -0.50000000 </v>
   <v>       0.25000000       0.25000000       0.25000000 </v>
   <v>       0.12630293       0.12630293       0.12630293 </v>
   <v>      -0.37630293      -0.37630293      -0.37630293 </v>
  </varray>
 </structure>
 <varray name="primitive_index" >
  <v type="int" >        1 </v>
  <v type="int" >       26 </v>
  <v type="int" >       28 </v>
  <v type="int" >       47 </v>
  <v type="int" >       49 </v>
  <v type="int" >       54 </v>
  <v type="int" >       56 </v>
  <v type="int" >        3 </v>
  <v type="int" >       14 </v>
  <v type="int" >        4 </v>
  <v type="int" >       12 </v>
  <v type="int" >       23 </v>
  <v type="int" >       27 </v>
  <v type="int" >       37 </v>
 </varray>
 <kpoints>
  <generation param="Auto">
   <i name="subdivisionlength">     45.00000000 </i>
   <v type="int" name="divisions">       6        6        6 </v>
   <v name="usershift">      0.00000000       0.00000000       0.00000000 </v>
   <v name="genvec1">      0.16666667       0.00000000       0.00000000 </v>
   <v name="genvec2">     -0.00000000       0.16666667       0.00000000 </v>
   <v name="genvec3">      0.00000000       0.00000000       0.16666667 </v>
   <v name="shift">      0.00000000       0.00000000       0.00000000 </v>
  </generation>
  <varray name="kpointlist" >
   <v>       0.00000000       0.00000000       0.00000000 </v>
   <v>       0.16666667       0.00000000       0.00000000 </v>
   <v>       0.33333333       0.00000000       0.00000000 </v>
   <v>       0.50000000       0.00000000       0.00000000 </v>
   <v>       0.16666667       0.16666667       0.00000000 </v>
   <v>       0.33333333       0.16666667       0.00000000 </v>
   <v>       0.50000000       0.16666667       0.00000000 </v>
   <v>       0.33333333       0.33333333       0.00000000 </v>
   <v>       0.50000000       0.33333333       0.00000000 </v>
   <v>       0.50000000       0.50000000       0.00000000 </v>
   <v>       0.16666667       0.16666667       0.16666667 </v>
   <v>       0.33333333       0.16666667       0.16666667 </v>
   <v>       0.50000000       0.16666667       0.16666667 </v>
   <v>       0.33333333       0.33333333       0.16666667 </v>
   <v>       0.50000000       0.33333333       0.16666667 </v>
   <v>       0.50000000       0.50000000       0.16666667 </v>
   <v>       0.33333333       0.33333333       0.33333333 </v>
   <v>       0.50000000       0.33333333       0.33333333 </v>
   <v>       0.50000000       0.50000000       0.33333333 </v>
   <v>       0.50000000       0.50000000       0.50000000 </v>
  </varray>
  <varray name="weights" >
   <v>       0.00462963 </v>
   <v>       0.02777778 </v>
   <v>       0.02777778 </v>
   <v>       0.01388889 </v>
   <v>       0.05555556 </v>
   <v>       0.11111111 </v>
   <v>       0.05555556 </v>
   <v>       0.05555556 </v>
   <v>       0.05555556 </v>
   <v>       0.01388889 </v>
   <v>       0.03703704 </v>
   <v>       0.11111111 </v>
   <v>       0.05555556 </v>
   <v>       0.11111111 </v>
   <v>       0.11111111 </v>
   <v>       0.02777778 </v>
   <v>       0.03703704 </v>
   <v>       0.05555556 </v>
   <v>       0.02777778 </v>
   <v>       0.00462963 </v>
  </varray>
 </kpoints>
 <parameters>
  <separator name="general" >
   <i type="string" name="SYSTEM">unknown system</i>
   <i type="logical" name="LCOMPAT"> F  </i>
  </separator>
  <separator name="electronic" >
   <i type="string" name="PREC">accura</i>
   <i name="ENMAX">    400.00000000</i>
   <i name="ENAUG">    627.11200000</i>
   <i name="EDIFF">      0.00010000</i>
   <i type="int" name="IALGO">    68</i>
   <i type="int" name="IWAVPR">    11</i>
   <i type="int" name="NBANDS">   156</i>
   <i name="NELECT">    248.00000000</i>
   <i type="int" name="TURBO">     0</i>
   <i type="int" name="IRESTART">     0</i>
   <i type="int" name="NREBOOT">     0</i>
   <i type="int" name="NMIN">     0</i>
   <i name="EREF">      0.00000000</i>
   <separator name="electronic smearing" >
    <i type="int" name="ISMEAR">     2</i>
    <i name="SIGMA">      0.10000000</i>
    <i name="KSPACING">      0.50000000</i>
    <i type="logical" name="KGAMMA"> T  </i>
   </separator>
   <separator name="electronic projectors" >
    <i type="logical" name="LREAL"> T  </i>
    <v name="ROPT">     -0.00025000     -0.00025000</v>
    <i type="int" name="LMAXPAW">  -100</i>
    <i type="int" name="LMAXMIX">     2</i>
    <i type="logical" name="NLSPLINE"> F  </i>
   </separator>
   <separator name="electronic startup" >
    <i type="int" name="ISTART">     0</i>
    <i type="int" name="ICHARG">     2</i>
    <i type="int" name="INIWAV">     1</i>
   </separator>
   <separator name="electronic spin" >
    <i type="int" name="ISPIN">     1</i>
    <i type="logical" name="LNONCOLLINEAR"> F  </i>
    <v name="MAGMOM">      1.00000000      1.00000000      1.00000000      1.00000000      1.00000000      1.00000000      1.00000000      1.00000000      1.00000000      1.00000000      1.00000000      1.00000000      1.00000000      1.00000000      1.00000000      1.00000000      1.00000000      1.00000000      1.00000000      1.00000000
      1.00000000      1.00000000      1.00000000      1.00000000      1.00000000      1.00000000      1.00000000      1.00000000      1.00000000      1.00000000      1.00000000      1.00000000      1.00000000      1.00000000      1.00000000      1.00000000      1.00000000      1.00000000      1.00000000      1.00000000
      1.00000000      1.00000000      1.00000000      1.00000000      1.00000000      1.00000000      1.00000000      1.00000000      1.00000000      1.00000000      1.00000000      1.00000000      1.00000000      1.00000000      1.00000000      1.00000000</v>
    <i name="NUPDOWN">     -1.00000000</i>
    <i type="logical" name="LSORBIT"> F  </i>
    <v name="SAXIS">      0.00000000      0.00000000      1.00000000</v>
    <i type="logical" name="LSPIRAL"> F  </i>
    <v name="QSPIRAL">      0.00000000      0.00000000      0.00000000</v>
    <i type="logical" name="LZEROZ"> F  </i>
   </separator>
   <separator name="electronic exchange-correlation" >
    <i type="logical" name="LASPH"> F  </i>
    <i type="logical" name="LMETAGGA"> F  </i>
   </separator>
   <separator name="electronic convergence" >
    <i type="int" name="NELM">    60</i>
    <i type="int" name="NELMDL">    -5</i>
    <i type="int" name="NELMIN">     2</i>
    <i name="ENINI">    400.00000000</i>
    <separator name="electronic convergence detail" >
     <i type="logical" name="LDIAG"> T  </i>
     <i type="logical" name="LSUBROT"> F  </i>
     <i name="WEIMIN">      0.00100000</i>
     <i name="EBREAK">      0.00000016</i>
     <i name="DEPER">      0.30000000</i>
     <i type="int" name="NRMM">     4</i>
     <i name="TIME">      0.40000000</i>
    </separator>
   </separator>
   <separator name="electronic mixer" >
    <i name="AMIX">      0.40000000</i>
    <i name="BMIX">      1.00000000</i>
    <i name="AMIN">      0.10000000</i>
    <i name="AMIX_MAG">      1.60000000</i>
    <i name="BMIX_MAG">      1.00000000</i>
    <separator name="electronic mixer details" >
     <i type="int" name="IMIX">     4</i>
     <i type="logical" name="MIXFIRST"> F  </i>
     <i type="int" name="MAXMIX">   -45</i>
     <i name="WC">    100.00000000</i>
     <i type="int" name="INIMIX">     1</i>
     <i type="int" name="MIXPRE">     1</i>
     <i type="int" name="MREMOVE">     5</i>
    </separator>
   </separator>
   <separator name="electronic dipolcorrection" >
    <i type="logical" name="LDIPOL"> F  </i>
    <i type="logical" name="LMONO"> F  </i>
    <i type="int" name="IDIPOL">     0</i>
    <i name="EPSILON">      1.00000000</i>
    <v name="DIPOL">   -100.00000000   -100.00000000   -100.00000000</v>
    <i name="EFIELD">      0.00000000</i>
   </separator>
  </separator>
  <separator name="grids" >
   <i type="int" name="NGX">    54</i>
   <i type="int" name="NGY">    54</i>
   <i type="int" name="NGZ">    54</i>
   <i type="int" name="NGXF">   108</i>
   <i type="int" name="NGYF">   108</i>
   <i type="int" name="NGZF">   108</i>
   <i type="logical" name="ADDGRID"> F  </i>
  </separator>
  <separator name="ionic" >
   <i type="int" name="NSW">   100</i>
   <i type="int" name="IBRION">     2</i>
   <i type="int" name="MDALGO">     0</i>
   <i type="int" name="ISIF">     2</i>
   <i name="PSTRESS">      0.00000000</i>
   <i name="EDIFFG">      0.00100000</i>
   <i type="int" name="NFREE">     1</i>
   <i name="POTIM">      0.50000000</i>
   <i name="SMASS">     -3.00000000</i>
   <i name="SCALEE">      1.00000000</i>
  </separator>
  <separator name="ionic md" >
   <i name="TEBEG">      0.00010000</i>
   <i name="TEEND">      0.00010000</i>
   <i type="int" name="NBLOCK">     1</i>
   <i type="int" name="KBLOCK">   100</i>
   <i type="int" name="NPACO">   256</i>
   <i name="APACO">     16.00000000</i>
  </separator>
  <separator name="symmetry" >
   <i type="int" name="ISYM">     2</i>
   <i name="SYMPREC">      0.00001000</i>
  </separator>
  <separator name="dos" >
   <i type="int" name="LORBIT">     0</i>
   <v name="RWIGS">     -1.00000000     -1.00000000</v>
   <i type="int" name="NEDOS">   301</i>
   <i name="EMIN">     10.00000000</i>
   <i name="EMAX">    -10.00000000</i>
   <i name="EFERMI">      0.00000000</i>
  </separator>
  <separator name="writing" >
   <i type="int" name="NWRITE">     2</i>
   <i type="logical" name="LWAVE"> F  </i>
   <i type="logical" name="LDOWNSAMPLE"> F  </i>
   <i type="logical" name="LCHARG"> F  </i>
   <i type="logical" name="LPARD"> F  </i>
   <i type="logical" name="LVTOT"> F  </i>
   <i type="logical" name="LVHAR"> F  </i>
   <i type="logical" name="LELF"> F  </i>
   <i type="logical" name="LOPTICS"> F  </i>
   <v name="STM">      0.00000000      0.00000000      0.00000000      0.00000000      0.00000000      0.00000000      0.00000000</v>
  </separator>
  <separator name="performance" >
   <i type="int" name="NPAR">     4</i>
   <i type="int" name="NSIM">     4</i>
   <i type="int" name="NBLK">    -1</i>
   <i type="logical" name="LPLANE"> T  </i>
   <i type="logical" name="LSCALAPACK"> F  </i>
   <i type="logical" name="LSCAAWARE"> F  </i>
   <i type="logical" name="LSCALU"> F  </i>
   <i type="logical" name="LASYNC"> F  </i>
   <i type="logical" name="LORBITALREAL"> F  </i>
  </separator>
  <separator name="miscellaneous" >
   <i type="int" name="IDIOT">     3</i>
   <i type="int" name="ISPECIAL">     0</i>
   <i type="logical" name="LMUSIC"> F  </i>
   <v name="POMASS">     14.00100000     28.08500000</v>
   <v name="DARWINR">      0.00000000      0.00000000</v>
   <v name="DARWINV">      1.00000000      1.00000000</v>
   <i type="logical" name="LCORR"> T  </i>
  </separator>
  <i type="logical" name="GGA_COMPAT"> T  </i>
  <i type="logical" name="LBERRY"> F  </i>
  <i type="int" name="ICORELEVEL">     0</i>
  <i type="logical" name="LDAU"> F  </i>
  <i type="int" name="I_CONSTRAINED_M">     0</i>
  <separator name="electronic exchange-correlation" >
   <i type="string" name="GGA">--</i>
   <i type="int" name="VOSKOWN">     0</i>
   <i type="logical" name="LHFCALC"> F  </i>
   <i type="string" name="PRECFOCK"></i>
   <i type="logical" name="LSYMGRAD"> F  </i>
   <i type="logical" name="LHFONE"> F  </i>
   <i type="logical" name="LRHFCALC"> F  </i>
   <i type="logical" name="LTHOMAS"> F  </i>
   <i type="logical" name="LMODELHF"> F  </i>
   <i name="ENCUT4O">     -1.00000000</i>
   <i type="int" name="EXXOEP">     0</i>
   <i type="int" name="FOURORBIT">     0</i>
   <i name="AEXX">      0.00000000</i>
   <i name="HFALPHA">      0.00000000</i>
   <i name="MCALPHA">      0.00000000</i>
   <i name="ALDAX">      1.00000000</i>
   <i name="AGGAX">      1.00000000</i>
   <i name="ALDAC">      1.00000000</i>
   <i name="AGGAC">      1.00000000</i>
   <i type="int" name="NKREDX">     1</i>
   <i type="int" name="NKREDY">     1</i>
   <i type="int" name="NKREDZ">     1</i>
   <i type="logical" name="SHIFTRED"> F  </i>
   <i type="logical" name="ODDONLY"> F  </i>
   <i type="logical" name="EVENONLY"> F  </i>
   <i type="int" name="LMAXFOCK">     0</i>
   <i type="int" name="NMAXFOCKAE">     0</i>
   <i type="logical" name="LFOCKAEDFT"> F  </i>
   <i name="HFSCREEN">      0.00000000</i>
   <i name="HFSCREENC">      0.00000000</i>
   <i type="int" name="NBANDSGWLOW">     0</i>
  </separator>
  <separator name="vdW DFT" >
   <i type="logical" name="LUSE_VDW"> F  </i>
   <i name="Zab_VDW">     -0.84910000</i>
   <i name="PARAM1">      0.12340000</i>
   <i name="PARAM2">      1.00000000</i>
   <i name="PARAM3">      0.00000000</i>
  </separator>
  <separator name="model GW" >
   <i type="int" name="MODEL_GW">     0</i>
   <i name="MODEL_EPS0">      5.81091259</i>
   <i name="MODEL_ALPHA">      1.00000000</i>
  </separator>
  <separator name="linear response parameters" >
   <i type="logical" name="LEPSILON"> F  </i>
   <i type="logical" name="LRPA"> F  </i>
   <i type="logical" name="LNABLA"> F  </i>
   <i type="logical" name="LVEL"> F  </i>
   <i type="int" name="KINTER">     0</i>
   <i name="CSHIFT">      0.10000000</i>
   <i name="OMEGAMAX">     -1.00000000</i>
   <i name="DEG_THRESHOLD">      0.00200000</i>
   <i name="RTIME">     -0.10000000</i>
   <i name="WPLASMAI">      0.00000000</i>
   <v name="DFIELD">      0.00000000      0.00000000      0.00000000</v>
   <v name="WPLASMA">      0.00000000      0.00000000      0.00000000      0.00000000      0.00000000      0.00000000      0.00000000      0.00000000      0.00000000</v>
  </separator>
  <separator name="orbital magnetization" >
   <i type="logical" name="NUCIND"> F  </i>
   <v name="MAGPOS">      0.00000000      0.00000000      0.00000000</v>
   <i type="logical" name="LNICSALL"> T  </i>
   <i type="logical" name="ORBITALMAG"> F  </i>
   <i type="logical" name="LMAGBLOCH"> F  </i>
   <i type="logical" name="LCHIMAG"> F  </i>
   <i type="logical" name="LGAUGE"> T  </i>
   <i type="int" name="MAGATOM">     0</i>
   <v name="MAGDIPOL">      0.00000000      0.00000000      0.00000000</v>
   <v name="AVECCONST">      0.00000000      0.00000000      0.00000000</v>
  </separator>
  <separator name="response functions" >
   <i type="logical" name="LADDER"> F  </i>
   <i type="logical" name="LRPAFORCE"> F  </i>
   <i type="logical" name="LFXC"> F  </i>
   <i type="logical" name="LHARTREE"> T  </i>
   <i type="int" name="IBSE">     0</i>
   <v type="int" name="KPOINT">    -1     0     0     0</v>
   <i type="logical" name="LTCTE"> F  </i>
   <i type="logical" name="LTETE"> F  </i>
   <i type="logical" name="LTRIPLET"> F  </i>
   <i type="logical" name="LFXCEPS"> F  </i>
   <i type="logical" name="LFXHEG"> F  </i>
   <i type="int" name="NATURALO">     2</i>
   <i type="logical" name="L2ORDER"> F  </i>
   <i type="logical" name="LMP2LT"> F  </i>
   <i type="logical" name="LUSEW"> F  </i>
   <i name="ENCUTGW">     -2.00000000</i>
   <i name="ENCUTGWSOFT">     -2.00000000</i>
   <i name="ENCUTLF">     -1.00000000</i>
   <i type="int" name="LMAXMP2">    -1</i>
   <i name="SCISSOR">      0.00000000</i>
   <i type="int" name="NOMEGA">     0</i>
   <i type="int" name="NOMEGAR">     0</i>
   <i type="int" name="NBANDSGW">    -1</i>
   <i type="int" name="NBANDSO">    -1</i>
   <i type="int" name="NBANDSV">    -1</i>
   <i type="int" name="NELM">     1</i>
   <i type="int" name="NELMHF">     1</i>
   <i type="int" name="DIM">     3</i>
   <i type="int" name="ANTIRES">     0</i>
   <i name="OMEGAMAX">    -30.00000000</i>
   <i name="OMEGAMIN">    -30.00000000</i>
   <i name="OMEGATL">   -200.00000000</i>
   <i type="int" name="OMEGAGRID">   140</i>
   <i name="CSHIFT">     -0.10000000</i>
   <i type="logical" name="SELFENERGY"> F  </i>
   <i type="logical" name="LSPECTRAL"> F  </i>
   <i type="logical" name="LSPECTRALGW"> F  </i>
   <i type="logical" name="LSINGLES"> F  </i>
   <i type="logical" name="LFERMIGW"> F  </i>
   <i type="logical" name="ODDONLYGW"> F  </i>
   <i type="logical" name="EVENONLYGW"> F  </i>
   <i type="int" name="NKREDLFX">     1</i>
   <i type="int" name="NKREDLFY">     1</i>
   <i type="int" name="NKREDLFZ">     1</i>
   <i type="int" name="MAXMEM">  2800</i>
   <i type="int" name="TELESCOPE">     0</i>
   <i type="int" name="TAUPAR">     1</i>
   <i type="int" name="OMEGAPAR">    -1</i>
   <i name="LAMBDA">      1.00000000</i>
  </separator>
  <separator name="External order field" >
   <i name="OFIELD_KAPPA">      0.00000000</i>
   <v name="OFIELD_K">      0.00000000      0.00000000      0.00000000</v>
   <i name="OFIELD_Q6_NEAR">      0.00000000</i>
   <i name="OFIELD_Q6_FAR">      0.00000000</i>
   <i name="OFIELD_A">      0.00000000</i>
  </separator>
 </parameters>
 <atominfo>
  <atoms>      56 </atoms>
  <types>       2 </types>
  <array name="atoms" >
   <dimension dim="1">ion</dimension>
   <field type="string">element</field>
   <field type="int">atomtype</field>
   <set>
    <rc><c>N </c><c>   1</c></rc>
    <rc><c>N </c><c>   1</c></rc>
    <rc><c>N </c><c>   1</c></rc>
    <rc><c>N </c><c>   1</c></rc>
    <rc><c>N </c><c>   1</c></rc>
    <rc><c>N </c><c>   1</c></rc>
    <rc><c>N </c><c>   1</c></rc>
    <rc><c>N </c><c>   1</c></rc>
    <rc><c>N </c><c>   1</c></rc>
    <rc><c>N </c><c>   1</c></rc>
    <rc><c>N </c><c>   1</c></rc>
    <rc><c>N </c><c>   1</c></rc>
    <rc><c>N </c><c>   1</c></rc>
    <rc><c>N </c><c>   1</c></rc>
    <rc><c>N </c><c>   1</c></rc>
    <rc><c>N </c><c>   1</c></rc>
    <rc><c>N </c><c>   1</c></rc>
    <rc><c>N </c><c>   1</c></rc>
    <rc><c>N </c><c>   1</c></rc>
    <rc><c>N </c><c>   1</c></rc>
    <rc><c>N </c><c>   1</c></rc>
    <rc><c>N </c><c>   1</c></rc>
    <rc><c>N </c><c>   1</c></rc>
    <rc><c>N </c><c>   1</c></rc>
    <rc><c>Si</c><c>   2</c></rc>
    <rc><c>Si</c><c>   2</c></rc>
    <rc><c>Si</c><c>   2</c></rc>
    <rc><c>Si</c><c>   2</c></rc>
    <rc><c>Si</c><c>   2</c></rc>
    <rc><c>Si</c><c>   2</c></rc>
    <rc><c>Si</c><c>   2</c></rc>
    <rc><c>Si</c><c>   2</c></rc>
    <rc><c>Si</c><c>   2</c></rc>
    <rc><c>Si</c><c>   2</c></rc>
    <rc><c>Si</c><c>   2</c></rc>
    <rc><c>Si</c><c>   2</c></rc>
    <rc><c>Si</c><c>   2</c></rc>
    <rc><c>Si</c><c>   2</c></rc>
    <rc><c>Si</c><c>   2</c></rc>
    <rc><c>Si</c><c>   2</c></rc>
    <rc><c>Si</c><c>   2</c></rc>
    <rc><c>Si</c><c>   2</c></rc>
    <rc><c>Si</c><c>   2</c></rc>
    <rc><c>Si</c><c>   2</c></rc>
    <rc><c>Si</c><c>   2</c></rc>
    <rc><c>Si</c><c>   2</c></rc>
    <rc><c>Si</c><c>   2</c></rc>
    <rc><c>Si</c><c>   2</c></rc>
    <rc><c>Si</c><c>   2</c></rc>
    <rc><c>Si</c><c>   2</c></rc>
    <rc><c>Si</c><c>   2</c></rc>
    <rc><c>Si</c><c>   2</c></rc>
    <rc><c>Si</c><c>   2</c></rc>
    <rc><c>Si</c><c>   2</c></rc>
    <rc><c>Si</c><c>   2</c></rc>
    <rc><c>Si</c><c>   2</c></rc>
   </set>
  </array>
  <array name="atomtypes" >
   <dimension dim="1">type</dimension>
   <field type="int">atomspertype</field>
   <field type="string">element</field>
   <field>mass</field>
   <field>valence</field>
   <field type="string">pseudopotential</field>
   <set>
    <rc><c>  24</c><c>N </c><c>     14.00100000</c><c>      5.00000000</c><c>  PAW_PBE N 08Apr2002                   </c></rc>
    <rc><c>  32</c><c>Si</c><c>     28.08500000</c><c>      4.00000000</c><c>  PAW_PBE Si 05Jan2001                  </c></rc>
   </set>
  </array>
 </atominfo>
 <structure name="initialpos" >
  <crystal>
   <varray name="basis" >
    <v>       8.15505773       0.00000000       0.00000000 </v>
    <v>       0.00000000       8.15505773       0.00000000 </v>
    <v>       0.00000000       0.00000000       8.15505773 </v>
   </varray>
   <i name="volume">    542.35184184 </i>
   <varray name="rec_basis" >
    <v>       0.12262329      -0.00000000       0.00000000 </v>
    <v>      -0.00000000       0.12262329       0.00000000 </v>
    <v>      -0.00000000      -0.00000000       0.12262329 </v>
   </varray>
  </crystal>
  <varray name="positions" >
   <v>       0.87500000       0.87500000       0.12500000 </v>
   <v>       0.37500000       0.12500000       0.37500000 </v>
   <v>       0.62500000       0.87500000       0.37500000 </v>
   <v>       0.12500000       0.12500000       0.12500000 </v>
   <v>       0.25000000       0.75000000       0.25000000 </v>
   <v>       0.00000000       0.00000000       0.50000000 </v>
   <v>       0.87500000       0.37500000       0.62500000 </v>
   <v>       0.37500000       0.62500000       0.87500000 </v>
   <v>       0.62500000       0.37500000       0.87500000 </v>
   <v>       0.12500000       0.62500000       0.62500000 </v>
   <v>       0.25000000       0.25000000       0.75000000 </v>
   <v>       0.00000000       0.50000000       0.00000000 </v>
   <v>       0.37500000       0.87500000       0.62500000 </v>
   <v>       0.87500000       0.12500000       0.87500000 </v>
   <v>       0.12500000       0.87500000       0.87500000 </v>
   <v>       0.62500000       0.12500000       0.62500000 </v>
   <v>       0.75000000       0.75000000       0.75000000 </v>
   <v>       0.50000000       0.00000000       0.00000000 </v>
   <v>       0.37500000       0.37500000       0.12500000 </v>
   <v>       0.87500000       0.62500000       0.37500000 </v>
   <v>       0.12500000       0.37500000       0.37500000 </v>
   <v>       0.62500000       0.62500000       0.12500000 </v>
   <v>       0.75000000       0.25000000       0.25000000 </v>
   <v>       0.50000000       0.50000000       0.50000000 </v>
   <v>       0.37630293       0.37630293       0.37630293 </v>
   <v>       0.87369707       0.12630293       0.12630293 </v>
   <v>       0.62630293       0.12630293       0.37369707 </v>
   <v>       0.12630293       0.87369707       0.12630293 </v>
   <v>       0.12369707       0.12369707       0.37630293 </v>
   <v>       0.12369707       0.37630293       0.12369707 </v>
   <v>       0.37369707       0.87369707       0.37369707 </v>
   <v>       0.37630293       0.12369707       0.12369707 </v>
   <v>       0.37630293       0.87630293       0.87630293 </v>
   <v>       0.87369707       0.62630293       0.62630293 </v>
   <v>       0.62630293       0.62630293       0.87369707 </v>
   <v>       0.12630293       0.37369707       0.62630293 </v>
   <v>       0.12369707       0.62369707       0.87630293 </v>
   <v>       0.12369707       0.87630293       0.62369707 </v>
   <v>       0.37369707       0.37369707       0.87369707 </v>
   <v>       0.37630293       0.62369707       0.62369707 </v>
   <v>       0.87630293       0.37630293       0.87630293 </v>
   <v>       0.37369707       0.12630293       0.62630293 </v>
   <v>       0.12630293       0.12630293       0.87369707 </v>
   <v>       0.62630293       0.87369707       0.62630293 </v>
   <v>       0.62369707       0.12369707       0.87630293 </v>
   <v>       0.62369707       0.37630293       0.62369707 </v>
   <v>       0.87369707       0.87369707       0.87369707 </v>
   <v>       0.87630293       0.12369707       0.62369707 </v>
   <v>       0.87630293       0.87630293       0.37630293 </v>
   <v>       0.37369707       0.62630293       0.12630293 </v>
   <v>       0.12630293       0.62630293       0.37369707 </v>
   <v>       0.62630293       0.37369707       0.12630293 </v>
   <v>       0.62369707       0.62369707       0.37630293 </v>
   <v>       0.62369707       0.87630293       0.12369707 </v>
   <v>       0.87369707       0.37369707       0.37369707 </v>
   <v>       0.87630293       0.62369707       0.12369707 </v>
  </varray>
 </structure>
 <calculation>
  <scstep>
   <time name="dav">   12.92   12.92</time>
   <time name="total">   12.99   12.99</time>
   <energy>
    <i name="alphaZ">    359.63456017 </i>
    <i name="ewald"> -10199.89241564 </i>
    <i name="hartreedc">  -1406.56495639 </i>
    <i name="XCdc">    219.04859998 </i>
    <i name="pawpsdc">   7738.34714636 </i>
    <i name="pawaedc">  -7203.94574617 </i>
    <i name="eentropy">      0.00399023 </i>
    <i name="bandstr">   1747.51750952 </i>
    <i name="atom">   9645.50393724 </i>
    <i name="e_fr_energy">    899.65262530 </i>
    <i name="e_wo_entrp">    899.64863507 </i>
    <i name="e_0_energy">    899.65162774 </i>
   </energy>
  </scstep>
  <scstep>
   <time name="dav">   15.35   15.35</time>
   <time name="total">   15.36   15.36</time>
   <energy>
    <i name="e_fr_energy">   -252.26278332 </i>
    <i name="e_wo_entrp">   -252.26144214 </i>
    <i name="e_0_energy">   -252.26244802 </i>
   </energy>
  </scstep>
  <scstep>
   <time name="dav">   15.16   15.16</time>
   <time name="total">   15.16   15.16</time>
   <energy>
    <i name="e_fr_energy">   -347.75877202 </i>
    <i name="e_wo_entrp">   -347.75207567 </i>
    <i name="e_0_energy">   -347.75709793 </i>
   </energy>
  </scstep>
  <scstep>
   <time name="dav">   15.30   15.30</time>
   <time name="total">   15.30   15.30</time>
   <energy>
    <i name="e_fr_energy">   -350.75993646 </i>
    <i name="e_wo_entrp">   -350.75345365 </i>
    <i name="e_0_energy">   -350.75831576 </i>
   </energy>
  </scstep>
  <scstep>
   <time name="dav">   14.97   14.97</time>
   <time name="total">   15.50   15.50</time>
   <energy>
    <i name="e_fr_energy">   -350.84743174 </i>
    <i name="e_wo_entrp">   -350.84152182 </i>
    <i name="e_0_energy">   -350.84595426 </i>
   </energy>
  </scstep>
  <scstep>
   <time name="diag">    1.49    1.49</time>
   <time name="diis">    8.08    8.08</time>
   <time name="orth">    0.20    0.20</time>
   <time name="total">   10.37   10.37</time>
   <energy>
    <i name="e_fr_energy">   -321.26635790 </i>
    <i name="e_wo_entrp">   -321.26945837 </i>
    <i name="e_0_energy">   -321.26713302 </i>
   </energy>
  </scstep>
  <scstep>
   <time name="diag">    1.48    1.48</time>
   <time name="diis">    8.41    8.41</time>
   <time name="orth">    0.20    0.20</time>
   <time name="total">   10.68   10.68</time>
   <energy>
    <i name="e_fr_energy">   -320.90838678 </i>
    <i name="e_wo_entrp">   -320.91492896 </i>
    <i name="e_0_energy">   -320.91002233 </i>
   </energy>
  </scstep>
  <scstep>
   <time name="diag">    1.48    1.48</time>
   <time name="diis">    8.15    8.15</time>
   <time name="orth">    0.20    0.20</time>
   <time name="total">   10.42   10.42</time>
   <energy>
    <i name="e_fr_energy">   -320.77794963 </i>
    <i name="e_wo_entrp">   -320.78403488 </i>
    <i name="e_0_energy">   -320.77947094 </i>
   </energy>
  </scstep>
  <scstep>
   <time name="diag">    1.47    1.47</time>
   <time name="diis">    8.22    8.22</time>
   <time name="orth">    0.20    0.20</time>
   <time name="total">   10.48   10.48</time>
   <energy>
    <i name="e_fr_energy">   -320.69685240 </i>
    <i name="e_wo_entrp">   -320.70402992 </i>
    <i name="e_0_energy">   -320.69864678 </i>
   </energy>
  </scstep>
  <scstep>
   <time name="diag">    1.47    1.47</time>
   <time name="diis">    8.45    8.46</time>
   <time name="orth">    0.20    0.20</time>
   <time name="total">   10.71   10.72</time>
   <energy>
    <i name="e_fr_energy">   -320.69193901 </i>
    <i name="e_wo_entrp">   -320.69911063 </i>
    <i name="e_0_energy">   -320.69373191 </i>
   </energy>
  </scstep>
  <scstep>
   <time name="diag">    1.46    1.46</time>
   <time name="diis">    8.30    8.29</time>
   <time name="orth">    0.20    0.20</time>
   <time name="total">   10.54   10.54</time>
   <energy>
    <i name="e_fr_energy">   -320.69206816 </i>
    <i name="e_wo_entrp">   -320.69916118 </i>
    <i name="e_0_energy">   -320.69384142 </i>
   </energy>
  </scstep>
  <scstep>
   <time name="diag">    1.46    1.46</time>
   <time name="diis">    8.28    8.27</time>
   <time name="orth">    0.20    0.20</time>
   <time name="total">   10.52   10.52</time>
   <energy>
    <i name="e_fr_energy">   -320.69202369 </i>
    <i name="e_wo_entrp">   -320.69926763 </i>
    <i name="e_0_energy">   -320.69383467 </i>
   </energy>
  </scstep>
  <scstep>
   <time name="diag">    1.44    1.44</time>
   <time name="diis">    5.41    5.41</time>
   <time name="orth">    0.20    0.20</time>
   <time name="total">    7.12    7.12</time>
   <energy>
    <i name="alphaZ">    359.63456017 </i>
    <i name="ewald"> -10199.89241564 </i>
    <i name="hartreedc">  -1659.45201043 </i>
    <i name="XCdc">    238.51311436 </i>
    <i name="pawpsdc">  29135.97451844 </i>
    <i name="pawaedc"> -28605.80023689 </i>
    <i name="eentropy">      0.00718389 </i>
    <i name="bandstr">    764.81939365 </i>
    <i name="atom">   9645.50393724 </i>
    <i name="e_fr_energy">   -320.69195521 </i>
    <i name="e_wo_entrp">   -320.69913910 </i>
    <i name="e_0_energy">   -320.69375118 </i>
   </energy>
  </scstep>
  <structure>
   <crystal>
    <varray name="basis" >
     <v>       8.15505773       0.00000000       0.00000000 </v>
     <v>       0.00000000       8.15505773       0.00000000 </v>
     <v>       0.00000000       0.00000000       8.15505773 </v>
    </varray>
    <i name="volume">    542.35184184 </i>
    <varray name="rec_basis" >
     <v>       0.12262329      -0.00000000       0.00000000 </v>
     <v>      -0.00000000       0.12262329       0.00000000 </v>
     <v>      -0.00000000      -0.00000000       0.12262329 </v>
    </varray>
   </crystal>
   <varray name="positions" >
    <v>       0.87500000       0.87500000       0.12500000 </v>
    <v>       0.37500000       0.12500000       0.37500000 </v>
    <v>       0.62500000       0.87500000       0.37500000 </v>
    <v>       0.12500000       0.12500000       0.12500000 </v>
    <v>       0.25000000       0.75000000       0.25000000 </v>
    <v>       0.00000000       0.00000000       0.50000000 </v>
    <v>       0.87500000       0.37500000       0.62500000 </v>
    <v>       0.37500000       0.62500000       0.87500000 </v>
    <v>       0.62500000       0.37500000       0.87500000 </v>
    <v>       0.12500000       0.62500000       0.62500000 </v>
    <v>       0.25000000       0.25000000       0.75000000 </v>
    <v>       0.00000000       0.50000000       0.00000000 </v>
    <v>       0.37500000       0.87500000       0.62500000 </v>
    <v>       0.87500000       0.12500000       0.87500000 </v>
    <v>       0.12500000       0.87500000       0.87500000 </v>
    <v>       0.62500000       0.12500000       0.62500000 </v>
    <v>       0.75000000       0.75000000       0.75000000 </v>
    <v>       0.50000000       0.00000000       0.00000000 </v>
    <v>       0.37500000       0.37500000       0.12500000 </v>
    <v>       0.87500000       0.62500000       0.37500000 </v>
    <v>       0.12500000       0.37500000       0.37500000 </v>
    <v>       0.62500000       0.62500000       0.12500000 </v>
    <v>       0.75000000       0.25000000       0.25000000 </v>
    <v>       0.50000000       0.50000000       0.50000000 </v>
    <v>       0.37630293       0.37630293       0.37630293 </v>
    <v>       0.87369707       0.12630293       0.12630293 </v>
    <v>       0.62630293       0.12630293       0.37369707 </v>
    <v>       0.12630293       0.87369707       0.12630293 </v>
    <v>       0.12369707       0.12369707       0.37630293 </v>
    <v>       0.12369707       0.37630293       0.12369707 </v>
    <v>       0.37369707       0.87369707       0.37369707 </v>
    <v>       0.37630293       0.12369707       0.12369707 </v>
    <v>       0.37630293       0.87630293       0.87630293 </v>
    <v>       0.87369707       0.62630293       0.62630293 </v>
    <v>       0.62630293       0.62630293       0.87369707 </v>
    <v>       0.12630293       0.37369707       0.62630293 </v>
    <v>       0.12369707       0.62369707       0.87630293 </v>
    <v>       0.12369707       0.87630293       0.62369707 </v>
    <v>       0.37369707       0.37369707       0.87369707 </v>
    <v>       0.37630293       0.62369707       0.62369707 </v>
    <v>       0.87630293       0.37630293       0.87630293 </v>
    <v>       0.37369707       0.12630293       0.62630293 </v>
    <v>       0.12630293       0.12630293       0.87369707 </v>
    <v>       0.62630293       0.87369707       0.62630293 </v>
    <v>       0.62369707       0.12369707       0.87630293 </v>
    <v>       0.62369707       0.37630293       0.62369707 </v>
    <v>       0.87369707       0.87369707       0.87369707 </v>
    <v>       0.87630293       0.12369707       0.62369707 </v>
    <v>       0.87630293       0.87630293       0.37630293 </v>
    <v>       0.37369707       0.62630293       0.12630293 </v>
    <v>       0.12630293       0.62630293       0.37369707 </v>
    <v>       0.62630293       0.37369707       0.12630293 </v>
    <v>       0.62369707       0.62369707       0.37630293 </v>
    <v>       0.62369707       0.87630293       0.12369707 </v>
    <v>       0.87369707       0.37369707       0.37369707 </v>
    <v>       0.87630293       0.62369707       0.12369707 </v>
   </varray>
  </structure>
  <varray name="forces" >
   <v>      -0.00000000      -0.00000000       0.00000000 </v>
   <v>      -0.00000000      -0.00000000       0.00000000 </v>
   <v>      -0.00000000      -0.00000000       0.00000000 </v>
   <v>      -0.00000000      -0.00000000       0.00000000 </v>
   <v>      -0.00000000      -0.00000000       0.00000000 </v>
   <v>      -0.00000000      -0.00000000       0.00000000 </v>
   <v>      -0.00000000      -0.00000000       0.00000000 </v>
   <v>      -0.00000000      -0.00000000       0.00000000 </v>
   <v>      -0.00000000      -0.00000000       0.00000000 </v>
   <v>      -0.00000000      -0.00000000       0.00000000 </v>
   <v>      -0.00000000      -0.00000000       0.00000000 </v>
   <v>      -0.00000000      -0.00000000       0.00000000 </v>
   <v>      -0.00000000      -0.00000000       0.00000000 </v>
   <v>      -0.00000000      -0.00000000       0.00000000 </v>
   <v>      -0.00000000      -0.00000000       0.00000000 </v>
   <v>      -0.00000000      -0.00000000       0.00000000 </v>
   <v>      -0.00000000      -0.00000000       0.00000000 </v>
   <v>      -0.00000000      -0.00000000       0.00000000 </v>
   <v>      -0.00000000      -0.00000000       0.00000000 </v>
   <v>      -0.00000000      -0.00000000       0.00000000 </v>
   <v>      -0.00000000      -0.00000000       0.00000000 </v>
   <v>      -0.00000000      -0.00000000       0.00000000 </v>
   <v>      -0.00000000      -0.00000000       0.00000000 </v>
   <v>      -0.00000000      -0.00000000       0.00000000 </v>
   <v>       0.10353618       0.10353618       0.10353618 </v>
   <v>      -0.10353618       0.10353618       0.10353618 </v>
   <v>       0.10353618       0.10353618      -0.10353618 </v>
   <v>       0.10353618      -0.10353618       0.10353618 </v>
   <v>      -0.10353618      -0.10353618       0.10353618 </v>
   <v>      -0.10353618       0.10353618      -0.10353618 </v>
   <v>      -0.10353618      -0.10353618      -0.10353618 </v>
   <v>       0.10353618      -0.10353618      -0.10353618 </v>
   <v>       0.10353618       0.10353618       0.10353618 </v>
   <v>      -0.10353618       0.10353618       0.10353618 </v>
   <v>       0.10353618       0.10353618      -0.10353618 </v>
   <v>       0.10353618      -0.10353618       0.10353618 </v>
   <v>      -0.10353618      -0.10353618       0.10353618 </v>
   <v>      -0.10353618       0.10353618      -0.10353618 </v>
   <v>      -0.10353618      -0.10353618      -0.10353618 </v>
   <v>       0.10353618      -0.10353618      -0.10353618 </v>
   <v>       0.10353618       0.10353618       0.10353618 </v>
   <v>      -0.10353618       0.10353618       0.10353618 </v>
   <v>       0.10353618       0.10353618      -0.10353618 </v>
   <v>       0.10353618      -0.10353618       0.10353618 </v>
   <v>      -0.10353618      -0.10353618       0.10353618 </v>
   <v>      -0.10353618       0.10353618      -0.10353618 </v>
   <v>      -0.10353618      -0.10353618      -0.10353618 </v>
   <v>       0.10353618      -0.10353618      -0.10353618 </v>
   <v>       0.10353618       0.10353618       0.10353618 </v>
   <v>      -0.10353618       0.10353618       0.10353618 </v>
   <v>       0.10353618       0.10353618      -0.10353618 </v>
   <v>       0.10353618      -0.10353618       0.10353618 </v>
   <v>      -0.10353618      -0.10353618       0.10353618 </v>
   <v>      -0.10353618       0.10353618      -0.10353618 </v>
   <v>      -0.10353618      -0.10353618      -0.10353618 </v>
   <v>       0.10353618      -0.10353618      -0.10353618 </v>
  </varray>
  <varray name="stress" >
   <v>     299.69903383       0.00000000       0.00000000 </v>
   <v>       0.00000000     299.69903383       0.00000000 </v>
   <v>       0.00000000       0.00000000     299.69903383 </v>
  </varray>
  <energy>
   <i name="e_fr_energy">   -320.69195521 </i>
   <i name="e_wo_entrp">   -320.69375118 </i>
   <i name="e_0_energy">      0.00718389 </i>
  </energy>
  <time name="totalsc">  172.73  172.76</time>
 </calculation>
 <calculation>
  <scstep>
   <time name="dav">   14.05   14.05</time>
   <time name="total">   14.64   14.65</time>
   <energy>
    <i name="alphaZ">    359.63456017 </i>
    <i name="ewald"> -10201.04937000 </i>
    <i name="hartreedc">  -1656.32779885 </i>
    <i name="XCdc">    238.47164782 </i>
    <i name="pawpsdc">  29129.71228251 </i>
    <i name="pawaedc"> -28599.53800568 </i>
    <i name="eentropy">      0.00960454 </i>
    <i name="bandstr">    762.90539528 </i>
    <i name="atom">   9645.50393724 </i>
    <i name="e_fr_energy">   -320.67774697 </i>
    <i name="e_wo_entrp">   -320.68735151 </i>
    <i name="e_0_energy">   -320.68014811 </i>
   </energy>
  </scstep>
  <scstep>
   <time name="diag">    1.46    1.46</time>
   <time name="diis">    8.10    8.10</time>
   <time name="orth">    0.20    0.20</time>
   <time name="total">   10.35   10.36</time>
   <energy>
    <i name="e_fr_energy">   -320.68376874 </i>
    <i name="e_wo_entrp">   -320.69342122 </i>
    <i name="e_0_energy">   -320.68618186 </i>
   </energy>
  </scstep>
  <scstep>
   <time name="diag">    1.45    1.45</time>
   <time name="diis">    8.44    8.44</time>
   <time name="orth">    0.20    0.20</time>
   <time name="total">   10.68   10.68</time>
   <energy>
    <i name="e_fr_energy">   -320.68267473 </i>
    <i name="e_wo_entrp">   -320.69219459 </i>
    <i name="e_0_energy">   -320.68505470 </i>
   </energy>
  </scstep>
  <scstep>
   <time name="diag">    1.44    1.45</time>
   <time name="diis">    8.17    8.17</time>
   <time name="orth">    0.20    0.20</time>
   <time name="total">   10.40   10.41</time>
   <energy>
    <i name="e_fr_energy">   -320.68239739 </i>
    <i name="e_wo_entrp">   -320.69179841 </i>
    <i name="e_0_energy">   -320.68474765 </i>
   </energy>
  </scstep>
  <scstep>
   <time name="diag">    1.44    1.44</time>
   <time name="diis">    6.90    6.89</time>
   <time name="orth">    0.20    0.20</time>
   <time name="total">    8.60    8.60</time>
   <energy>
    <i name="alphaZ">    359.63456017 </i>
    <i name="ewald"> -10201.04937000 </i>
    <i name="hartreedc">  -1657.92669826 </i>
    <i name="XCdc">    238.59062965 </i>
    <i name="pawpsdc">  29270.33943929 </i>
    <i name="pawaedc"> -28740.20929180 </i>
    <i name="eentropy">      0.00943402 </i>
    <i name="bandstr">    764.42497335 </i>
    <i name="atom">   9645.50393724 </i>
    <i name="e_fr_energy">   -320.68238635 </i>
    <i name="e_wo_entrp">   -320.69182037 </i>
    <i name="e_0_energy">   -320.68474486 </i>
   </energy>
  </scstep>
  <structure>
   <crystal>
    <varray name="basis" >
     <v>       8.15505773       0.00000000       0.00000000 </v>
     <v>       0.00000000       8.15505773       0.00000000 </v>
     <v>       0.00000000       0.00000000       8.15505773 </v>
    </varray>
    <i name="volume">    542.35184184 </i>
    <varray name="rec_basis" >
     <v>       0.12262329      -0.00000000       0.00000000 </v>
     <v>      -0.00000000       0.12262329       0.00000000 </v>
     <v>      -0.00000000      -0.00000000       0.12262329 </v>
    </varray>
   </crystal>
   <varray name="positions" >
    <v>       0.87500000       0.87500000       0.12500000 </v>
    <v>       0.37500000       0.12500000       0.37500000 </v>
    <v>       0.62500000       0.87500000       0.37500000 </v>
    <v>       0.12500000       0.12500000       0.12500000 </v>
    <v>       0.25000000       0.75000000       0.25000000 </v>
    <v>      -0.00000000      -0.00000000       0.50000000 </v>
    <v>       0.87500000       0.37500000       0.62500000 </v>
    <v>       0.37500000       0.62500000       0.87500000 </v>
    <v>       0.62500000       0.37500000       0.87500000 </v>
    <v>       0.12500000       0.62500000       0.62500000 </v>
    <v>       0.25000000       0.25000000       0.75000000 </v>
    <v>      -0.00000000       0.50000000       0.00000000 </v>
    <v>       0.37500000       0.87500000       0.62500000 </v>
    <v>       0.87500000       0.12500000       0.87500000 </v>
    <v>       0.12500000       0.87500000       0.87500000 </v>
    <v>       0.62500000       0.12500000       0.62500000 </v>
    <v>       0.75000000       0.75000000       0.75000000 </v>
    <v>       0.50000000      -0.00000000       0.00000000 </v>
    <v>       0.37500000       0.37500000       0.12500000 </v>
    <v>       0.87500000       0.62500000       0.37500000 </v>
    <v>       0.12500000       0.37500000       0.37500000 </v>
    <v>       0.62500000       0.62500000       0.12500000 </v>
    <v>       0.75000000       0.25000000       0.25000000 </v>
    <v>       0.50000000       0.50000000       0.50000000 </v>
    <v>       0.37691542       0.37691542       0.37691542 </v>
    <v>       0.87308458       0.12691542       0.12691542 </v>
    <v>       0.62691542       0.12691542       0.37308458 </v>
    <v>       0.12691542       0.87308458       0.12691542 </v>
    <v>       0.12308458       0.12308458       0.37691542 </v>
    <v>       0.12308458       0.37691542       0.12308458 </v>
    <v>       0.37308458       0.87308458       0.37308458 </v>
    <v>       0.37691542       0.12308458       0.12308458 </v>
    <v>       0.37691542       0.87691542       0.87691542 </v>
    <v>       0.87308458       0.62691542       0.62691542 </v>
    <v>       0.62691542       0.62691542       0.87308458 </v>
    <v>       0.12691542       0.37308458       0.62691542 </v>
    <v>       0.12308458       0.62308458       0.87691542 </v>
    <v>       0.12308458       0.87691542       0.62308458 </v>
    <v>       0.37308458       0.37308458       0.87308458 </v>
    <v>       0.37691542       0.62308458       0.62308458 </v>
    <v>       0.87691542       0.37691542       0.87691542 </v>
    <v>       0.37308458       0.12691542       0.62691542 </v>
    <v>       0.12691542       0.12691542       0.87308458 </v>
    <v>       0.62691542       0.87308458       0.62691542 </v>
    <v>       0.62308458       0.12308458       0.87691542 </v>
    <v>       0.62308458       0.37691542       0.62308458 </v>
    <v>       0.87308458       0.87308458       0.87308458 </v>
    <v>       0.87691542       0.12308458       0.62308458 </v>
    <v>       0.87691542       0.87691542       0.37691542 </v>
    <v>       0.37308458       0.62691542       0.12691542 </v>
    <v>       0.12691542       0.62691542       0.37308458 </v>
    <v>       0.62691542       0.37308458       0.12691542 </v>
    <v>       0.62308458       0.62308458       0.37691542 </v>
    <v>       0.62308458       0.87691542       0.12308458 </v>
    <v>       0.87308458       0.37308458       0.37308458 </v>
    <v>       0.87691542       0.62308458       0.12308458 </v>
   </varray>
  </structure>
  <varray name="forces" >
   <v>      -0.00000000      -0.00000000      -0.00000000 </v>
   <v>      -0.00000000      -0.00000000      -0.00000000 </v>
   <v>      -0.00000000      -0.00000000      -0.00000000 </v>
   <v>      -0.00000000      -0.00000000      -0.00000000 </v>
   <v>      -0.00000000      -0.00000000      -0.00000000 </v>
   <v>      -0.00000000      -0.00000000      -0.00000000 </v>
   <v>      -0.00000000      -0.00000000      -0.00000000 </v>
   <v>      -0.00000000      -0.00000000      -0.00000000 </v>
   <v>      -0.00000000      -0.00000000      -0.00000000 </v>
   <v>      -0.00000000      -0.00000000      -0.00000000 </v>
   <v>      -0.00000000      -0.00000000      -0.00000000 </v>
   <v>      -0.00000000      -0.00000000      -0.00000000 </v>
   <v>      -0.00000000      -0.00000000      -0.00000000 </v>
   <v>      -0.00000000      -0.00000000      -0.00000000 </v>
   <v>      -0.00000000      -0.00000000      -0.00000000 </v>
   <v>      -0.00000000      -0.00000000      -0.00000000 </v>
   <v>      -0.00000000      -0.00000000      -0.00000000 </v>
   <v>      -0.00000000      -0.00000000      -0.00000000 </v>
   <v>      -0.00000000      -0.00000000      -0.00000000 </v>
   <v>      -0.00000000      -0.00000000      -0.00000000 </v>
   <v>      -0.00000000      -0.00000000      -0.00000000 </v>
   <v>      -0.00000000      -0.00000000      -0.00000000 </v>
   <v>      -0.00000000      -0.00000000      -0.00000000 </v>
   <v>      -0.00000000      -0.00000000      -0.00000000 </v>
   <v>      -0.14583870      -0.14583870      -0.14583870 </v>
   <v>       0.14583870      -0.14583870      -0.14583870 </v>
   <v>      -0.14583870      -0.14583870       0.14583870 </v>
   <v>      -0.14583870       0.14583870      -0.14583870 </v>
   <v>       0.14583870       0.14583870      -0.14583870 </v>
   <v>       0.14583870      -0.14583870       0.14583870 </v>
   <v>       0.14583870       0.14583870       0.14583870 </v>
   <v>      -0.14583870       0.14583870       0.14583870 </v>
   <v>      -0.14583870      -0.14583870      -0.14583870 </v>
   <v>       0.14583870      -0.14583870      -0.14583870 </v>
   <v>      -0.14583870      -0.14583870       0.14583870 </v>
   <v>      -0.14583870       0.14583870      -0.14583870 </v>
   <v>       0.14583870       0.14583870      -0.14583870 </v>
   <v>       0.14583870      -0.14583870       0.14583870 </v>
   <v>       0.14583870       0.14583870       0.14583870 </v>
   <v>      -0.14583870       0.14583870       0.14583870 </v>
   <v>      -0.14583870      -0.14583870      -0.14583870 </v>
   <v>       0.14583870      -0.14583870      -0.14583870 </v>
   <v>      -0.14583870      -0.14583870       0.14583870 </v>
   <v>      -0.14583870       0.14583870      -0.14583870 </v>
   <v>       0.14583870       0.14583870      -0.14583870 </v>
   <v>       0.14583870      -0.14583870       0.14583870 </v>
   <v>       0.14583870       0.14583870       0.14583870 </v>
   <v>      -0.14583870       0.14583870       0.14583870 </v>
   <v>      -0.14583870      -0.14583870      -0.14583870 </v>
   <v>       0.14583870      -0.14583870      -0.14583870 </v>
   <v>      -0.14583870      -0.14583870       0.14583870 </v>
   <v>      -0.14583870       0.14583870      -0.14583870 </v>
   <v>       0.14583870       0.14583870      -0.14583870 </v>
   <v>       0.14583870      -0.14583870       0.14583870 </v>
   <v>       0.14583870       0.14583870       0.14583870 </v>
   <v>      -0.14583870       0.14583870       0.14583870 </v>
  </varray>
  <varray name="stress" >
   <v>     298.91584214       0.00000000       0.00000000 </v>
   <v>       0.00000000     298.91584214       0.00000000 </v>
   <v>       0.00000000       0.00000000     298.91584214 </v>
  </varray>
  <energy>
   <i name="e_fr_energy">   -320.68238635 </i>
   <i name="e_wo_entrp">   -320.68474486 </i>
   <i name="e_0_energy">      0.00943402 </i>
  </energy>
  <time name="totalsc">   72.38   72.40</time>
 </calculation>
 <calculation>
  <scstep>
   <time name="dav">   13.77   13.77</time>
   <time name="total">   14.36   14.36</time>
   <energy>
    <i name="alphaZ">    359.63456017 </i>
    <i name="ewald"> -10200.47001278 </i>
    <i name="hartreedc">  -1659.60907660 </i>
    <i name="XCdc">    238.60816820 </i>
    <i name="pawpsdc">  29265.36082339 </i>
    <i name="pawaedc"> -28735.23087646 </i>
    <i name="eentropy">      0.00793751 </i>
    <i name="bandstr">    765.49339812 </i>
    <i name="atom">   9645.50393724 </i>
    <i name="e_fr_energy">   -320.70114121 </i>
    <i name="e_wo_entrp">   -320.70907872 </i>
    <i name="e_0_energy">   -320.70312559 </i>
   </energy>
  </scstep>
  <scstep>
   <time name="diag">    1.45    1.45</time>
   <time name="diis">    8.00    8.00</time>
   <time name="orth">    0.20    0.20</time>
   <time name="total">   10.24   10.24</time>
   <energy>
    <i name="e_fr_energy">   -320.70278888 </i>
    <i name="e_wo_entrp">   -320.71088225 </i>
    <i name="e_0_energy">   -320.70481223 </i>
   </energy>
  </scstep>
  <scstep>
   <time name="diag">    1.44    1.44</time>
   <time name="diis">    7.81    7.81</time>
   <time name="orth">    0.20    0.20</time>
   <time name="total">   10.04   10.04</time>
   <energy>
    <i name="e_fr_energy">   -320.70240967 </i>
    <i name="e_wo_entrp">   -320.71068533 </i>
    <i name="e_0_energy">   -320.70447858 </i>
   </energy>
  </scstep>
  <scstep>
   <time name="diag">    1.44    1.44</time>
   <time name="diis">    5.23    5.23</time>
   <time name="orth">    0.20    0.20</time>
   <time name="total">    6.93    6.94</time>
   <energy>
    <i name="alphaZ">    359.63456017 </i>
    <i name="ewald"> -10200.47001278 </i>
    <i name="hartreedc">  -1658.75403652 </i>
    <i name="XCdc">    238.54797868 </i>
    <i name="pawpsdc">  29197.87298134 </i>
    <i name="pawaedc"> -28667.72150404 </i>
    <i name="eentropy">      0.00833665 </i>
    <i name="bandstr">    764.67541869 </i>
    <i name="atom">   9645.50393724 </i>
    <i name="e_fr_energy">   -320.70234055 </i>
    <i name="e_wo_entrp">   -320.71067721 </i>
    <i name="e_0_energy">   -320.70442471 </i>
   </energy>
  </scstep>
  <structure>
   <crystal>
    <varray name="basis" >
     <v>       8.15505773       0.00000000       0.00000000 </v>
     <v>       0.00000000       8.15505773       0.00000000 </v>
     <v>       0.00000000       0.00000000       8.15505773 </v>
    </varray>
    <i name="volume">    542.35184184 </i>
    <varray name="rec_basis" >
     <v>       0.12262329      -0.00000000       0.00000000 </v>
     <v>      -0.00000000       0.12262329       0.00000000 </v>
     <v>      -0.00000000      -0.00000000       0.12262329 </v>
    </varray>
   </crystal>
   <varray name="positions" >
    <v>       0.87500000       0.87500000       0.12500000 </v>
    <v>       0.37500000       0.12500000       0.37500000 </v>
    <v>       0.62500000       0.87500000       0.37500000 </v>
    <v>       0.12500000       0.12500000       0.12500000 </v>
    <v>       0.25000000       0.75000000       0.25000000 </v>
    <v>      -0.00000000      -0.00000000       0.50000000 </v>
    <v>       0.87500000       0.37500000       0.62500000 </v>
    <v>       0.37500000       0.62500000       0.87500000 </v>
    <v>       0.62500000       0.37500000       0.87500000 </v>
    <v>       0.12500000       0.62500000       0.62500000 </v>
    <v>       0.25000000       0.25000000       0.75000000 </v>
    <v>      -0.00000000       0.50000000       0.00000000 </v>
    <v>       0.37500000       0.87500000       0.62500000 </v>
    <v>       0.87500000       0.12500000       0.87500000 </v>
    <v>       0.12500000       0.87500000       0.87500000 </v>
    <v>       0.62500000       0.12500000       0.62500000 </v>
    <v>       0.75000000       0.75000000       0.75000000 </v>
    <v>       0.50000000      -0.00000000       0.00000000 </v>
    <v>       0.37500000       0.37500000       0.12500000 </v>
    <v>       0.87500000       0.62500000       0.37500000 </v>
    <v>       0.12500000       0.37500000       0.37500000 </v>
    <v>       0.62500000       0.62500000       0.12500000 </v>
    <v>       0.75000000       0.25000000       0.25000000 </v>
    <v>       0.50000000       0.50000000       0.50000000 </v>
    <v>       0.37656153       0.37656153       0.37656153 </v>
    <v>       0.87343847       0.12656153       0.12656153 </v>
    <v>       0.62656153       0.12656153       0.37343847 </v>
    <v>       0.12656153       0.87343847       0.12656153 </v>
    <v>       0.12343847       0.12343847       0.37656153 </v>
    <v>       0.12343847       0.37656153       0.12343847 </v>
    <v>       0.37343847       0.87343847       0.37343847 </v>
    <v>       0.37656153       0.12343847       0.12343847 </v>
    <v>       0.37656153       0.87656153       0.87656153 </v>
    <v>       0.87343847       0.62656153       0.62656153 </v>
    <v>       0.62656153       0.62656153       0.87343847 </v>
    <v>       0.12656153       0.37343847       0.62656153 </v>
    <v>       0.12343847       0.62343847       0.87656153 </v>
    <v>       0.12343847       0.87656153       0.62343847 </v>
    <v>       0.37343847       0.37343847       0.87343847 </v>
    <v>       0.37656153       0.62343847       0.62343847 </v>
    <v>       0.87656153       0.37656153       0.87656153 </v>
    <v>       0.37343847       0.12656153       0.62656153 </v>
    <v>       0.12656153       0.12656153       0.87343847 </v>
    <v>       0.62656153       0.87343847       0.62656153 </v>
    <v>       0.62343847       0.12343847       0.87656153 </v>
    <v>       0.62343847       0.37656153       0.62343847 </v>
    <v>       0.87343847       0.87343847       0.87343847 </v>
    <v>       0.87656153       0.12343847       0.62343847 </v>
    <v>       0.87656153       0.87656153       0.37656153 </v>
    <v>       0.37343847       0.62656153       0.12656153 </v>
    <v>       0.12656153       0.62656153       0.37343847 </v>
    <v>       0.62656153       0.37343847       0.12656153 </v>
    <v>       0.62343847       0.62343847       0.37656153 </v>
    <v>       0.62343847       0.87656153       0.12343847 </v>
    <v>       0.87343847       0.37343847       0.37343847 </v>
    <v>       0.87656153       0.62343847       0.12343847 </v>
   </varray>
  </structure>
  <varray name="forces" >
   <v>       0.00000000       0.00000000       0.00000000 </v>
   <v>       0.00000000       0.00000000       0.00000000 </v>
   <v>       0.00000000       0.00000000       0.00000000 </v>
   <v>       0.00000000       0.00000000       0.00000000 </v>
   <v>       0.00000000       0.00000000       0.00000000 </v>
   <v>       0.00000000       0.00000000       0.00000000 </v>
   <v>       0.00000000       0.00000000       0.00000000 </v>
   <v>       0.00000000       0.00000000       0.00000000 </v>
   <v>       0.00000000       0.00000000       0.00000000 </v>
   <v>       0.00000000       0.00000000       0.00000000 </v>
   <v>       0.00000000       0.00000000       0.00000000 </v>
   <v>       0.00000000       0.00000000       0.00000000 </v>
   <v>       0.00000000       0.00000000       0.00000000 </v>
   <v>       0.00000000       0.00000000       0.00000000 </v>
   <v>       0.00000000       0.00000000       0.00000000 </v>
   <v>       0.00000000       0.00000000       0.00000000 </v>
   <v>       0.00000000       0.00000000       0.00000000 </v>
   <v>       0.00000000       0.00000000       0.00000000 </v>
   <v>       0.00000000       0.00000000       0.00000000 </v>
   <v>       0.00000000       0.00000000       0.00000000 </v>
   <v>       0.00000000       0.00000000       0.00000000 </v>
   <v>       0.00000000       0.00000000       0.00000000 </v>
   <v>       0.00000000       0.00000000       0.00000000 </v>
   <v>       0.00000000       0.00000000       0.00000000 </v>
   <v>      -0.00185301      -0.00185301      -0.00185301 </v>
   <v>       0.00185301      -0.00185301      -0.00185301 </v>
   <v>      -0.00185301      -0.00185301       0.00185301 </v>
   <v>      -0.00185301       0.00185301      -0.00185301 </v>
   <v>       0.00185301       0.00185301      -0.00185301 </v>
   <v>       0.00185301      -0.00185301       0.00185301 </v>
   <v>       0.00185301       0.00185301       0.00185301 </v>
   <v>      -0.00185301       0.00185301       0.00185301 </v>
   <v>      -0.00185301      -0.00185301      -0.00185301 </v>
   <v>       0.00185301      -0.00185301      -0.00185301 </v>
   <v>      -0.00185301      -0.00185301       0.00185301 </v>
   <v>      -0.00185301       0.00185301      -0.00185301 </v>
   <v>       0.00185301       0.00185301      -0.00185301 </v>
   <v>       0.00185301      -0.00185301       0.00185301 </v>
   <v>       0.00185301       0.00185301       0.00185301 </v>
   <v>      -0.00185301       0.00185301       0.00185301 </v>
   <v>      -0.00185301      -0.00185301      -0.00185301 </v>
   <v>       0.00185301      -0.00185301      -0.00185301 </v>
   <v>      -0.00185301      -0.00185301       0.00185301 </v>
   <v>      -0.00185301       0.00185301      -0.00185301 </v>
   <v>       0.00185301       0.00185301      -0.00185301 </v>
   <v>       0.00185301      -0.00185301       0.00185301 </v>
   <v>       0.00185301       0.00185301       0.00185301 </v>
   <v>      -0.00185301       0.00185301       0.00185301 </v>
   <v>      -0.00185301      -0.00185301      -0.00185301 </v>
   <v>       0.00185301      -0.00185301      -0.00185301 </v>
   <v>      -0.00185301      -0.00185301       0.00185301 </v>
   <v>      -0.00185301       0.00185301      -0.00185301 </v>
   <v>       0.00185301       0.00185301      -0.00185301 </v>
   <v>       0.00185301      -0.00185301       0.00185301 </v>
   <v>       0.00185301       0.00185301       0.00185301 </v>
   <v>      -0.00185301       0.00185301       0.00185301 </v>
  </varray>
  <varray name="stress" >
   <v>     299.21088089       0.00000000       0.00000000 </v>
   <v>       0.00000000     299.21088089       0.00000000 </v>
   <v>       0.00000000       0.00000000     299.21088089 </v>
  </varray>
  <energy>
   <i name="e_fr_energy">   -320.70234055 </i>
   <i name="e_wo_entrp">   -320.70442471 </i>
   <i name="e_0_energy">      0.00833665 </i>
  </energy>
  <time name="totalsc">   57.65   57.75</time>
  <eigenvalues>
   <array>
    <dimension dim="1">band</dimension>
    <dimension dim="2">kpoint</dimension>
    <dimension dim="3">spin</dimension>
    <field>eigene</field>
    <field>occ</field>
    <set>
     <set comment="spin 1">
      <set comment="kpoint 1">
       <r>   -8.9000    1.0000 </r>
       <r>   -7.6130    1.0000 </r>
       <r>   -7.6130    1.0000 </r>
       <r>   -7.6130    1.0000 </r>
       <r>   -7.6130    1.0000 </r>
       <r>   -7.6130    1.0000 </r>
       <r>   -7.6130    1.0000 </r>
       <r>   -7.0278    1.0000 </r>
       <r>   -6.9296    1.0000 </r>
       <r>   -6.9296    1.0000 </r>
       <r>   -6.9296    1.0000 </r>
       <r>   -6.9296    1.0000 </r>
       <r>   -6.9296    1.0000 </r>
       <r>   -6.9296    1.0000 </r>
       <r>   -6.7334    1.0000 </r>
       <r>   -5.6879    1.0000 </r>
       <r>   -5.6879    1.0000 </r>
       <r>   -5.6879    1.0000 </r>
       <r>   -5.6879    1.0000 </r>
       <r>   -5.6879    1.0000 </r>
       <r>   -5.6879    1.0000 </r>
       <r>   -5.5090    1.0000 </r>
       <r>   -5.5090    1.0000 </r>
       <r>   -5.5090    1.0000 </r>
       <r>   -0.2145    1.0000 </r>
       <r>    0.0044    1.0000 </r>
       <r>    0.0044    1.0000 </r>
       <r>    0.0044    1.0000 </r>
       <r>    0.5728    1.0000 </r>
       <r>    0.5728    1.0000 </r>
       <r>    0.5728    1.0000 </r>
       <r>    0.5728    1.0000 </r>
       <r>    0.5728    1.0000 </r>
       <r>    0.5728    1.0000 </r>
       <r>    1.1108    1.0000 </r>
       <r>    1.1108    1.0000 </r>
       <r>    1.1108    1.0000 </r>
       <r>    1.1108    1.0000 </r>
       <r>    1.1108    1.0000 </r>
       <r>    1.1108    1.0000 </r>
       <r>    1.8247    1.0000 </r>
       <r>    1.8247    1.0000 </r>
       <r>    1.8247    1.0000 </r>
       <r>    2.2471    1.0000 </r>
       <r>    2.2471    1.0000 </r>
       <r>    2.2663    1.0000 </r>
       <r>    2.2663    1.0000 </r>
       <r>    2.2663    1.0000 </r>
       <r>    2.2663    1.0000 </r>
       <r>    2.2663    1.0000 </r>
       <r>    2.2663    1.0000 </r>
       <r>    2.8225    1.0000 </r>
       <r>    2.8225    1.0000 </r>
       <r>    2.8225    1.0000 </r>
       <r>    2.8225    1.0000 </r>
       <r>    2.8225    1.0000 </r>
       <r>    2.8225    1.0000 </r>
       <r>    3.7705    1.0000 </r>
       <r>    3.7705    1.0000 </r>
       <r>    3.7705    1.0000 </r>
       <r>    3.7705    1.0000 </r>
       <r>    3.7705    1.0000 </r>
       <r>    3.7705    1.0000 </r>
       <r>    4.0089    1.0000 </r>
       <r>    4.0089    1.0000 </r>
       <r>    4.0089    1.0000 </r>
       <r>    4.0089    1.0000 </r>
       <r>    4.0089    1.0000 </r>
       <r>    4.0089    1.0000 </r>
       <r>    4.0755    1.0000 </r>
       <r>    4.0755    1.0000 </r>
       <r>    4.0755    1.0000 </r>
       <r>    4.0755    1.0000 </r>
       <r>    4.0755    1.0000 </r>
       <r>    4.0755    1.0000 </r>
       <r>    4.4127    1.0000 </r>
       <r>    4.4127    1.0000 </r>
       <r>    4.4127    1.0000 </r>
       <r>    4.7881    1.0000 </r>
       <r>    4.7881    1.0000 </r>
       <r>    4.7881    1.0000 </r>
       <r>    4.7881    1.0000 </r>
       <r>    4.7881    1.0000 </r>
       <r>    4.7881    1.0000 </r>
       <r>    6.0511    1.0000 </r>
       <r>    6.0511    1.0000 </r>
       <r>    6.0511    1.0000 </r>
       <r>    6.7630    1.0000 </r>
       <r>    6.7630    1.0000 </r>
       <r>    6.7630    1.0000 </r>
       <r>    6.7630    1.0000 </r>
       <r>    6.7630    1.0000 </r>
       <r>    6.7630    1.0000 </r>
       <r>    7.2702    1.0000 </r>
       <r>    7.2702    1.0000 </r>
       <r>    7.2702    1.0000 </r>
       <r>    7.3957    1.0000 </r>
       <r>   10.1320    1.0000 </r>
       <r>   10.1320    1.0000 </r>
       <r>   10.1320    1.0000 </r>
       <r>   10.1320    1.0000 </r>
       <r>   10.1320    1.0000 </r>
       <r>   10.1320    1.0000 </r>
       <r>   10.4449    1.0000 </r>
       <r>   10.4449    1.0000 </r>
       <r>   10.4449    1.0000 </r>
       <r>   10.8268    1.0000 </r>
       <r>   10.8268    1.0000 </r>
       <r>   10.8268    1.0000 </r>
       <r>   10.8268    1.0000 </r>
       <r>   10.8268    1.0000 </r>
       <r>   10.8268    1.0000 </r>
       <r>   11.1102    1.0000 </r>
       <r>   11.1102    1.0000 </r>
       <r>   11.1102    1.0000 </r>
       <r>   11.1875    1.0000 </r>
       <r>   11.1875    1.0000 </r>
       <r>   11.1875    1.0000 </r>
       <r>   11.1875    1.0000 </r>
       <r>   11.1875    1.0000 </r>
       <r>   11.1875    1.0000 </r>
       <r>   11.5187    1.0000 </r>
       <r>   11.5187    1.0000 </r>
       <r>   11.5187    1.0000 </r>
       <r>   11.5187    1.0000 </r>
       <r>   11.5187    1.0000 </r>
       <r>   11.5187    1.0000 </r>
       <r>   12.9781    0.0000 </r>
       <r>   12.9781    0.0000 </r>
       <r>   12.9781    0.0000 </r>
       <r>   12.9781    0.0000 </r>
       <r>   12.9781    0.0000 </r>
       <r>   12.9781    0.0000 </r>
       <r>   13.0272    0.0000 </r>
       <r>   13.1766    0.0000 </r>
       <r>   13.1766    0.0000 </r>
       <r>   13.6908    0.0000 </r>
       <r>   13.6908    0.0000 </r>
       <r>   13.6908    0.0000 </r>
       <r>   13.6908    0.0000 </r>
       <r>   13.6908    0.0000 </r>
       <r>   13.6908    0.0000 </r>
       <r>   13.7597    0.0000 </r>
       <r>   13.7597    0.0000 </r>
       <r>   13.7597    0.0000 </r>
       <r>   13.7597    0.0000 </r>
       <r>   13.7597    0.0000 </r>
       <r>   13.7597    0.0000 </r>
       <r>   14.5270    0.0000 </r>
       <r>   14.5270    0.0000 </r>
       <r>   14.8912    0.0000 </r>
       <r>   14.8912    0.0000 </r>
       <r>   14.8912    0.0000 </r>
       <r>   15.6772    0.0000 </r>
       <r>   16.2666    0.0000 </r>
       <r>   16.2757    0.0000 </r>
      </set>
      <set comment="kpoint 2">
       <r>   -8.8581    1.0000 </r>
       <r>   -7.9417    1.0000 </r>
       <r>   -7.5900    1.0000 </r>
       <r>   -7.5900    1.0000 </r>
       <r>   -7.5900    1.0000 </r>
       <r>   -7.5900    1.0000 </r>
       <r>   -7.3622    1.0000 </r>
       <r>   -7.0433    1.0000 </r>
       <r>   -6.9783    1.0000 </r>
       <r>   -6.9783    1.0000 </r>
       <r>   -6.9783    1.0000 </r>
       <r>   -6.9783    1.0000 </r>
       <r>   -6.9661    1.0000 </r>
       <r>   -6.7563    1.0000 </r>
       <r>   -6.7531    1.0000 </r>
       <r>   -5.6765    1.0000 </r>
       <r>   -5.6765    1.0000 </r>
       <r>   -5.6545    1.0000 </r>
       <r>   -5.6545    1.0000 </r>
       <r>   -5.6545    1.0000 </r>
       <r>   -5.6545    1.0000 </r>
       <r>   -5.5797    1.0000 </r>
       <r>   -5.5216    1.0000 </r>
       <r>   -5.5216    1.0000 </r>
       <r>   -0.1208    1.0000 </r>
       <r>    0.0266    1.0000 </r>
       <r>    0.0266    1.0000 </r>
       <r>    0.0944    1.0000 </r>
       <r>    0.5120    1.0000 </r>
       <r>    0.5120    1.0000 </r>
       <r>    0.5726    1.0000 </r>
       <r>    0.5726    1.0000 </r>
       <r>    0.5726    1.0000 </r>
       <r>    0.5726    1.0000 </r>
       <r>    0.8990    1.0000 </r>
       <r>    1.0883    1.0000 </r>
       <r>    1.0883    1.0000 </r>
       <r>    1.0883    1.0000 </r>
       <r>    1.0883    1.0000 </r>
       <r>    1.2596    1.0000 </r>
       <r>    1.4171    1.0000 </r>
       <r>    1.7419    1.0000 </r>
       <r>    1.9118    1.0000 </r>
       <r>    1.9118    1.0000 </r>
       <r>    2.2453    1.0000 </r>
       <r>    2.2453    1.0000 </r>
       <r>    2.2453    1.0000 </r>
       <r>    2.2453    1.0000 </r>
       <r>    2.2918    1.0000 </r>
       <r>    2.5095    1.0000 </r>
       <r>    2.7488    1.0000 </r>
       <r>    2.7488    1.0000 </r>
       <r>    2.7488    1.0000 </r>
       <r>    2.7488    1.0000 </r>
       <r>    2.7814    1.0000 </r>
       <r>    2.8620    1.0000 </r>
       <r>    2.8620    1.0000 </r>
       <r>    3.3298    1.0000 </r>
       <r>    3.6889    1.0000 </r>
       <r>    3.6889    1.0000 </r>
       <r>    3.6889    1.0000 </r>
       <r>    3.6889    1.0000 </r>
       <r>    3.8651    1.0000 </r>
       <r>    3.8651    1.0000 </r>
       <r>    3.9671    1.0000 </r>
       <r>    3.9671    1.0000 </r>
       <r>    3.9671    1.0000 </r>
       <r>    3.9671    1.0000 </r>
       <r>    4.2114    1.0000 </r>
       <r>    4.2384    1.0000 </r>
       <r>    4.2565    1.0000 </r>
       <r>    4.3206    1.0000 </r>
       <r>    4.3689    1.0000 </r>
       <r>    4.3689    1.0000 </r>
       <r>    4.4249    1.0000 </r>
       <r>    4.4249    1.0000 </r>
       <r>    4.4249    1.0000 </r>
       <r>    4.4249    1.0000 </r>
       <r>    4.8023    1.0000 </r>
       <r>    4.8023    1.0000 </r>
       <r>    4.8023    1.0000 </r>
       <r>    4.8023    1.0000 </r>
       <r>    4.9355    1.0000 </r>
       <r>    4.9355    1.0000 </r>
       <r>    5.9417    1.0000 </r>
       <r>    5.9417    1.0000 </r>
       <r>    5.9476    1.0000 </r>
       <r>    6.6349    1.0000 </r>
       <r>    6.6349    1.0000 </r>
       <r>    6.6349    1.0000 </r>
       <r>    6.6349    1.0000 </r>
       <r>    6.7828    1.0000 </r>
       <r>    6.7828    1.0000 </r>
       <r>    6.8730    1.0000 </r>
       <r>    7.2077    1.0000 </r>
       <r>    7.2077    1.0000 </r>
       <r>    7.8248    1.0000 </r>
       <r>    9.4961    1.0000 </r>
       <r>   10.2015    1.0000 </r>
       <r>   10.2015    1.0000 </r>
       <r>   10.2015    1.0000 </r>
       <r>   10.2015    1.0000 </r>
       <r>   10.2471    1.0000 </r>
       <r>   10.4039    1.0000 </r>
       <r>   10.5643    1.0000 </r>
       <r>   10.5643    1.0000 </r>
       <r>   10.5643    1.0000 </r>
       <r>   10.5643    1.0000 </r>
       <r>   10.6819    1.0000 </r>
       <r>   10.6819    1.0000 </r>
       <r>   10.8063    1.0000 </r>
       <r>   10.8063    1.0000 </r>
       <r>   10.8491    1.0000 </r>
       <r>   11.0297    1.0000 </r>
       <r>   11.0297    1.0000 </r>
       <r>   11.0297    1.0000 </r>
       <r>   11.0297    1.0000 </r>
       <r>   11.0782    1.0000 </r>
       <r>   11.0782    1.0000 </r>
       <r>   11.2634    1.0000 </r>
       <r>   11.5513    1.0000 </r>
       <r>   11.7154    0.9999 </r>
       <r>   11.7154    0.9999 </r>
       <r>   11.9580    1.0452 </r>
       <r>   11.9580    1.0452 </r>
       <r>   11.9580    1.0452 </r>
       <r>   11.9580    1.0452 </r>
       <r>   12.7678    0.0000 </r>
       <r>   12.7678    0.0000 </r>
       <r>   12.7678    0.0000 </r>
       <r>   12.7678    0.0000 </r>
       <r>   12.9251    0.0000 </r>
       <r>   13.1077    0.0000 </r>
       <r>   13.1477    0.0000 </r>
       <r>   13.1893    0.0000 </r>
       <r>   13.2674    0.0000 </r>
       <r>   13.3150    0.0000 </r>
       <r>   13.6445    0.0000 </r>
       <r>   13.6445    0.0000 </r>
       <r>   13.6881    0.0000 </r>
       <r>   13.6881    0.0000 </r>
       <r>   13.6881    0.0000 </r>
       <r>   13.6881    0.0000 </r>
       <r>   13.9957    0.0000 </r>
       <r>   13.9957    0.0000 </r>
       <r>   13.9957    0.0000 </r>
       <r>   13.9957    0.0000 </r>
       <r>   14.2216    0.0000 </r>
       <r>   14.3429    0.0000 </r>
       <r>   14.5897    0.0000 </r>
       <r>   14.7760    0.0000 </r>
       <r>   14.8706    0.0000 </r>
       <r>   14.8706    0.0000 </r>
       <r>   15.9008    0.0000 </r>
       <r>   15.9142    0.0000 </r>
       <r>   15.9224    0.0000 </r>
      </set>
      <set comment="kpoint 3">
       <r>   -8.7337    1.0000 </r>
       <r>   -8.2617    1.0000 </r>
       <r>   -7.5327    1.0000 </r>
       <r>   -7.5327    1.0000 </r>
       <r>   -7.5327    1.0000 </r>
       <r>   -7.5327    1.0000 </r>
       <r>   -7.2289    1.0000 </r>
       <r>   -7.0856    1.0000 </r>
       <r>   -7.0826    1.0000 </r>
       <r>   -7.0826    1.0000 </r>
       <r>   -7.0826    1.0000 </r>
       <r>   -7.0826    1.0000 </r>
       <r>   -6.9351    1.0000 </r>
       <r>   -6.8055    1.0000 </r>
       <r>   -6.4377    1.0000 </r>
       <r>   -5.7812    1.0000 </r>
       <r>   -5.6449    1.0000 </r>
       <r>   -5.6449    1.0000 </r>
       <r>   -5.5917    1.0000 </r>
       <r>   -5.5917    1.0000 </r>
       <r>   -5.5917    1.0000 </r>
       <r>   -5.5917    1.0000 </r>
       <r>   -5.5555    1.0000 </r>
       <r>   -5.5555    1.0000 </r>
       <r>    0.0971    1.0000 </r>
       <r>    0.0971    1.0000 </r>
       <r>    0.1523    1.0000 </r>
       <r>    0.3510    1.0000 </r>
       <r>    0.3700    1.0000 </r>
       <r>    0.3700    1.0000 </r>
       <r>    0.5700    1.0000 </r>
       <r>    0.5700    1.0000 </r>
       <r>    0.5700    1.0000 </r>
       <r>    0.5700    1.0000 </r>
       <r>    0.7715    1.0000 </r>
       <r>    1.0261    1.0000 </r>
       <r>    1.0442    1.0000 </r>
       <r>    1.0442    1.0000 </r>
       <r>    1.0442    1.0000 </r>
       <r>    1.0442    1.0000 </r>
       <r>    1.1047    1.0000 </r>
       <r>    1.1439    1.0000 </r>
       <r>    2.1549    1.0000 </r>
       <r>    2.1549    1.0000 </r>
       <r>    2.2036    1.0000 </r>
       <r>    2.2036    1.0000 </r>
       <r>    2.2036    1.0000 </r>
       <r>    2.2036    1.0000 </r>
       <r>    2.4264    1.0000 </r>
       <r>    2.6597    1.0000 </r>
       <r>    2.6597    1.0000 </r>
       <r>    2.6597    1.0000 </r>
       <r>    2.6597    1.0000 </r>
       <r>    2.7461    1.0000 </r>
       <r>    2.7980    1.0000 </r>
       <r>    2.7980    1.0000 </r>
       <r>    2.9512    1.0000 </r>
       <r>    3.4595    1.0000 </r>
       <r>    3.4595    1.0000 </r>
       <r>    3.4595    1.0000 </r>
       <r>    3.4595    1.0000 </r>
       <r>    3.5208    1.0000 </r>
       <r>    3.7414    1.0000 </r>
       <r>    3.7882    1.0000 </r>
       <r>    3.7882    1.0000 </r>
       <r>    4.2270    1.0000 </r>
       <r>    4.2270    1.0000 </r>
       <r>    4.2905    1.0000 </r>
       <r>    4.2905    1.0000 </r>
       <r>    4.2905    1.0000 </r>
       <r>    4.2905    1.0000 </r>
       <r>    4.4554    1.0000 </r>
       <r>    4.6829    1.0000 </r>
       <r>    4.6829    1.0000 </r>
       <r>    4.6829    1.0000 </r>
       <r>    4.6829    1.0000 </r>
       <r>    4.7607    1.0000 </r>
       <r>    4.8433    1.0000 </r>
       <r>    4.9300    1.0000 </r>
       <r>    4.9300    1.0000 </r>
       <r>    4.9301    1.0000 </r>
       <r>    4.9301    1.0000 </r>
       <r>    5.1826    1.0000 </r>
       <r>    5.1826    1.0000 </r>
       <r>    5.6621    1.0000 </r>
       <r>    5.6907    1.0000 </r>
       <r>    5.6907    1.0000 </r>
       <r>    6.2910    1.0000 </r>
       <r>    6.3303    1.0000 </r>
       <r>    6.3303    1.0000 </r>
       <r>    6.3303    1.0000 </r>
       <r>    6.3303    1.0000 </r>
       <r>    6.8458    1.0000 </r>
       <r>    6.8458    1.0000 </r>
       <r>    7.0792    1.0000 </r>
       <r>    7.0792    1.0000 </r>
       <r>    8.4403    1.0000 </r>
       <r>    9.1345    1.0000 </r>
       <r>    9.7562    1.0000 </r>
       <r>    9.9118    1.0000 </r>
       <r>   10.1421    1.0000 </r>
       <r>   10.1421    1.0000 </r>
       <r>   10.1421    1.0000 </r>
       <r>   10.1421    1.0000 </r>
       <r>   10.4396    1.0000 </r>
       <r>   10.4396    1.0000 </r>
       <r>   10.4396    1.0000 </r>
       <r>   10.4396    1.0000 </r>
       <r>   10.7811    1.0000 </r>
       <r>   10.8193    1.0000 </r>
       <r>   10.8193    1.0000 </r>
       <r>   10.9549    1.0000 </r>
       <r>   10.9549    1.0000 </r>
       <r>   10.9549    1.0000 </r>
       <r>   10.9549    1.0000 </r>
       <r>   10.9958    1.0000 </r>
       <r>   10.9958    1.0000 </r>
       <r>   11.1789    1.0000 </r>
       <r>   11.2571    1.0000 </r>
       <r>   11.2571    1.0000 </r>
       <r>   12.0591    0.3150 </r>
       <r>   12.0591    0.3150 </r>
       <r>   12.0705    0.2090 </r>
       <r>   12.0705    0.2090 </r>
       <r>   12.0705    0.2089 </r>
       <r>   12.0705    0.2089 </r>
       <r>   12.3893    0.0000 </r>
       <r>   12.8061    0.0000 </r>
       <r>   12.8061    0.0000 </r>
       <r>   12.8061    0.0000 </r>
       <r>   12.8061    0.0000 </r>
       <r>   12.9365    0.0000 </r>
       <r>   13.0766    0.0000 </r>
       <r>   13.2183    0.0000 </r>
       <r>   13.3190    0.0000 </r>
       <r>   13.3332    0.0000 </r>
       <r>   13.4401    0.0000 </r>
       <r>   13.4401    0.0000 </r>
       <r>   13.5010    0.0000 </r>
       <r>   13.7547    0.0000 </r>
       <r>   13.7547    0.0000 </r>
       <r>   13.7547    0.0000 </r>
       <r>   13.7547    0.0000 </r>
       <r>   13.9745    0.0000 </r>
       <r>   14.3393    0.0000 </r>
       <r>   14.3494    0.0000 </r>
       <r>   14.3494    0.0000 </r>
       <r>   14.3494    0.0000 </r>
       <r>   14.3494    0.0000 </r>
       <r>   14.5288    0.0000 </r>
       <r>   14.5288    0.0000 </r>
       <r>   14.5835    0.0000 </r>
       <r>   14.9995    0.0000 </r>
       <r>   15.3674    0.0000 </r>
       <r>   15.3687    0.0000 </r>
       <r>   15.7230    0.0000 </r>
      </set>
      <set comment="kpoint 4">
       <r>   -8.5318    1.0000 </r>
       <r>   -8.5318    1.0000 </r>
       <r>   -7.4938    1.0000 </r>
       <r>   -7.4938    1.0000 </r>
       <r>   -7.4938    1.0000 </r>
       <r>   -7.4938    1.0000 </r>
       <r>   -7.1476    1.0000 </r>
       <r>   -7.1476    1.0000 </r>
       <r>   -7.1434    1.0000 </r>
       <r>   -7.1434    1.0000 </r>
       <r>   -7.1434    1.0000 </r>
       <r>   -7.1434    1.0000 </r>
       <r>   -6.8735    1.0000 </r>
       <r>   -6.8735    1.0000 </r>
       <r>   -6.0843    1.0000 </r>
       <r>   -6.0843    1.0000 </r>
       <r>   -5.6007    1.0000 </r>
       <r>   -5.6007    1.0000 </r>
       <r>   -5.6007    1.0000 </r>
       <r>   -5.6007    1.0000 </r>
       <r>   -5.5621    1.0000 </r>
       <r>   -5.5621    1.0000 </r>
       <r>   -5.5621    1.0000 </r>
       <r>   -5.5621    1.0000 </r>
       <r>    0.2167    1.0000 </r>
       <r>    0.2167    1.0000 </r>
       <r>    0.2167    1.0000 </r>
       <r>    0.2167    1.0000 </r>
       <r>    0.5668    1.0000 </r>
       <r>    0.5668    1.0000 </r>
       <r>    0.5668    1.0000 </r>
       <r>    0.5668    1.0000 </r>
       <r>    0.5703    1.0000 </r>
       <r>    0.5703    1.0000 </r>
       <r>    0.7251    1.0000 </r>
       <r>    0.7251    1.0000 </r>
       <r>    0.8275    1.0000 </r>
       <r>    0.8275    1.0000 </r>
       <r>    1.0228    1.0000 </r>
       <r>    1.0228    1.0000 </r>
       <r>    1.0228    1.0000 </r>
       <r>    1.0228    1.0000 </r>
       <r>    2.1827    1.0000 </r>
       <r>    2.1827    1.0000 </r>
       <r>    2.1827    1.0000 </r>
       <r>    2.1827    1.0000 </r>
       <r>    2.4935    1.0000 </r>
       <r>    2.4935    1.0000 </r>
       <r>    2.4935    1.0000 </r>
       <r>    2.4935    1.0000 </r>
       <r>    2.6326    1.0000 </r>
       <r>    2.6326    1.0000 </r>
       <r>    2.6326    1.0000 </r>
       <r>    2.6326    1.0000 </r>
       <r>    2.6478    1.0000 </r>
       <r>    2.6478    1.0000 </r>
       <r>    3.2018    1.0000 </r>
       <r>    3.2018    1.0000 </r>
       <r>    3.3720    1.0000 </r>
       <r>    3.3720    1.0000 </r>
       <r>    3.3720    1.0000 </r>
       <r>    3.3720    1.0000 </r>
       <r>    3.9898    1.0000 </r>
       <r>    3.9898    1.0000 </r>
       <r>    3.9898    1.0000 </r>
       <r>    3.9898    1.0000 </r>
       <r>    4.1570    1.0000 </r>
       <r>    4.1570    1.0000 </r>
[...]
       <r>   14.3046    0.0000 </r>
       <r>   14.3051    0.0000 </r>
       <r>   14.4052    0.0000 </r>
       <r>   14.4053    0.0000 </r>
       <r>   14.4054    0.0000 </r>
       <r>   14.4056    0.0000 </r>
       <r>   14.4058    0.0000 </r>
       <r>   14.4067    0.0000 </r>
       <r>   14.4077    0.0000 </r>
       <r>   14.4105    0.0000 </r>
       <r>   14.6535    0.0000 </r>
       <r>   14.7168    0.0000 </r>
       <r>   14.7195    0.0000 </r>
       <r>   14.7220    0.0000 </r>
      </set>
     </set>
    </set>
   </array>
  </eigenvalues>
  <separator name="orbital magnetization" >
   <v name="MAGDIPOLOUT">      0.00000000      0.00000000      0.00000000</v>
  </separator>
  <dos>
   <i name="efermi">     12.04112989 </i>
   <total>
    <array>
     <dimension dim="1">gridpoints</dimension>
     <dimension dim="2">spin</dimension>
     <field>energy</field>
     <field>total</field>
     <field>integrated</field>
     <set>
      <set comment="spin 1">
       <r>   -10.1588     0.0000     0.0000 </r>
       <r>   -10.0665     0.0000     0.0000 </r>
       <r>    -9.9742     0.0000     0.0000 </r>
       <r>    -9.8819     0.0000     0.0000 </r>
       <r>    -9.7896     0.0000     0.0000 </r>
       <r>    -9.6972     0.0000     0.0000 </r>
       <r>    -9.6049     0.0000     0.0000 </r>
       <r>    -9.5126     0.0000     0.0000 </r>
       <r>    -9.4203     0.0000     0.0000 </r>
       <r>    -9.3280     0.0000     0.0000 </r>
       <r>    -9.2357     0.0000     0.0000 </r>
       <r>    -9.1434     0.0007     0.0001 </r>
       <r>    -9.0511     0.0056     0.0006 </r>
       <r>    -8.9588    -0.0469    -0.0037 </r>
       <r>    -8.8664     0.4035     0.0335 </r>
       <r>    -8.7741     1.7505     0.1951 </r>
       <r>    -8.6818     3.1509     0.4859 </r>
       <r>    -8.5895     3.2761     0.7884 </r>
       <r>    -8.4972     4.5266     1.2062 </r>
       <r>    -8.4049     5.0902     1.6761 </r>
       <r>    -8.3126     5.6047     2.1935 </r>
       <r>    -8.2203     5.2445     2.6776 </r>
       <r>    -8.1280     8.3913     3.4522 </r>
       <r>    -8.0356     7.3489     4.1306 </r>
       <r>    -7.9433     6.2567     4.7082 </r>
       <r>    -7.8510    11.3885     5.7594 </r>
       <r>    -7.7587    10.7105     6.7481 </r>
       <r>    -7.6664     9.2056     7.5979 </r>
       <r>    -7.5741    14.1354     8.9028 </r>
       <r>    -7.4818    16.1896    10.3973 </r>
       <r>    -7.3895    16.1254    11.8858 </r>
       <r>    -7.2972    18.1229    13.5588 </r>
       <r>    -7.2048    19.9536    15.4007 </r>
       <r>    -7.1125    29.5489    18.1284 </r>
       <r>    -7.0202    31.9714    21.0797 </r>
       <r>    -6.9279    21.5603    23.0700 </r>
       <r>    -6.8356    15.0284    24.4572 </r>
       <r>    -6.7433    14.2130    25.7693 </r>
       <r>    -6.6510     6.8485    26.4015 </r>
       <r>    -6.5587     4.1811    26.7874 </r>
       <r>    -6.4664    12.0752    27.9021 </r>
       <r>    -6.3740     8.3785    28.6755 </r>
       <r>    -6.2817     5.0611    29.1427 </r>
       <r>    -6.1894     7.6780    29.8515 </r>
       <r>    -6.0971     9.7611    30.7525 </r>
       <r>    -6.0048     3.3753    31.0641 </r>
       <r>    -5.9125     2.8033    31.3229 </r>
       <r>    -5.8202     3.8581    31.6790 </r>
       <r>    -5.7279    -0.8924    31.5967 </r>
       <r>    -5.6356    22.1045    33.6371 </r>
       <r>    -5.5432   103.6883    43.2087 </r>
       <r>    -5.4509    55.7470    48.3548 </r>
       <r>    -5.3586    -4.0808    47.9781 </r>
       <r>    -5.2663     0.1279    47.9899 </r>
       <r>    -5.1740     0.1081    47.9999 </r>
       <r>    -5.0817     0.0014    48.0000 </r>
       <r>    -4.9894     0.0000    48.0000 </r>
       <r>    -4.8971     0.0000    48.0000 </r>
       <r>    -4.8048     0.0000    48.0000 </r>
       <r>    -4.7124     0.0000    48.0000 </r>
       <r>    -4.6201     0.0000    48.0000 </r>
       <r>    -4.5278     0.0000    48.0000 </r>
       <r>    -4.4355     0.0000    48.0000 </r>
       <r>    -4.3432     0.0000    48.0000 </r>
       <r>    -4.2509     0.0000    48.0000 </r>
       <r>    -4.1586     0.0000    48.0000 </r>
       <r>    -4.0663     0.0000    48.0000 </r>
       <r>    -3.9740     0.0000    48.0000 </r>
       <r>    -3.8816     0.0000    48.0000 </r>
       <r>    -3.7893     0.0000    48.0000 </r>
       <r>    -3.6970     0.0000    48.0000 </r>
       <r>    -3.6047     0.0000    48.0000 </r>
       <r>    -3.5124     0.0000    48.0000 </r>
       <r>    -3.4201     0.0000    48.0000 </r>
       <r>    -3.3278     0.0000    48.0000 </r>
       <r>    -3.2355     0.0000    48.0000 </r>
       <r>    -3.1432     0.0000    48.0000 </r>
       <r>    -3.0508     0.0000    48.0000 </r>
       <r>    -2.9585     0.0000    48.0000 </r>
       <r>    -2.8662     0.0000    48.0000 </r>
       <r>    -2.7739     0.0000    48.0000 </r>
       <r>    -2.6816     0.0000    48.0000 </r>
       <r>    -2.5893     0.0000    48.0000 </r>
       <r>    -2.4970     0.0000    48.0000 </r>
       <r>    -2.4047     0.0000    48.0000 </r>
       <r>    -2.3124     0.0000    48.0000 </r>
       <r>    -2.2200     0.0000    48.0000 </r>
       <r>    -2.1277     0.0000    48.0000 </r>
       <r>    -2.0354     0.0000    48.0000 </r>
       <r>    -1.9431     0.0000    48.0000 </r>
       <r>    -1.8508     0.0000    48.0000 </r>
       <r>    -1.7585     0.0000    48.0000 </r>
       <r>    -1.6662     0.0000    48.0000 </r>
       <r>    -1.5739     0.0000    48.0000 </r>
       <r>    -1.4816     0.0000    48.0000 </r>
       <r>    -1.3892     0.0000    48.0000 </r>
       <r>    -1.2969     0.0000    48.0000 </r>
       <r>    -1.2046     0.0000    48.0000 </r>
       <r>    -1.1123     0.0000    48.0000 </r>
       <r>    -1.0200     0.0000    48.0000 </r>
       <r>    -0.9277     0.0000    48.0000 </r>
       <r>    -0.8354     0.0000    48.0000 </r>
       <r>    -0.7431     0.0000    48.0000 </r>
       <r>    -0.6508     0.0000    48.0000 </r>
       <r>    -0.5584     0.0000    48.0000 </r>
       <r>    -0.4661     0.0003    48.0000 </r>
       <r>    -0.3738     0.0068    48.0007 </r>
       <r>    -0.2815     0.0107    48.0016 </r>
       <r>    -0.1892    -0.1443    47.9883 </r>
       <r>    -0.0969     3.4697    48.3086 </r>
       <r>    -0.0046     9.6785    49.2021 </r>
       <r>     0.0877    13.8607    50.4815 </r>
       <r>     0.1800    30.3061    53.2791 </r>
       <r>     0.2724    28.8653    55.9437 </r>
       <r>     0.3647    35.6756    59.2370 </r>
       <r>     0.4570    33.4294    62.3229 </r>
       <r>     0.5493    28.0070    64.9083 </r>
       <r>     0.6416    25.6014    67.2715 </r>
       <r>     0.7339    22.4330    69.3424 </r>
       <r>     0.8262    27.8834    71.9163 </r>
       <r>     0.9185    12.3470    73.0561 </r>
       <r>     1.0108    17.0258    74.6277 </r>
       <r>     1.1032    21.7391    76.6345 </r>
       <r>     1.1955    17.7344    78.2716 </r>
       <r>     1.2878    20.5949    80.1727 </r>
       <r>     1.3801    15.8733    81.6380 </r>
       <r>     1.4724    11.8508    82.7320 </r>
       <r>     1.5647     5.5268    83.2421 </r>
       <r>     1.6570     4.6605    83.6724 </r>
       <r>     1.7493    21.4003    85.6478 </r>
       <r>     1.8416    15.8522    87.1112 </r>
       <r>     1.9340     8.8114    87.9246 </r>
       <r>     2.0263    25.9643    90.3214 </r>
       <r>     2.1186    20.7910    92.2406 </r>
       <r>     2.2109    19.1804    94.0112 </r>
       <r>     2.3032    27.5906    96.5581 </r>
       <r>     2.3955    22.4443    98.6299 </r>
       <r>     2.4878    17.3996   100.2361 </r>
       <r>     2.5801    18.7414   101.9662 </r>
       <r>     2.6724    11.9917   103.0731 </r>
       <r>     2.7648    11.8328   104.1654 </r>
       <r>     2.8571    14.6398   105.5168 </r>
       <r>     2.9494    14.3529   106.8418 </r>
       <r>     3.0417    12.6361   108.0082 </r>
       <r>     3.1340    17.8388   109.6549 </r>
       <r>     3.2263    15.4106   111.0775 </r>
       <r>     3.3186     5.5149   111.5866 </r>
       <r>     3.4109    17.3745   113.1905 </r>
       <r>     3.5032    33.0710   116.2433 </r>
       <r>     3.5955    27.9739   118.8256 </r>
       <r>     3.6879    23.3222   120.9785 </r>
       <r>     3.7802    38.3062   124.5145 </r>
       <r>     3.8725    34.0623   127.6589 </r>
       <r>     3.9648    18.8162   129.3958 </r>
       <r>     4.0571    33.6054   132.4980 </r>
       <r>     4.1494    21.8918   134.5188 </r>
       <r>     4.2417    36.3966   137.8786 </r>
       <r>     4.3340    36.0998   141.2110 </r>
       <r>     4.4263    23.1186   143.3451 </r>
       <r>     4.5187    26.9251   145.8306 </r>
       <r>     4.6110    24.8965   148.1288 </r>
       <r>     4.7033    24.1394   150.3572 </r>
       <r>     4.7956    32.1544   153.3254 </r>
       <r>     4.8879    39.6385   156.9845 </r>
       <r>     4.9802    40.5413   160.7269 </r>
       <r>     5.0725    23.5916   162.9046 </r>
       <r>     5.1648    15.2779   164.3149 </r>
       <r>     5.2571     8.6045   165.1092 </r>
       <r>     5.3495    23.6915   167.2962 </r>
       <r>     5.4418    17.0604   168.8711 </r>
       <r>     5.5341     4.9269   169.3259 </r>
       <r>     5.6264    15.8253   170.7868 </r>
       <r>     5.7187     9.6315   171.6758 </r>
       <r>     5.8110     9.3047   172.5348 </r>
       <r>     5.9033    13.8221   173.8107 </r>
       <r>     5.9956    11.5308   174.8751 </r>
       <r>     6.0879    12.3228   176.0126 </r>
       <r>     6.1803    11.9292   177.1138 </r>
       <r>     6.2726     4.6164   177.5400 </r>
       <r>     6.3649    11.1114   178.5657 </r>
       <r>     6.4572    13.3522   179.7983 </r>
       <r>     6.5495     9.7115   180.6947 </r>
       <r>     6.6418    13.3163   181.9240 </r>
       <r>     6.7341    24.4952   184.1852 </r>
       <r>     6.8264    28.0039   186.7702 </r>
       <r>     6.9187    25.0798   189.0854 </r>
       <r>     7.0111    14.5851   190.4317 </r>
       <r>     7.1034    10.1703   191.3706 </r>
       <r>     7.1957     4.8196   191.8155 </r>
       <r>     7.2880     2.0251   192.0024 </r>
       <r>     7.3803     0.0081   192.0032 </r>
       <r>     7.4726     0.0645   192.0091 </r>
       <r>     7.5649     0.0023   192.0093 </r>
       <r>     7.6572    -0.0015   192.0092 </r>
       <r>     7.7495    -0.0191   192.0074 </r>
       <r>     7.8419     0.4315   192.0473 </r>
       <r>     7.9342     0.1870   192.0645 </r>
       <r>     8.0265     0.1514   192.0785 </r>
       <r>     8.1188     0.9881   192.1697 </r>
       <r>     8.2111     0.0964   192.1786 </r>
       <r>     8.3034     0.6853   192.2419 </r>
       <r>     8.3957     0.4830   192.2865 </r>
       <r>     8.4880     0.9212   192.3715 </r>
       <r>     8.5803     3.0427   192.6524 </r>
       <r>     8.6727     3.5369   192.9789 </r>
       <r>     8.7650     4.1173   193.3590 </r>
       <r>     8.8573     5.5637   193.8726 </r>
       <r>     8.9496     4.3497   194.2741 </r>
       <r>     9.0419     6.6926   194.8919 </r>
       <r>     9.1342    14.0592   196.1897 </r>
       <r>     9.2265    11.1248   197.2166 </r>
       <r>     9.3188     9.3271   198.0776 </r>
       <r>     9.4111     5.0014   198.5393 </r>
       <r>     9.5035     9.2727   199.3953 </r>
       <r>     9.5958    10.5381   200.3681 </r>
       <r>     9.6881     7.7717   201.0855 </r>
       <r>     9.7804     8.0906   201.8324 </r>
       <r>     9.8727    17.5509   203.4525 </r>
       <r>     9.9650    18.1173   205.1249 </r>
       <r>    10.0573     5.3739   205.6210 </r>
       <r>    10.1496     9.0598   206.4573 </r>
       <r>    10.2419    22.5952   208.5431 </r>
       <r>    10.3343    20.8948   210.4719 </r>
       <r>    10.4266    23.1087   212.6051 </r>
       <r>    10.5189    29.7652   215.3528 </r>
       <r>    10.6112    30.4518   218.1638 </r>
       <r>    10.7035    20.3230   220.0399 </r>
       <r>    10.7958    17.7705   221.6803 </r>
       <r>    10.8881    24.1680   223.9112 </r>
       <r>    10.9804    13.3449   225.1431 </r>
       <r>    11.0727     9.0393   225.9776 </r>
       <r>    11.1651     9.1515   226.8223 </r>
       <r>    11.2574    16.2097   228.3187 </r>
       <r>    11.3497    26.7737   230.7902 </r>
       <r>    11.4420    17.2121   232.3790 </r>
       <r>    11.5343    11.2320   233.4159 </r>
       <r>    11.6266    21.3880   235.3902 </r>
       <r>    11.7189    24.6163   237.6626 </r>
       <r>    11.8112    30.7970   240.5055 </r>
       <r>    11.9035    43.6105   244.5312 </r>
       <r>    11.9959    31.3835   247.4283 </r>
       <r>    12.0882     9.4974   248.3050 </r>
       <r>    12.1805     3.0995   248.5911 </r>
       <r>    12.2728     7.0760   249.2443 </r>
       <r>    12.3651    13.1638   250.4595 </r>
       <r>    12.4574     6.6235   251.0709 </r>
       <r>    12.5497    10.3894   252.0299 </r>
       <r>    12.6420    19.2699   253.8088 </r>
       <r>    12.7343    26.4391   256.2494 </r>
       <r>    12.8267    20.2999   258.1233 </r>
       <r>    12.9190    23.1968   260.2646 </r>
       <r>    13.0113    21.5672   262.2555 </r>
       <r>    13.1036    20.9877   264.1929 </r>
       <r>    13.1959    29.3456   266.9018 </r>
       <r>    13.2882    29.7564   269.6487 </r>
       <r>    13.3805    16.9910   271.2172 </r>
       <r>    13.4728    11.9815   272.3232 </r>
       <r>    13.5651    29.8518   275.0788 </r>
       <r>    13.6575    28.7569   277.7334 </r>
       <r>    13.7498    26.4315   280.1733 </r>
       <r>    13.8421    30.8131   283.0177 </r>
       <r>    13.9344    29.0767   285.7018 </r>
       <r>    14.0267    21.8496   287.7188 </r>
       <r>    14.1190    16.0469   289.2001 </r>
       <r>    14.2113    17.9975   290.8614 </r>
       <r>    14.3036    25.8172   293.2447 </r>
       <r>    14.3959    27.2526   295.7604 </r>
       <r>    14.4883    22.0826   297.7988 </r>
       <r>    14.5806    16.0223   299.2779 </r>
       <r>    14.6729    25.1294   301.5976 </r>
       <r>    14.7652    20.3852   303.4794 </r>
       <r>    14.8575    18.7524   305.2104 </r>
       <r>    14.9498    16.8787   306.7685 </r>
       <r>    15.0421    10.5586   307.7432 </r>
       <r>    15.1344     9.0234   308.5762 </r>
       <r>    15.2267     8.3781   309.3495 </r>
       <r>    15.3191     6.2601   309.9274 </r>
       <r>    15.4114     7.3385   310.6049 </r>
       <r>    15.5037     6.0037   311.1591 </r>
       <r>    15.5960     0.5927   311.2138 </r>
       <r>    15.6883     1.3071   311.3344 </r>
       <r>    15.7806     1.5591   311.4784 </r>
       <r>    15.8729     2.9466   311.7504 </r>
       <r>    15.9652     2.5284   311.9838 </r>
       <r>    16.0575    -0.0094   311.9829 </r>
       <r>    16.1499    -0.0294   311.9802 </r>
       <r>    16.2422     0.0568   311.9854 </r>
       <r>    16.3345     0.1576   312.0000 </r>
       <r>    16.4268     0.0018   312.0001 </r>
       <r>    16.5191    -0.0019   312.0000 </r>
       <r>    16.6114     0.0004   312.0000 </r>
       <r>    16.7037     0.0000   312.0000 </r>
       <r>    16.7960     0.0000   312.0000 </r>
       <r>    16.8883     0.0000   312.0000 </r>
       <r>    16.9807     0.0000   312.0000 </r>
       <r>    17.0730     0.0000   312.0000 </r>
       <r>    17.1653     0.0000   312.0000 </r>
       <r>    17.2576     0.0000   312.0000 </r>
       <r>    17.3499     0.0000   312.0000 </r>
       <r>    17.4422     0.0000   312.0000 </r>
       <r>    17.5345     0.0000   312.0000 </r>
      </set>
     </set>
    </array>
   </total>
  </dos>
 </calculation>
 <structure name="finalpos" >
  <crystal>
   <varray name="basis" >
    <v>       8.15505773       0.00000000       0.00000000 </v>
    <v>       0.00000000       8.15505773       0.00000000 </v>
    <v>       0.00000000       0.00000000       8.15505773 </v>
   </varray>
   <i name="volume">    542.35184184 </i>
   <varray name="rec_basis" >
    <v>       0.12262329      -0.00000000       0.00000000 </v>
    <v>      -0.00000000       0.12262329       0.00000000 </v>
    <v>      -0.00000000      -0.00000000       0.12262329 </v>
   </varray>
  </crystal>
  <varray name="positions" >
   <v>       0.87500000       0.87500000       0.12500000 </v>
   <v>       0.37500000       0.12500000       0.37500000 </v>
   <v>       0.62500000       0.87500000       0.37500000 </v>
   <v>       0.12500000       0.12500000       0.12500000 </v>
   <v>       0.25000000       0.75000000       0.25000000 </v>
   <v>      -0.00000000      -0.00000000       0.50000000 </v>
   <v>       0.87500000       0.37500000       0.62500000 </v>
   <v>       0.37500000       0.62500000       0.87500000 </v>
   <v>       0.62500000       0.37500000       0.87500000 </v>
   <v>       0.12500000       0.62500000       0.62500000 </v>
   <v>       0.25000000       0.25000000       0.75000000 </v>
   <v>      -0.00000000       0.50000000       0.00000000 </v>
   <v>       0.37500000       0.87500000       0.62500000 </v>
   <v>       0.87500000       0.12500000       0.87500000 </v>
   <v>       0.12500000       0.87500000       0.87500000 </v>
   <v>       0.62500000       0.12500000       0.62500000 </v>
   <v>       0.75000000       0.75000000       0.75000000 </v>
   <v>       0.50000000      -0.00000000       0.00000000 </v>
   <v>       0.37500000       0.37500000       0.12500000 </v>
   <v>       0.87500000       0.62500000       0.37500000 </v>
   <v>       0.12500000       0.37500000       0.37500000 </v>
   <v>       0.62500000       0.62500000       0.12500000 </v>
   <v>       0.75000000       0.25000000       0.25000000 </v>
   <v>       0.50000000       0.50000000       0.50000000 </v>
   <v>       0.37656153       0.37656153       0.37656153 </v>
   <v>       0.87343847       0.12656153       0.12656153 </v>
   <v>       0.62656153       0.12656153       0.37343847 </v>
   <v>       0.12656153       0.87343847       0.12656153 </v>
   <v>       0.12343847       0.12343847       0.37656153 </v>
   <v>       0.12343847       0.37656153       0.12343847 </v>
   <v>       0.37343847       0.87343847       0.37343847 </v>
   <v>       0.37656153       0.12343847       0.12343847 </v>
   <v>       0.37656153       0.87656153       0.87656153 </v>
   <v>       0.87343847       0.62656153       0.62656153 </v>
   <v>       0.62656153       0.62656153       0.87343847 </v>
   <v>       0.12656153       0.37343847       0.62656153 </v>
   <v>       0.12343847       0.62343847       0.87656153 </v>
   <v>       0.12343847       0.87656153       0.62343847 </v>
   <v>       0.37343847       0.37343847       0.87343847 </v>
   <v>       0.37656153       0.62343847       0.62343847 </v>
   <v>       0.87656153       0.37656153       0.87656153 </v>
   <v>       0.37343847       0.12656153       0.62656153 </v>
   <v>       0.12656153       0.12656153       0.87343847 </v>
   <v>       0.62656153       0.87343847       0.62656153 </v>
   <v>       0.62343847       0.12343847       0.87656153 </v>
   <v>       0.62343847       0.37656153       0.62343847 </v>
   <v>       0.87343847       0.87343847       0.87343847 </v>
   <v>       0.87656153       0.12343847       0.62343847 </v>
   <v>       0.87656153       0.87656153       0.37656153 </v>
   <v>       0.37343847       0.62656153       0.12656153 </v>
   <v>       0.12656153       0.62656153       0.37343847 </v>
   <v>       0.62656153       0.37343847       0.12656153 </v>
   <v>       0.62343847       0.62343847       0.37656153 </v>
   <v>       0.62343847       0.87656153       0.12343847 </v>
   <v>       0.87343847       0.37343847       0.37343847 </v>
   <v>       0.87656153       0.62343847       0.12343847 </v>
  </varray>
 </structure>
</modeling>
