unknown system                          
           1
     8.155058    0.000000    0.000000
     0.000000    8.155058    0.000000
     0.000000    0.000000    8.155058
   Si   N 
  24  32
Direct configuration=     1
   0.87500000  0.87500000  0.12500000
   0.37500000  0.12500000  0.37500000
   0.62500000  0.87500000  0.37500000
   0.12500000  0.12500000  0.12500000
   0.25000000  0.75000000  0.25000000
   0.00000000  0.00000000  0.50000000
   0.87500000  0.37500000  0.62500000
   0.37500000  0.62500000  0.87500000
   0.62500000  0.37500000  0.87500000
   0.12500000  0.62500000  0.62500000
   0.25000000  0.25000000  0.75000000
   0.00000000  0.50000000  0.00000000
   0.37500000  0.87500000  0.62500000
   0.87500000  0.12500000  0.87500000
   0.12500000  0.87500000  0.87500000
   0.62500000  0.12500000  0.62500000
   0.75000000  0.75000000  0.75000000
   0.50000000  0.00000000  0.00000000
   0.37500000  0.37500000  0.12500000
   0.87500000  0.62500000  0.37500000
   0.12500000  0.37500000  0.37500000
   0.62500000  0.62500000  0.12500000
   0.75000000  0.25000000  0.25000000
   0.50000000  0.50000000  0.50000000
   0.37630293  0.37630293  0.37630293
   0.87369707  0.12630293  0.12630293
   0.62630293  0.12630293  0.37369707
   0.12630293  0.87369707  0.12630293
   0.12369707  0.12369707  0.37630293
   0.12369707  0.37630293  0.12369707
   0.37369707  0.87369707  0.37369707
   0.37630293  0.12369707  0.12369707
   0.37630293  0.87630293  0.87630293
   0.87369707  0.62630293  0.62630293
   0.62630293  0.62630293  0.87369707
   0.12630293  0.37369707  0.62630293
   0.12369707  0.62369707  0.87630293
   0.12369707  0.87630293  0.62369707
   0.37369707  0.37369707  0.87369707
   0.37630293  0.62369707  0.62369707
   0.87630293  0.37630293  0.87630293
   0.37369707  0.12630293  0.62630293
   0.12630293  0.12630293  0.87369707
   0.62630293  0.87369707  0.62630293
   0.62369707  0.12369707  0.87630293
   0.62369707  0.37630293  0.62369707
   0.87369707  0.87369707  0.87369707
   0.87630293  0.12369707  0.62369707
   0.87630293  0.87630293  0.37630293
   0.37369707  0.62630293  0.12630293
   0.12630293  0.62630293  0.37369707
   0.62630293  0.37369707  0.12630293
   0.62369707  0.62369707  0.37630293
   0.62369707  0.87630293  0.12369707
   0.87369707  0.37369707  0.37369707
   0.87630293  0.62369707  0.12369707
Direct configuration=     2
   0.87500000  0.87500000  0.12500000
   0.37500000  0.12500000  0.37500000
   0.62500000  0.87500000  0.37500000
   0.12500000  0.12500000  0.12500000
   0.25000000  0.75000000  0.25000000
  -0.00000000 -0.00000000  0.50000000
   0.87500000  0.37500000  0.62500000
   0.37500000  0.62500000  0.87500000
   0.62500000  0.37500000  0.87500000
   0.12500000  0.62500000  0.62500000
   0.25000000  0.25000000  0.75000000
  -0.00000000  0.50000000  0.00000000
   0.37500000  0.87500000  0.62500000
   0.87500000  0.12500000  0.87500000
   0.12500000  0.87500000  0.87500000
   0.62500000  0.12500000  0.62500000
   0.75000000  0.75000000  0.75000000
   0.50000000 -0.00000000  0.00000000
   0.37500000  0.37500000  0.12500000
   0.87500000  0.62500000  0.37500000
   0.12500000  0.37500000  0.37500000
   0.62500000  0.62500000  0.12500000
   0.75000000  0.25000000  0.25000000
   0.50000000  0.50000000  0.50000000
   0.37691542  0.37691542  0.37691542
   0.87308458  0.12691542  0.12691542
   0.62691542  0.12691542  0.37308458
   0.12691542  0.87308458  0.12691542
   0.12308458  0.12308458  0.37691542
   0.12308458  0.37691542  0.12308458
   0.37308458  0.87308458  0.37308458
   0.37691542  0.12308458  0.12308458
   0.37691542  0.87691542  0.87691542
   0.87308458  0.62691542  0.62691542
   0.62691542  0.62691542  0.87308458
   0.12691542  0.37308458  0.62691542
   0.12308458  0.62308458  0.87691542
   0.12308458  0.87691542  0.62308458
   0.37308458  0.37308458  0.87308458
   0.37691542  0.62308458  0.62308458
   0.87691542  0.37691542  0.87691542
   0.37308458  0.12691542  0.62691542
   0.12691542  0.12691542  0.87308458
   0.62691542  0.87308458  0.62691542
   0.62308458  0.12308458  0.87691542
   0.62308458  0.37691542  0.62308458
   0.87308458  0.87308458  0.87308458
   0.87691542  0.12308458  0.62308458
   0.87691542  0.87691542  0.37691542
   0.37308458  0.62691542  0.12691542
   0.12691542  0.62691542  0.37308458
   0.62691542  0.37308458  0.12691542
   0.62308458  0.62308458  0.37691542
   0.62308458  0.87691542  0.12308458
   0.87308458  0.37308458  0.37308458
   0.87691542  0.62308458  0.12308458
Direct configuration=     3
   0.87500000  0.87500000  0.12500000
   0.37500000  0.12500000  0.37500000
   0.62500000  0.87500000  0.37500000
   0.12500000  0.12500000  0.12500000
   0.25000000  0.75000000  0.25000000
  -0.00000000 -0.00000000  0.50000000
   0.87500000  0.37500000  0.62500000
   0.37500000  0.62500000  0.87500000
   0.62500000  0.37500000  0.87500000
   0.12500000  0.62500000  0.62500000
   0.25000000  0.25000000  0.75000000
  -0.00000000  0.50000000  0.00000000
   0.37500000  0.87500000  0.62500000
   0.87500000  0.12500000  0.87500000
   0.12500000  0.87500000  0.87500000
   0.62500000  0.12500000  0.62500000
   0.75000000  0.75000000  0.75000000
   0.50000000 -0.00000000  0.00000000
   0.37500000  0.37500000  0.12500000
   0.87500000  0.62500000  0.37500000
   0.12500000  0.37500000  0.37500000
   0.62500000  0.62500000  0.12500000
   0.75000000  0.25000000  0.25000000
   0.50000000  0.50000000  0.50000000
   0.37656153  0.37656153  0.37656153
   0.87343847  0.12656153  0.12656153
   0.62656153  0.12656153  0.37343847
   0.12656153  0.87343847  0.12656153
   0.12343847  0.12343847  0.37656153
   0.12343847  0.37656153  0.12343847
   0.37343847  0.87343847  0.37343847
   0.37656153  0.12343847  0.12343847
   0.37656153  0.87656153  0.87656153
   0.87343847  0.62656153  0.62656153
   0.62656153  0.62656153  0.87343847
   0.12656153  0.37343847  0.62656153
   0.12343847  0.62343847  0.87656153
   0.12343847  0.87656153  0.62343847
   0.37343847  0.37343847  0.87343847
   0.37656153  0.62343847  0.62343847
   0.87656153  0.37656153  0.87656153
   0.37343847  0.12656153  0.62656153
   0.12656153  0.12656153  0.87343847
   0.62656153  0.87343847  0.62656153
   0.62343847  0.12343847  0.87656153
   0.62343847  0.37656153  0.62343847
   0.87343847  0.87343847  0.87343847
   0.87656153  0.12343847  0.62343847
   0.87656153  0.87656153  0.37656153
   0.37343847  0.62656153  0.12656153
   0.12656153  0.62656153  0.37343847
   0.62656153  0.37343847  0.12656153
   0.62343847  0.62343847  0.37656153
   0.62343847  0.87656153  0.12343847
   0.87343847  0.37343847  0.37343847
   0.87656153  0.62343847  0.12343847
