  28  28   0   0
  0.1093229E+02  0.8201312E-09  0.8201312E-09  0.5254990E-09  0.5000000E-15
  1.000000000000000E-004
  CAR 
 unknown system                          
     16.07530333    -11.72257475  301      9.08308391      1.00000000
    -11.723  0.0000E+00  0.0000E+00
    -11.630  0.0000E+00  0.0000E+00
    -11.537  0.0000E+00  0.0000E+00
    -11.445  0.0000E+00  0.0000E+00
    -11.352  0.0000E+00  0.0000E+00
    -11.259  0.7141E-29  0.6617E-30
    -11.167  0.5777E-23  0.5353E-24
    -11.074  0.8046E-18  0.7456E-19
    -10.981  0.1926E-13  0.1784E-14
    -10.889  0.7847E-10  0.7273E-11
    -10.796  0.5358E-07  0.4972E-08
    -10.703  0.5597E-05  0.5236E-06
    -10.611  0.4696E-04  0.4875E-05
    -10.518 -0.3678E-03 -0.2921E-04
    -10.425  0.3193E-02  0.2666E-03
    -10.333  0.1569E-01  0.1720E-02
    -10.240  0.2701E-01  0.4223E-02
    -10.147  0.3712E-01  0.7662E-02
    -10.055  0.2945E-01  0.1039E-01
     -9.962  0.4595E-01  0.1465E-01
     -9.869  0.4378E-01  0.1871E-01
     -9.777  0.6167E-01  0.2442E-01
     -9.684  0.8398E-01  0.3220E-01
     -9.591  0.8784E-01  0.4034E-01
     -9.499  0.5388E-01  0.4533E-01
     -9.406  0.5550E-01  0.5048E-01
     -9.313  0.5281E-01  0.5537E-01
     -9.221  0.1351E-02  0.5549E-01
     -9.128  0.2341E-01  0.5766E-01
     -9.035  0.6039E-01  0.6326E-01
     -8.943  0.2640E-01  0.6571E-01
     -8.850  0.4048E-01  0.6946E-01
     -8.757  0.7199E-01  0.7613E-01
     -8.665  0.1666E-01  0.7767E-01
     -8.572  0.5681E-01  0.8293E-01
     -8.479  0.1337E+00  0.9532E-01
     -8.387  0.7632E-01  0.1024E+00
     -8.294  0.4401E-01  0.1065E+00
     -8.202  0.4527E-01  0.1107E+00
     -8.109  0.2928E-01  0.1134E+00
     -8.016  0.5669E-01  0.1186E+00
     -7.924  0.9359E-01  0.1273E+00
     -7.831  0.1351E+00  0.1398E+00
     -7.738  0.1191E+00  0.1509E+00
     -7.646  0.1407E+00  0.1639E+00
     -7.553  0.1063E+00  0.1737E+00
     -7.460  0.1071E+00  0.1837E+00
     -7.368  0.6633E-01  0.1898E+00
     -7.275  0.7022E-01  0.1963E+00
     -7.182  0.1005E+00  0.2056E+00
     -7.090  0.2317E+00  0.2271E+00
     -6.997  0.1369E+00  0.2398E+00
     -6.904  0.3439E-02  0.2401E+00
     -6.812 -0.1421E-02  0.2400E+00
     -6.719  0.3812E-03  0.2400E+00
     -6.626  0.1263E-04  0.2400E+00
     -6.534  0.5067E-07  0.2400E+00
     -6.441  0.3219E-10  0.2400E+00
     -6.348  0.3436E-14  0.2400E+00
     -6.256  0.0000E+00  0.2400E+00
     -6.163  0.0000E+00  0.2400E+00
     -6.070  0.0000E+00  0.2400E+00
     -5.978  0.0000E+00  0.2400E+00
     -5.885  0.0000E+00  0.2400E+00
     -5.792  0.0000E+00  0.2400E+00
     -5.700  0.0000E+00  0.2400E+00
     -5.607  0.0000E+00  0.2400E+00
     -5.514  0.0000E+00  0.2400E+00
     -5.422  0.0000E+00  0.2400E+00
     -5.329  0.0000E+00  0.2400E+00
     -5.236  0.0000E+00  0.2400E+00
     -5.144  0.0000E+00  0.2400E+00
     -5.051  0.0000E+00  0.2400E+00
     -4.958  0.0000E+00  0.2400E+00
     -4.866  0.0000E+00  0.2400E+00
     -4.773  0.0000E+00  0.2400E+00
     -4.680  0.0000E+00  0.2400E+00
     -4.588  0.0000E+00  0.2400E+00
     -4.495  0.0000E+00  0.2400E+00
     -4.402  0.0000E+00  0.2400E+00
     -4.310  0.0000E+00  0.2400E+00
     -4.217  0.0000E+00  0.2400E+00
     -4.124  0.1421E-32  0.2400E+00
     -4.032  0.3082E-26  0.2400E+00
     -3.939  0.1141E-20  0.2400E+00
     -3.847  0.7113E-16  0.2400E+00
     -3.754  0.7250E-12  0.2400E+00
     -3.661  0.1157E-08  0.2400E+00
     -3.569  0.2639E-06  0.2400E+00
     -3.476  0.6515E-05  0.2400E+00
     -3.383 -0.1085E-04  0.2400E+00
     -3.291  0.2805E-04  0.2400E+00
     -3.198  0.2342E-02  0.2402E+00
     -3.105  0.8957E-02  0.2410E+00
     -3.013  0.5477E-02  0.2416E+00
     -2.920  0.1551E-01  0.2430E+00
     -2.827  0.1370E-01  0.2443E+00
     -2.735  0.1359E-01  0.2455E+00
     -2.642  0.2418E-01  0.2478E+00
     -2.549  0.2086E-01  0.2497E+00
     -2.457  0.2637E-01  0.2521E+00
     -2.364  0.2172E-01  0.2542E+00
     -2.271  0.5205E-02  0.2546E+00
     -2.179  0.3242E-01  0.2576E+00
     -2.086  0.3315E-01  0.2607E+00
     -1.993  0.5008E-01  0.2654E+00
     -1.901  0.7137E-01  0.2720E+00
     -1.808  0.8248E-01  0.2796E+00
     -1.715  0.8945E-01  0.2879E+00
     -1.623  0.6251E-01  0.2937E+00
     -1.530  0.5796E-01  0.2991E+00
     -1.437  0.6090E-01  0.3047E+00
     -1.345  0.4796E-01  0.3091E+00
     -1.252  0.4733E-01  0.3135E+00
     -1.159  0.8819E-01  0.3217E+00
     -1.067  0.1093E+00  0.3318E+00
     -0.974  0.1014E+00  0.3412E+00
     -0.881  0.9222E-01  0.3498E+00
     -0.789  0.1048E+00  0.3595E+00
     -0.696  0.1005E+00  0.3688E+00
     -0.603  0.9822E-01  0.3779E+00
     -0.511  0.1002E+00  0.3872E+00
     -0.418  0.1005E+00  0.3965E+00
     -0.325  0.7580E-01  0.4035E+00
     -0.233  0.3579E-01  0.4068E+00
     -0.140  0.1596E-01  0.4083E+00
     -0.047  0.2842E-01  0.4109E+00
      0.045  0.3063E-01  0.4138E+00
      0.138  0.3065E-01  0.4166E+00
      0.231  0.5218E-01  0.4215E+00
      0.323  0.1123E+00  0.4319E+00
      0.416  0.1041E+00  0.4415E+00
      0.508  0.1106E+00  0.4518E+00
      0.601  0.6937E-01  0.4582E+00
      0.694  0.5886E-01  0.4636E+00
      0.786  0.8141E-01  0.4712E+00
      0.879  0.7911E-01  0.4785E+00
      0.972  0.7904E-01  0.4858E+00
      1.064  0.7401E-01  0.4927E+00
      1.157  0.5781E-01  0.4980E+00
      1.250  0.7034E-01  0.5046E+00
      1.342  0.7902E-01  0.5119E+00
      1.435  0.1207E+00  0.5231E+00
      1.528  0.1210E+00  0.5343E+00
      1.620  0.1071E+00  0.5442E+00
      1.713  0.1329E+00  0.5565E+00
      1.806  0.1295E+00  0.5685E+00
      1.898  0.1022E+00  0.5780E+00
      1.991  0.5850E-01  0.5834E+00
      2.084  0.1125E+00  0.5938E+00
      2.176  0.1065E+00  0.6037E+00
      2.269  0.1109E+00  0.6140E+00
      2.362  0.9332E-01  0.6226E+00
      2.454  0.9506E-01  0.6314E+00
      2.547  0.1227E+00  0.6428E+00
      2.640  0.1158E+00  0.6535E+00
      2.732  0.8866E-01  0.6617E+00
      2.825  0.1179E+00  0.6727E+00
      2.918  0.1205E+00  0.6838E+00
      3.010  0.1130E+00  0.6943E+00
      3.103  0.1099E+00  0.7045E+00
      3.196  0.1021E+00  0.7140E+00
      3.288  0.1411E+00  0.7270E+00
      3.381  0.1497E+00  0.7409E+00
      3.474  0.9251E-01  0.7495E+00
      3.566  0.8756E-01  0.7576E+00
      3.659  0.8999E-01  0.7659E+00
      3.752  0.1221E+00  0.7772E+00
      3.844  0.1089E+00  0.7873E+00
      3.937  0.1077E+00  0.7973E+00
      4.030  0.1414E+00  0.8104E+00
      4.122  0.1740E+00  0.8265E+00
      4.215  0.1215E+00  0.8378E+00
      4.308  0.1031E+00  0.8473E+00
      4.400  0.1087E+00  0.8574E+00
      4.493  0.1005E+00  0.8667E+00
      4.586  0.8393E-01  0.8745E+00
      4.678  0.9413E-01  0.8832E+00
      4.771  0.1255E+00  0.8948E+00
      4.863  0.1553E+00  0.9092E+00
      4.956  0.9557E-01  0.9181E+00
      5.049  0.7838E-01  0.9253E+00
      5.141  0.1054E+00  0.9351E+00
      5.234  0.1260E+00  0.9468E+00
      5.327  0.1085E+00  0.9568E+00
      5.419  0.1217E+00  0.9681E+00
      5.512  0.1281E+00  0.9800E+00
      5.605  0.7583E-01  0.9870E+00
      5.697  0.9156E-01  0.9955E+00
      5.790  0.1271E+00  0.1007E+01
      5.883  0.1627E+00  0.1022E+01
      5.975  0.1356E+00  0.1035E+01
      6.068  0.8133E-01  0.1042E+01
      6.161  0.7422E-01  0.1049E+01
      6.253  0.5920E-01  0.1055E+01
      6.346  0.8846E-01  0.1063E+01
      6.439  0.6393E-01  0.1069E+01
      6.531  0.9553E-01  0.1078E+01
      6.624  0.1052E+00  0.1088E+01
      6.717  0.1361E+00  0.1100E+01
      6.809  0.1703E+00  0.1116E+01
      6.902  0.1115E+00  0.1126E+01
      6.995  0.4526E-01  0.1130E+01
      7.087  0.3501E-01  0.1134E+01
      7.180  0.3469E-01  0.1137E+01
      7.273  0.6443E-01  0.1143E+01
      7.365  0.7967E-01  0.1150E+01
      7.458  0.8427E-01  0.1158E+01
      7.551  0.1047E+00  0.1168E+01
      7.643  0.9347E-01  0.1176E+01
      7.736  0.9291E-01  0.1185E+01
      7.829  0.6263E-01  0.1191E+01
      7.921  0.4700E-01  0.1195E+01
      8.014  0.3985E-01  0.1199E+01
      8.107  0.5748E-01  0.1204E+01
      8.199  0.6390E-01  0.1210E+01
      8.292  0.5389E-01  0.1215E+01
      8.385  0.5095E-02  0.1216E+01
      8.477  0.7040E-02  0.1216E+01
      8.570  0.3776E-01  0.1220E+01
      8.663  0.2159E-01  0.1222E+01
      8.755  0.1288E-01  0.1223E+01
      8.848  0.2837E-01  0.1226E+01
      8.941  0.3493E-01  0.1229E+01
      9.033  0.5480E-01  0.1234E+01
      9.126  0.1448E+00  0.1247E+01
      9.218  0.1206E+00  0.1258E+01
      9.311  0.1354E-01  0.1260E+01
      9.404  0.2674E-02  0.1260E+01
      9.496  0.2803E-03  0.1260E+01
      9.589  0.1634E-03  0.1260E+01
      9.682 -0.1679E-02  0.1260E+01
      9.774  0.1291E-01  0.1261E+01
      9.867  0.3256E-01  0.1264E+01
      9.960  0.4622E-02  0.1265E+01
     10.052 -0.7087E-03  0.1264E+01
     10.145  0.9323E-04  0.1264E+01
     10.238  0.8072E-05  0.1264E+01
     10.330  0.7441E-06  0.1264E+01
     10.423  0.6338E-05  0.1264E+01
     10.516 -0.4905E-04  0.1264E+01
     10.608  0.4715E-03  0.1264E+01
     10.701  0.1345E-02  0.1265E+01
     10.794  0.7075E-02  0.1265E+01
     10.886  0.1072E-01  0.1266E+01
     10.979  0.1403E-01  0.1268E+01
     11.072  0.4683E-01  0.1272E+01
     11.164  0.4741E-01  0.1276E+01
     11.257  0.5751E-01  0.1282E+01
     11.350  0.6388E-01  0.1288E+01
     11.442  0.8843E-01  0.1296E+01
     11.535  0.1513E+00  0.1310E+01
     11.628  0.1190E+00  0.1321E+01
     11.720  0.6962E-01  0.1327E+01
     11.813  0.7414E-01  0.1334E+01
     11.906  0.8219E-01  0.1342E+01
     11.998  0.5356E-01  0.1347E+01
     12.091  0.6260E-01  0.1352E+01
     12.184  0.6503E-01  0.1359E+01
     12.276  0.2477E-01  0.1361E+01
     12.369  0.4726E-01  0.1365E+01
     12.462  0.4800E-01  0.1370E+01
     12.554  0.5766E-01  0.1375E+01
     12.647  0.8448E-01  0.1383E+01
     12.740  0.9047E-01  0.1391E+01
     12.832  0.7456E-01  0.1398E+01
     12.925  0.6874E-01  0.1404E+01
     13.018  0.9922E-01  0.1414E+01
     13.110  0.9761E-01  0.1423E+01
     13.203  0.1157E+00  0.1433E+01
     13.296  0.6934E-01  0.1440E+01
     13.388  0.7039E-01  0.1446E+01
     13.481  0.7282E-01  0.1453E+01
     13.573  0.1266E+00  0.1465E+01
     13.666  0.1013E+00  0.1474E+01
     13.759  0.1004E+00  0.1484E+01
     13.851  0.1032E+00  0.1493E+01
     13.944  0.1411E+00  0.1506E+01
     14.037  0.1283E+00  0.1518E+01
     14.129  0.1257E+00  0.1530E+01
     14.222  0.1899E+00  0.1547E+01
     14.315  0.1655E+00  0.1563E+01
     14.407  0.1193E+00  0.1574E+01
     14.500  0.1314E+00  0.1586E+01
     14.593  0.9285E-01  0.1594E+01
     14.685  0.5194E-01  0.1599E+01
     14.778  0.7402E-02  0.1600E+01
     14.871  0.1964E-04  0.1600E+01
     14.963  0.2039E-03  0.1600E+01
     15.056 -0.4200E-05  0.1600E+01
     15.149  0.3281E-05  0.1600E+01
     15.241  0.5954E-07  0.1600E+01
     15.334  0.1174E-09  0.1600E+01
     15.427  0.3338E-13  0.1600E+01
     15.519  0.1479E-17  0.1600E+01
     15.612  0.0000E+00  0.1600E+01
     15.705  0.0000E+00  0.1600E+01
     15.797  0.0000E+00  0.1600E+01
     15.890  0.0000E+00  0.1600E+01
     15.983  0.0000E+00  0.1600E+01
     16.075  0.0000E+00  0.1600E+01
