   28   28  100    1
  0.1093229E+02  0.8201312E-09  0.8201312E-09  0.5254990E-09  0.5000000E-15
  1.000000000000000E-004
  CAR 
 unknown system                          
    124     47     80
 
  0.3742002E-15  0.3742002E-15  0.3742002E-15  0.3086420E-02
    1      -10.459035   1.000000
    2       -9.669314   1.000000
    3       -9.669314   1.000000
    4       -8.632547   1.000000
    5       -8.632547   1.000000
    6       -7.926912   1.000000
    7       -7.407482   1.000000
    8       -7.407482   1.000000
    9       -7.352742   1.000000
   10       -7.331605   1.000000
   11       -7.210480   1.000000
   12       -7.210480   1.000000
   13       -3.271596   1.000000
   14       -2.087003   1.000000
   15       -2.087003   1.000000
   16       -2.028097   1.000000
   17       -0.786864   1.000000
   18       -0.722783   1.000000
   19       -0.722783   1.000000
   20       -0.235796   1.000000
   21        0.167114   1.000000
   22        0.167114   1.000000
   23        0.401020   1.000000
   24        1.007052   1.000000
   25        1.007052   1.000000
   26        1.135928   1.000000
   27        1.266355   1.000000
   28        1.813420   1.000000
   29        1.813420   1.000000
   30        1.819234   1.000000
   31        1.948090   1.000000
   32        2.575808   1.000000
   33        2.575808   1.000000
   34        2.987339   1.000000
   35        3.184290   1.000000
   36        3.184290   1.000000
   37        3.359430   1.000000
   38        3.359430   1.000000
   39        3.375641   1.000000
   40        3.972157   1.000000
   41        3.972157   1.000000
   42        4.584438   1.000000
   43        4.584438   1.000000
   44        4.730215   1.000000
   45        4.755332   1.000000
   46        4.755332   1.000000
   47        5.189288   1.000000
   48        5.322801   1.000000
   49        5.679109   1.000000
   50        5.917499   1.000000
   51        5.917499   1.000000
   52        6.071678   1.000000
   53        6.269302   1.000000
   54        6.285560   1.000000
   55        6.285561   1.000000
   56        6.809876   1.000000
   57        6.809876   1.000000
   58        7.661658   1.000000
   59        7.661659   1.000000
   60        8.280571   1.000000
   61        8.280571   1.000000
   62        8.438478   1.000000
   63        9.403704   0.000108
   64       10.618309   0.000000
   65       10.618309   0.000000
   66       11.587675   0.000000
   67       11.587675   0.000000
   68       12.252890   0.000000
   69       12.252890   0.000000
   70       12.616091   0.000000
   71       12.787841   0.000000
   72       13.108237   0.000000
   73       13.593963   0.000000
   74       13.593963   0.000000
   75       13.700895   0.000000
   76       14.054093   0.000000
   77       14.054093   0.000000
   78       14.173894   0.000000
   79       14.670587   0.000000
   80       14.670587   0.000000
 
  0.1666667E+00  0.1277613E-14  0.3742002E-15  0.1851852E-01
    1      -10.421765   1.000000
    2       -9.743465   1.000000
    3       -9.696686   1.000000
    4       -8.597924   1.000000
    5       -8.552886   1.000000
    6       -7.887887   1.000000
    7       -7.522323   1.000000
    8       -7.427362   1.000000
    9       -7.380460   1.000000
   10       -7.320547   1.000000
   11       -7.213239   1.000000
   12       -7.163339   1.000000
   13       -3.172802   1.000000
   14       -2.110163   1.000000
   15       -1.999369   1.000000
   16       -1.938779   1.000000
   17       -0.908944   1.000000
   18       -0.806683   1.000000
   19       -0.731967   1.000000
   20       -0.454821   1.000000
   21       -0.051704   1.000000
   22        0.263549   1.000000
   23        0.360605   1.000000
   24        0.780614   1.000000
   25        1.081955   1.000000
   26        1.324674   1.000000
   27        1.470710   1.000000
   28        1.724993   1.000000
   29        1.744481   1.000000
   30        1.879258   1.000000
   31        2.128416   1.000000
   32        2.592818   1.000000
   33        2.715172   1.000000
   34        2.932782   1.000000
   35        3.136982   1.000000
   36        3.220448   1.000000
   37        3.350751   1.000000
   38        3.384859   1.000000
   39        3.594427   1.000000
   40        4.003949   1.000000
   41        4.011568   1.000000
   42        4.473892   1.000000
   43        4.535943   1.000000
   44        4.659972   1.000000
   45        4.789312   1.000000
   46        4.826515   1.000000
   47        5.162531   1.000000
   48        5.320622   1.000000
   49        5.323372   1.000000
   50        5.904959   1.000000
   51        6.021136   1.000000
   52        6.146172   1.000000
   53        6.220664   1.000000
   54        6.298181   1.000000
   55        6.491403   1.000000
   56        6.768669   1.000000
   57        6.835530   1.000000
   58        7.515910   1.000000
   59        7.591562   1.000000
   60        8.155543   1.000000
   61        8.250193   1.000000
   62        8.512701   1.000000
   63        9.316658   0.003230
   64       10.748412   0.000000
   65       10.815920   0.000000
   66       11.523446   0.000000
   67       11.555617   0.000000
   68       12.068441   0.000000
   69       12.334919   0.000000
   70       12.918256   0.000000
   71       12.991318   0.000000
   72       13.105936   0.000000
   73       13.369214   0.000000
   74       13.509712   0.000000
   75       13.739337   0.000000
   76       13.901149   0.000000
   77       14.217463   0.000000
   78       14.322417   0.000000
   79       14.595899   0.000000
   80       14.671528   0.000000
 
  0.3333333E+00  0.3595600E-15  0.3742002E-15  0.1851852E-01
    1      -10.317256   1.000000
    2       -9.914425   1.000000
    3       -9.744323   1.000000
    4       -8.545982   1.000000
    5       -8.342203   1.000000
    6       -7.780355   1.000000
    7       -7.772304   1.000000
    8       -7.499062   1.000000
    9       -7.395631   1.000000
   10       -7.297517   1.000000
   11       -7.219692   1.000000
   12       -7.135517   1.000000
   13       -2.898597   1.000000
   14       -2.140663   1.000000
   15       -1.816020   1.000000
   16       -1.797944   1.000000
   17       -1.261362   1.000000
   18       -0.887450   1.000000
   19       -0.810810   1.000000
   20       -0.663989   1.000000
   21       -0.416057   1.000000
   22        0.258335   1.000000
   23        0.391162   1.000000
   24        0.469379   1.000000
   25        1.167382   1.000000
   26        1.486922   1.000000
   27        1.619265   1.000000
   28        1.727927   1.000000
   29        1.886832   1.000000
   30        2.072153   1.000000
   31        2.444742   1.000000
   32        2.537429   1.000000
   33        2.755905   1.000000
   34        2.862943   1.000000
   35        3.071825   1.000000
   36        3.278473   1.000000
   37        3.358026   1.000000
   38        3.507819   1.000000
   39        3.879338   1.000000
   40        3.917843   1.000000
   41        4.078199   1.000000
   42        4.354450   1.000000
   43        4.484798   1.000000
   44        4.665966   1.000000
   45        4.767179   1.000000
   46        4.955985   1.000000
   47        5.094534   1.000000
   48        5.318629   1.000000
   49        5.360434   1.000000
   50        5.785903   1.000000
   51        5.890091   1.000000
   52        6.092177   1.000000
   53        6.147899   1.000000
   54        6.334445   1.000000
   55        6.647327   1.000000
   56        6.689906   1.000000
   57        6.862618   1.000000
   58        7.316212   1.000000
   59        7.474617   1.000000
   60        7.917794   1.000000
   61        8.268927   1.000000
   62        8.679100   0.999999
   63        9.146290   0.000320
   64       10.997079   0.000000
   65       11.227244   0.000000
   66       11.409856   0.000000
   67       11.486909   0.000000
   68       12.014905   0.000000
   69       12.495167   0.000000
   70       12.832198   0.000000
   71       12.973655   0.000000
   72       13.178134   0.000000
   73       13.493423   0.000000
   74       13.687316   0.000000
   75       13.930638   0.000000
   76       13.971867   0.000000
   77       14.107717   0.000000
   78       14.296839   0.000000
   79       14.400521   0.000000
   80       14.475513   0.000000
 
  0.5000000E+00  0.3706203E-15  0.3742002E-15  0.9259259E-02
    1      -10.210378   1.000000
    2      -10.051447   1.000000
    3       -9.765432   1.000000
    4       -8.526152   1.000000
    5       -8.064916   1.000000
    6       -8.060805   1.000000
    7       -7.671196   1.000000
    8       -7.590585   1.000000
    9       -7.400330   1.000000
   10       -7.284003   1.000000
   11       -7.224326   1.000000
   12       -7.132943   1.000000
   13       -2.643370   1.000000
   14       -2.245783   1.000000
   15       -1.811484   1.000000
   16       -1.728987   1.000000
   17       -1.195562   1.000000
   18       -1.102931   1.000000
   19       -0.873998   1.000000
   20       -0.675974   1.000000
   21       -0.610942   1.000000
   22        0.198534   1.000000
   23        0.317740   1.000000
   24        0.479823   1.000000
   25        1.183730   1.000000
   26        1.478185   1.000000
   27        1.613403   1.000000
   28        1.901346   1.000000
   29        2.058670   1.000000
   30        2.163829   1.000000
   31        2.380897   1.000000
   32        2.609389   1.000000
   33        2.759760   1.000000
   34        2.860298   1.000000
   35        3.039754   1.000000
   36        3.346541   1.000000
   37        3.366209   1.000000
   38        3.441666   1.000000
   39        3.782385   1.000000
   40        4.046649   1.000000
   41        4.120713   1.000000
   42        4.415287   1.000000
   43        4.425628   1.000000
   44        4.567444   1.000000
   45        4.775873   1.000000
   46        5.086348   1.000000
   47        5.139240   1.000000
   48        5.470853   1.000000
   49        5.520138   1.000000
   50        5.680187   1.000000
   51        5.732743   1.000000
   52        6.021162   1.000000
   53        6.090011   1.000000
   54        6.283449   1.000000
   55        6.488412   1.000000
   56        6.751082   1.000000
   57        6.794727   1.000000
   58        7.204108   1.000000
   59        7.621177   1.000000
   60        7.742205   1.000000
   61        8.310338   1.000000
   62        8.804689   0.999240
   63        9.025820   0.975561
   64       11.159930   0.000000
   65       11.297532   0.000000
   66       11.378375   0.000000
   67       11.624500   0.000000
   68       11.929402   0.000000
   69       12.596542   0.000000
   70       12.679757   0.000000
   71       12.951656   0.000000
   72       13.178393   0.000000
   73       13.663843   0.000000
   74       13.709020   0.000000
   75       13.912652   0.000000
   76       13.958053   0.000000
   77       14.197279   0.000000
   78       14.235765   0.000000
   79       14.327127   0.000000
   80       14.609279   0.000000
 
  0.1666667E+00  0.1666667E+00  0.3742002E-15  0.1851852E-01
    1      -10.350425   1.000000
    2       -9.851665   1.000000
    3       -9.749516   1.000000
    4       -8.516008   1.000000
    5       -8.447887   1.000000
    6       -7.812592   1.000000
    7       -7.703766   1.000000
    8       -7.453969   1.000000
    9       -7.407248   1.000000
   10       -7.303733   1.000000
   11       -7.215311   1.000000
   12       -7.142806   1.000000
   13       -2.983731   1.000000
   14       -2.098660   1.000000
   15       -1.894279   1.000000
   16       -1.831005   1.000000
   17       -1.062710   1.000000
   18       -1.051917   1.000000
   19       -0.729793   1.000000
   20       -0.637814   1.000000
   21       -0.252029   1.000000
   22        0.259751   1.000000
   23        0.307341   1.000000
   24        0.598742   1.000000
   25        1.077053   1.000000
   26        1.522023   1.000000
   27        1.599830   1.000000
   28        1.726664   1.000000
   29        1.814360   1.000000
   30        2.017979   1.000000
   31        2.365319   1.000000
   32        2.586838   1.000000
   33        2.758293   1.000000
   34        2.951725   1.000000
   35        2.992480   1.000000
   36        3.250385   1.000000
   37        3.384219   1.000000
   38        3.472691   1.000000
   39        3.780525   1.000000
   40        3.962145   1.000000
   41        4.039971   1.000000
   42        4.410688   1.000000
   43        4.465736   1.000000
   44        4.683852   1.000000
   45        4.782376   1.000000
   46        4.892520   1.000000
   47        5.139719   1.000000
   48        5.269970   1.000000
   49        5.333567   1.000000
   50        5.903704   1.000000
   51        5.904274   1.000000
   52        6.140668   1.000000
   53        6.165861   1.000000
   54        6.300602   1.000000
   55        6.652633   1.000000
   56        6.658826   1.000000
   57        6.889320   1.000000
   58        7.264779   1.000000
   59        7.551528   1.000000
   60        8.014927   1.000000
   61        8.238351   1.000000
   62        8.631810   1.000000
   63        9.193211  -0.045962
   64       10.944575   0.000000
   65       11.108431   0.000000
   66       11.398395   0.000000
   67       11.485772   0.000000
   68       12.154658   0.000000
   69       12.304977   0.000000
   70       13.015876   0.000000
   71       13.037970   0.000000
   72       13.164203   0.000000
   73       13.446202   0.000000
   74       13.509807   0.000000
   75       13.884430   0.000000
   76       13.923291   0.000000
   77       14.217565   0.000000
   78       14.248969   0.000000
   79       14.397575   0.000000
   80       14.535482   0.000000
 
  0.3333333E+00  0.1666667E+00  0.3742002E-15  0.3703704E-01
    1      -10.226174   1.000000
    2      -10.007959   1.000000
    3       -9.801097   1.000000
    4       -8.448186   1.000000
    5       -8.241616   1.000000
    6       -7.967276   1.000000
    7       -7.688240   1.000000
    8       -7.527782   1.000000
    9       -7.428751   1.000000
   10       -7.285503   1.000000
   11       -7.213391   1.000000
   12       -7.146828   1.000000
   13       -2.670228   1.000000
   14       -2.123657   1.000000
   15       -1.867308   1.000000
   16       -1.783853   1.000000
   17       -1.239788   1.000000
   18       -1.120478   1.000000
   19       -0.816920   1.000000
   20       -0.704374   1.000000
   21       -0.526667   1.000000
   22        0.217308   1.000000
   23        0.291074   1.000000
   24        0.452126   1.000000
   25        1.066923   1.000000
   26        1.574855   1.000000
   27        1.625029   1.000000
   28        1.891327   1.000000
   29        2.068635   1.000000
   30        2.204283   1.000000
   31        2.471397   1.000000
   32        2.601569   1.000000
   33        2.732007   1.000000
   34        2.897458   1.000000
   35        2.997124   1.000000
   36        3.226533   1.000000
   37        3.426313   1.000000
   38        3.501938   1.000000
   39        3.791047   1.000000
   40        3.865094   1.000000
   41        4.051687   1.000000
   42        4.292255   1.000000
   43        4.404653   1.000000
   44        4.727072   1.000000
   45        4.898820   1.000000
   46        5.100061   1.000000
   47        5.213549   1.000000
   48        5.401272   1.000000
   49        5.463049   1.000000
   50        5.765123   1.000000
   51        5.855231   1.000000
   52        6.021750   1.000000
   53        6.114063   1.000000
   54        6.301773   1.000000
   55        6.522092   1.000000
   56        6.591221   1.000000
   57        6.748248   1.000000
   58        6.996359   1.000000
   59        7.712938   1.000000
   60        7.899151   1.000000
   61        8.264624   1.000000
   62        8.792390   0.999546
   63        9.040206   0.894745
   64       11.159058   0.000000
   65       11.232223   0.000000
   66       11.381296   0.000000
   67       11.535751   0.000000
   68       12.098587   0.000000
   69       12.430439   0.000000
   70       12.785207   0.000000
   71       13.082799   0.000000
   72       13.165303   0.000000
   73       13.553800   0.000000
   74       13.674026   0.000000
   75       14.003574   0.000000
   76       14.056895   0.000000
   77       14.201893   0.000000
   78       14.248970   0.000000
   79       14.374792   0.000000
   80       14.456666   0.000000
 
  0.3333333E+00  0.3333333E+00  0.3742002E-15  0.6172840E-02
    1      -10.108395   1.000000
    2      -10.108395   1.000000
    3       -9.851070   1.000000
    4       -8.283332   1.000000
    5       -8.186895   1.000000
    6       -8.186895   1.000000
    7       -7.615448   1.000000
    8       -7.502628   1.000000
    9       -7.502627   1.000000
   10       -7.280649   1.000000
   11       -7.182913   1.000000
   12       -7.182913   1.000000
   13       -2.484420   1.000000
   14       -1.988858   1.000000
   15       -1.988858   1.000000
   16       -1.952023   1.000000
   17       -1.186816   1.000000
   18       -1.186816   1.000000
   19       -0.716587   1.000000
   20       -0.716587   1.000000
   21       -0.703749   1.000000
   22        0.235859   1.000000
   23        0.235859   1.000000
   24        0.405422   1.000000
   25        0.991724   1.000000
   26        1.634152   1.000000
   27        1.634152   1.000000
   28        1.983475   1.000000
   29        2.264343   1.000000
   30        2.264343   1.000000
   31        2.556237   1.000000
   32        2.556237   1.000000
   33        2.587235   1.000000
   34        3.068080   1.000000
   35        3.086720   1.000000
   36        3.086720   1.000000
   37        3.272189   1.000000
   38        3.683284   1.000000
   39        3.683284   1.000000
   40        3.710820   1.000000
   41        4.114451   1.000000
   42        4.114451   1.000000
   43        4.317584   1.000000
   44        4.916089   1.000000
   45        4.916089   1.000000
   46        5.272331   1.000000
   47        5.306628   1.000000
   48        5.485761   1.000000
   49        5.485762   1.000000
   50        5.821221   1.000000
   51        5.939872   1.000000
   52        5.939872   1.000000
   53        6.268136   1.000000
   54        6.268136   1.000000
   55        6.275093   1.000000
   56        6.541873   1.000000
   57        6.541873   1.000000
   58        6.748384   1.000000
   59        7.923549   1.000000
   60        7.923549   1.000000
   61        8.218409   1.000000
   62        8.920083   1.003021
   63        8.920083   1.003021
   64       11.195216   0.000000
   65       11.195216   0.000000
   66       11.482359   0.000000
   67       11.482359   0.000000
   68       12.150306   0.000000
   69       12.580846   0.000000
   70       12.580846   0.000000
   71       12.975430   0.000000
   72       13.389207   0.000000
   73       13.578197   0.000000
   74       13.578197   0.000000
   75       14.175746   0.000000
   76       14.192979   0.000000
   77       14.255184   0.000000
   78       14.255184   0.000000
   79       14.377717   0.000000
   80       14.377717   0.000000
 
  0.3742002E-15  0.3742002E-15  0.1111111E+00  0.6172840E-02
    1      -10.413565   1.000000
    2       -9.627373   1.000000
    3       -9.627373   1.000000
    4       -8.612339   1.000000
    5       -8.612339   1.000000
    6       -8.136708   1.000000
    7       -7.506074   1.000000
    8       -7.506073   1.000000
    9       -7.331738   1.000000
   10       -7.246720   1.000000
   11       -7.246720   1.000000
   12       -7.211088   1.000000
   13       -3.220641   1.000000
   14       -1.995441   1.000000
   15       -1.942744   1.000000
   16       -1.942744   1.000000
   17       -0.831313   1.000000
   18       -0.677534   1.000000
   19       -0.677534   1.000000
   20       -0.322320   1.000000
   21        0.196213   1.000000
   22        0.196213   1.000000
   23        0.485106   1.000000
   24        0.899594   1.000000
   25        0.993060   1.000000
   26        0.993060   1.000000
   27        1.267925   1.000000
   28        1.820529   1.000000
   29        1.820529   1.000000
   30        1.970943   1.000000
   31        2.166533   1.000000
   32        2.582664   1.000000
   33        2.582664   1.000000
   34        2.957573   1.000000
   35        3.135545   1.000000
   36        3.135545   1.000000
   37        3.311153   1.000000
   38        3.311153   1.000000
   39        3.444291   1.000000
   40        3.897672   1.000000
   41        3.897672   1.000000
   42        4.589729   1.000000
   43        4.589729   1.000000
   44        4.689681   1.000000
   45        4.730056   1.000000
   46        4.730056   1.000000
   47        5.124640   1.000000
   48        5.210664   1.000000
   49        5.664208   1.000000
   50        5.772498   1.000000
   51        5.772499   1.000000
   52        5.943721   1.000000
   53        6.307320   1.000000
   54        6.307320   1.000000
   55        6.429457   1.000000
   56        6.886555   1.000000
   57        6.886555   1.000000
   58        7.669470   1.000000
   59        7.669470   1.000000
   60        8.246457   1.000000
   61        8.246457   1.000000
   62        8.541801   1.000000
   63        9.310822   0.003669
   64       10.742196   0.000000
   65       10.742196   0.000000
   66       11.632760   0.000000
   67       11.632761   0.000000
   68       12.381519   0.000000
   69       12.381519   0.000000
   70       12.665686   0.000000
   71       12.759882   0.000000
   72       13.257140   0.000000
   73       13.414515   0.000000
   74       13.414515   0.000000
   75       13.785949   0.000000
   76       14.065465   0.000000
   77       14.065466   0.000000
   78       14.096616   0.000000
   79       14.560985   0.000000
   80       14.560985   0.000000
 
  0.1666667E+00  0.1277613E-14  0.1111111E+00  0.3703704E-01
    1      -10.376623   1.000000
    2       -9.701845   1.000000
    3       -9.654457   1.000000
    4       -8.579578   1.000000
    5       -8.534748   1.000000
    6       -8.094830   1.000000
    7       -7.572642   1.000000
    8       -7.526024   1.000000
    9       -7.439933   1.000000
   10       -7.263857   1.000000
   11       -7.186279   1.000000
   12       -7.163480   1.000000
   13       -3.120443   1.000000
   14       -2.005433   1.000000
   15       -1.872494   1.000000
   16       -1.860107   1.000000
   17       -0.926151   1.000000
   18       -0.797902   1.000000
   19       -0.694559   1.000000
   20       -0.469779   1.000000
   21       -0.024335   1.000000
   22        0.257826   1.000000
   23        0.477712   1.000000
   24        0.790464   1.000000
   25        0.914407   1.000000
   26        1.216765   1.000000
   27        1.426604   1.000000
   28        1.721685   1.000000
   29        1.761535   1.000000
   30        2.135767   1.000000
   31        2.204489   1.000000
   32        2.549087   1.000000
   33        2.696849   1.000000
   34        2.896491   1.000000
   35        3.124882   1.000000
   36        3.203837   1.000000
   37        3.265411   1.000000
   38        3.369572   1.000000
   39        3.613951   1.000000
   40        3.917878   1.000000
   41        4.008959   1.000000
   42        4.420229   1.000000
   43        4.581110   1.000000
   44        4.680004   1.000000
   45        4.713656   1.000000
   46        4.877521   1.000000
   47        5.051375   1.000000
   48        5.225223   1.000000
   49        5.446086   1.000000
   50        5.772061   1.000000
   51        5.906040   1.000000
   52        5.964331   1.000000
   53        6.271912   1.000000
   54        6.354941   1.000000
   55        6.511851   1.000000
   56        6.793149   1.000000
   57        6.899799   1.000000
   58        7.531827   1.000000
   59        7.592158   1.000000
   60        8.116101   1.000000
   61        8.219676   1.000000
   62        8.614175   1.000000
   63        9.259974   0.002131
   64       10.846905   0.000000
   65       10.927489   0.000000
   66       11.588585   0.000000
   67       11.615013   0.000000
   68       12.140072   0.000000
   69       12.430401   0.000000
   70       12.828790   0.000000
   71       12.994968   0.000000
   72       13.220062   0.000000
   73       13.350817   0.000000
   74       13.538834   0.000000
   75       13.567326   0.000000
   76       13.847514   0.000000
   77       14.220038   0.000000
   78       14.297737   0.000000
   79       14.490658   0.000000
   80       14.679304   0.000000
 
  0.3333333E+00  0.3595600E-15  0.1111111E+00  0.3703704E-01
    1      -10.272872   1.000000
    2       -9.872241   1.000000
    3       -9.701636   1.000000
    4       -8.534298   1.000000
    5       -8.330143   1.000000
    6       -7.974986   1.000000
    7       -7.781830   1.000000
    8       -7.642473   1.000000
    9       -7.478166   1.000000
   10       -7.274593   1.000000
   11       -7.149226   1.000000
   12       -7.112493   1.000000
   13       -2.844483   1.000000
   14       -2.034294   1.000000
   15       -1.740545   1.000000
   16       -1.691696   1.000000
   17       -1.248051   1.000000
   18       -0.913376   1.000000
   19       -0.781954   1.000000
   20       -0.651620   1.000000
   21       -0.365953   1.000000
   22        0.331470   1.000000
   23        0.480522   1.000000
   24        0.537240   1.000000
   25        1.017467   1.000000
   26        1.402466   1.000000
   27        1.512873   1.000000
   28        1.627887   1.000000
   29        1.832187   1.000000
   30        2.210299   1.000000
   31        2.456574   1.000000
   32        2.517846   1.000000
   33        2.750527   1.000000
   34        2.842932   1.000000
   35        3.056875   1.000000
   36        3.267658   1.000000
   37        3.336449   1.000000
   38        3.516704   1.000000
   39        3.790771   1.000000
   40        3.973926   1.000000
   41        4.120591   1.000000
   42        4.345864   1.000000
   43        4.451531   1.000000
   44        4.688426   1.000000
   45        4.793124   1.000000
   46        4.966938   1.000000
   47        5.099502   1.000000
   48        5.288626   1.000000
   49        5.419901   1.000000
   50        5.779497   1.000000
   51        5.815300   1.000000
   52        6.001634   1.000000
   53        6.081220   1.000000
   54        6.250941   1.000000
   55        6.666629   1.000000
   56        6.694057   1.000000
   57        6.894505   1.000000
   58        7.357192   1.000000
   59        7.394657   1.000000
   60        7.864548   1.000000
   61        8.227972   1.000000
   62        8.772485   0.999820
   63        9.147358  -0.003461
   64       11.077217   0.000000
   65       11.269299   0.000000
   66       11.479963   0.000000
   67       11.571751   0.000000
   68       12.061059   0.000000
   69       12.519031   0.000000
   70       12.776288   0.000000
   71       12.970286   0.000000
   72       13.123750   0.000000
   73       13.499708   0.000000
   74       13.621274   0.000000
   75       13.858982   0.000000
   76       13.921953   0.000000
   77       14.100721   0.000000
   78       14.159362   0.000000
   79       14.463607   0.000000
   80       14.603546   0.000000
 
  0.5000000E+00  0.3706203E-15  0.1111111E+00  0.1851852E-01
    1      -10.166964   1.000000
    2      -10.008241   1.000000
    3       -9.722564   1.000000
    4       -8.518645   1.000000
    5       -8.080437   1.000000
    6       -8.038638   1.000000
    7       -7.841933   1.000000
    8       -7.768518   1.000000
    9       -7.484295   1.000000
   10       -7.277103   1.000000
   11       -7.130093   1.000000
   12       -7.102727   1.000000
   13       -2.591979   1.000000
   14       -2.149333   1.000000
   15       -1.720358   1.000000
   16       -1.654925   1.000000
   17       -1.141027   1.000000
   18       -1.092721   1.000000
   19       -0.933100   1.000000
   20       -0.629522   1.000000
   21       -0.558103   1.000000
   22        0.322570   1.000000
   23        0.409138   1.000000
   24        0.537233   1.000000
   25        1.115793   1.000000
   26        1.409617   1.000000
   27        1.476597   1.000000
   28        1.696571   1.000000
   29        1.939270   1.000000
   30        2.056940   1.000000
   31        2.460875   1.000000
   32        2.630671   1.000000
   33        2.831084   1.000000
   34        2.967363   1.000000
   35        2.971454   1.000000
   36        3.339179   1.000000
   37        3.360836   1.000000
   38        3.453648   1.000000
   39        3.732887   1.000000
   40        4.082573   1.000000
   41        4.167041   1.000000
   42        4.373810   1.000000
   43        4.459654   1.000000
   44        4.572666   1.000000
   45        4.843521   1.000000
   46        5.071332   1.000000
   47        5.140940   1.000000
   48        5.477090   1.000000
   49        5.483306   1.000000
   50        5.706649   1.000000
   51        5.855973   1.000000
   52        5.925970   1.000000
   53        6.036657   1.000000
   54        6.045436   1.000000
   55        6.495772   1.000000
   56        6.792770   1.000000
   57        6.804678   1.000000
   58        7.266310   1.000000
   59        7.471697   1.000000
   60        7.692150   1.000000
   61        8.253266   1.000000
   62        8.884124   0.995095
   63        9.062009   0.715418
   64       11.235357   0.000000
   65       11.342720   0.000000
   66       11.454064   0.000000
   67       11.588006   0.000000
   68       12.065336   0.000000
   69       12.591120   0.000000
   70       12.602100   0.000000
   71       12.958090   0.000000
   72       13.117718   0.000000
   73       13.539483   0.000000
   74       13.736984   0.000000
   75       13.815369   0.000000
   76       13.983898   0.000000
   77       14.172367   0.000000
   78       14.258487   0.000000
   79       14.277782   0.000000
   80       14.578188   0.000000
 
  0.1666667E+00  0.1666667E+00  0.1111111E+00  0.1851852E-01