<?xml version="1.0" encoding="ISO-8859-1"?>
<modeling>
 <generator>
  <i name="program" type="string">vasp </i>
  <i name="version" type="string">5.4.4.18Apr17-6-g9f103f2a35  </i>
  <i name="subversion" type="string">(build Nov 01 2019 12:17:22) complex            parallel </i>
  <i name="platform" type="string">LinuxIFC </i>
  <i name="date" type="string">2023 05 19 </i>
  <i name="time" type="string">18:21:55 </i>
 </generator>
 <incar>
  <i type="string" name="PREC">accurate</i>
  <i type="string" name="ALGO"> Fast</i>
  <i type="int" name="IBRION">     2</i>
  <i type="int" name="NSW">   100</i>
  <i type="int" name="ISIF">     2</i>
  <i type="string" name="LREAL"> Auto</i>
  <i type="int" name="ISMEAR">     2</i>
  <i name="SIGMA">      0.10000000</i>
  <i type="logical" name="LWAVE"> F  </i>
  <i type="logical" name="LCHARG"> F  </i>
  <v type="int" name="KPOINT_BSE">    -1     0     0     0</v>
 </incar>
 <structure name="primitive_cell" >
  <crystal>
   <varray name="basis" >
    <v>       4.10065589      -7.10254435       0.00000000 </v>
    <v>       4.10065589       7.10254435       0.00000000 </v>
    <v>       0.00000000       0.00000000       5.25499039 </v>
   </varray>
   <i name="volume">    306.10414013 </i>
   <varray name="rec_basis" >
    <v>       0.12193171      -0.07039731       0.00000000 </v>
    <v>       0.12193171       0.07039731       0.00000000 </v>
    <v>       0.00000000       0.00000000       0.19029531 </v>
   </varray>
  </crystal>
  <varray name="positions" >
   <v>       0.00847736      -0.35287377       0.21326215 </v>
   <v>       0.08729345      -0.21311138       0.46674092 </v>
   <v>      -0.08729345      -0.30040483      -0.03325908 </v>
   <v>      -0.06686359       0.41763405       0.28259872 </v>
   <v>      -0.00847736      -0.36135113      -0.28673785 </v>
   <v>      -0.08582195       0.32157747      -0.00812732 </v>
   <v>       0.08582195       0.40739942       0.49187268 </v>
   <v>      -0.32157747      -0.40739942      -0.00812732 </v>
   <v>       0.06686359       0.48449764      -0.21740128 </v>
   <v>       0.32157747      -0.08582195       0.49187268 </v>
   <v>       0.33333333      -0.33333333      -0.02422298 </v>
   <v>      -0.33333333       0.33333333       0.47577702 </v>
   <v>      -0.41763405      -0.48449764       0.28259872 </v>
   <v>       0.00000000       0.00000000       0.45692726 </v>
   <v>       0.00000000       0.00000000      -0.04307274 </v>
   <v>       0.40739942       0.08582195      -0.00812732 </v>
   <v>       0.48449764       0.06686359       0.28259872 </v>
   <v>       0.41763405      -0.06686359      -0.21740128 </v>
   <v>      -0.40739942      -0.32157747       0.49187268 </v>
   <v>       0.21311138       0.30040483       0.46674092 </v>
   <v>      -0.21311138       0.08729345      -0.03325908 </v>
   <v>       0.30040483       0.21311138      -0.03325908 </v>
   <v>      -0.30040483      -0.08729345       0.46674092 </v>
   <v>      -0.48449764      -0.41763405      -0.21740128 </v>
   <v>       0.35287377       0.36135113       0.21326215 </v>
   <v>      -0.36135113      -0.00847736       0.21326215 </v>
   <v>      -0.35287377       0.00847736      -0.28673785 </v>
   <v>       0.36135113       0.35287377      -0.28673785 </v>
  </varray>
 </structure>
 <varray name="primitive_index" >
  <v type="int" >        1 </v>
  <v type="int" >       14 </v>
  <v type="int" >       23 </v>
  <v type="int" >       25 </v>
  <v type="int" >        9 </v>
  <v type="int" >        3 </v>
  <v type="int" >        5 </v>
  <v type="int" >       11 </v>
  <v type="int" >       18 </v>
  <v type="int" >        6 </v>
  <v type="int" >       24 </v>
  <v type="int" >       20 </v>
  <v type="int" >       21 </v>
  <v type="int" >       19 </v>
  <v type="int" >       17 </v>
  <v type="int" >       12 </v>
  <v type="int" >       28 </v>
  <v type="int" >       26 </v>
  <v type="int" >        8 </v>
  <v type="int" >       13 </v>
  <v type="int" >       22 </v>
  <v type="int" >       15 </v>
  <v type="int" >       16 </v>
  <v type="int" >       27 </v>
  <v type="int" >        7 </v>
  <v type="int" >        2 </v>
  <v type="int" >        4 </v>
  <v type="int" >       10 </v>
 </varray>
 <kpoints>
  <generation param="Auto">
   <i name="subdivisionlength">     45.00000000 </i>
   <v type="int" name="divisions">       6        6        9 </v>
   <v name="usershift">      0.00000000       0.00000000       0.00000000 </v>
   <v name="genvec1">      0.16666667       0.00000000       0.00000000 </v>
   <v name="genvec2">      0.00000000       0.16666667       0.00000000 </v>
   <v name="genvec3">      0.00000000       0.00000000       0.11111111 </v>
   <v name="shift">      0.00000000       0.00000000       0.00000000 </v>
  </generation>
  <varray name="kpointlist" >
   <v>       0.00000000       0.00000000       0.00000000 </v>
   <v>       0.16666667       0.00000000       0.00000000 </v>
   <v>       0.33333333       0.00000000       0.00000000 </v>
   <v>       0.50000000       0.00000000       0.00000000 </v>
   <v>       0.16666667       0.16666667       0.00000000 </v>
   <v>       0.33333333       0.16666667       0.00000000 </v>
   <v>       0.33333333       0.33333333       0.00000000 </v>
   <v>       0.00000000       0.00000000       0.11111111 </v>
   <v>       0.16666667       0.00000000       0.11111111 </v>
   <v>       0.33333333       0.00000000       0.11111111 </v>
   <v>       0.50000000       0.00000000       0.11111111 </v>
   <v>       0.16666667       0.16666667       0.11111111 </v>
   <v>       0.33333333       0.16666667       0.11111111 </v>
   <v>       0.33333333       0.33333333       0.11111111 </v>
   <v>      -0.16666667       0.33333333       0.11111111 </v>
   <v>      -0.33333333       0.50000000       0.11111111 </v>
   <v>      -0.33333333      -0.33333333       0.11111111 </v>
   <v>       0.00000000       0.00000000       0.22222222 </v>
   <v>       0.16666667       0.00000000       0.22222222 </v>
   <v>       0.33333333       0.00000000       0.22222222 </v>
   <v>       0.50000000       0.00000000       0.22222222 </v>
   <v>       0.16666667       0.16666667       0.22222222 </v>
   <v>       0.33333333       0.16666667       0.22222222 </v>
   <v>       0.33333333       0.33333333       0.22222222 </v>
   <v>      -0.16666667       0.33333333       0.22222222 </v>
   <v>      -0.33333333       0.50000000       0.22222222 </v>
   <v>      -0.33333333      -0.33333333       0.22222222 </v>
   <v>       0.00000000       0.00000000       0.33333333 </v>
   <v>       0.16666667       0.00000000       0.33333333 </v>
   <v>       0.33333333       0.00000000       0.33333333 </v>
   <v>       0.50000000       0.00000000       0.33333333 </v>
   <v>       0.16666667       0.16666667       0.33333333 </v>
   <v>       0.33333333       0.16666667       0.33333333 </v>
   <v>       0.33333333       0.33333333       0.33333333 </v>
   <v>      -0.16666667       0.33333333       0.33333333 </v>
   <v>      -0.33333333       0.50000000       0.33333333 </v>
   <v>      -0.33333333      -0.33333333       0.33333333 </v>
   <v>       0.00000000       0.00000000       0.44444444 </v>
   <v>       0.16666667       0.00000000       0.44444444 </v>
   <v>       0.33333333       0.00000000       0.44444444 </v>
   <v>       0.50000000       0.00000000       0.44444444 </v>
   <v>       0.16666667       0.16666667       0.44444444 </v>
   <v>       0.33333333       0.16666667       0.44444444 </v>
   <v>       0.33333333       0.33333333       0.44444444 </v>
   <v>      -0.16666667       0.33333333       0.44444444 </v>
   <v>      -0.33333333       0.50000000       0.44444444 </v>
   <v>      -0.33333333      -0.33333333       0.44444444 </v>
  </varray>
  <varray name="weights" >
   <v>       0.00308642 </v>
   <v>       0.01851852 </v>
   <v>       0.01851852 </v>
   <v>       0.00925926 </v>
   <v>       0.01851852 </v>
   <v>       0.03703704 </v>
   <v>       0.00617284 </v>
   <v>       0.00617284 </v>
   <v>       0.03703704 </v>
   <v>       0.03703704 </v>
   <v>       0.01851852 </v>
   <v>       0.01851852 </v>
   <v>       0.03703704 </v>
   <v>       0.00617284 </v>
   <v>       0.01851852 </v>
   <v>       0.03703704 </v>
   <v>       0.00617284 </v>
   <v>       0.00617284 </v>
   <v>       0.03703704 </v>
   <v>       0.03703704 </v>
   <v>       0.01851852 </v>
   <v>       0.01851852 </v>
   <v>       0.03703704 </v>
   <v>       0.00617284 </v>
   <v>       0.01851852 </v>
   <v>       0.03703704 </v>
   <v>       0.00617284 </v>
   <v>       0.00617284 </v>
   <v>       0.03703704 </v>
   <v>       0.03703704 </v>
   <v>       0.01851852 </v>
   <v>       0.01851852 </v>
   <v>       0.03703704 </v>
   <v>       0.00617284 </v>
   <v>       0.01851852 </v>
   <v>       0.03703704 </v>
   <v>       0.00617284 </v>
   <v>       0.00617284 </v>
   <v>       0.03703704 </v>
   <v>       0.03703704 </v>
   <v>       0.01851852 </v>
   <v>       0.01851852 </v>
   <v>       0.03703704 </v>
   <v>       0.00617284 </v>
   <v>       0.01851852 </v>
   <v>       0.03703704 </v>
   <v>       0.00617284 </v>
  </varray>
 </kpoints>
 <parameters>
  <separator name="general" >
   <i type="string" name="SYSTEM">unknown system</i>
   <i type="logical" name="LCOMPAT"> F  </i>
  </separator>
  <separator name="electronic" >
   <i type="string" name="PREC">accura</i>
   <i name="ENMAX">    400.00000000</i>
   <i name="ENAUG">    627.11200000</i>
   <i name="EDIFF">      0.00010000</i>
   <i type="int" name="IALGO">    68</i>
   <i type="int" name="IWAVPR">    11</i>
   <i type="int" name="NBANDS">    80</i>
   <i name="NELECT">    124.00000000</i>
   <i type="int" name="TURBO">     0</i>
   <i type="int" name="IRESTART">     0</i>
   <i type="int" name="NREBOOT">     0</i>
   <i type="int" name="NMIN">     0</i>
   <i name="EREF">      0.00000000</i>
   <separator name="electronic smearing" >
    <i type="int" name="ISMEAR">     2</i>
    <i name="SIGMA">      0.10000000</i>
    <i name="KSPACING">      0.50000000</i>
    <i type="logical" name="KGAMMA"> T  </i>
   </separator>
   <separator name="electronic projectors" >
    <i type="logical" name="LREAL"> T  </i>
    <v name="ROPT">     -0.00025000     -0.00025000</v>
    <i type="int" name="LMAXPAW">  -100</i>
    <i type="int" name="LMAXMIX">     2</i>
    <i type="logical" name="NLSPLINE"> F  </i>
   </separator>
   <separator name="electronic startup" >
    <i type="int" name="ISTART">     0</i>
    <i type="int" name="ICHARG">     2</i>
    <i type="int" name="INIWAV">     1</i>
   </separator>
   <separator name="electronic spin" >
    <i type="int" name="ISPIN">     1</i>
    <i type="logical" name="LNONCOLLINEAR"> F  </i>
    <v name="MAGMOM">      1.00000000      1.00000000      1.00000000      1.00000000      1.00000000      1.00000000      1.00000000      1.00000000      1.00000000      1.00000000      1.00000000      1.00000000      1.00000000      1.00000000      1.00000000      1.00000000      1.00000000      1.00000000      1.00000000      1.00000000
      1.00000000      1.00000000      1.00000000      1.00000000      1.00000000      1.00000000      1.00000000      1.00000000</v>
    <i name="NUPDOWN">     -1.00000000</i>
    <i type="logical" name="LSORBIT"> F  </i>
    <v name="SAXIS">      0.00000000      0.00000000      1.00000000</v>
    <i type="logical" name="LSPIRAL"> F  </i>
    <v name="QSPIRAL">      0.00000000      0.00000000      0.00000000</v>
    <i type="logical" name="LZEROZ"> F  </i>
   </separator>
   <separator name="electronic exchange-correlation" >
    <i type="logical" name="LASPH"> F  </i>
    <i type="logical" name="LMETAGGA"> F  </i>
   </separator>
   <separator name="electronic convergence" >
    <i type="int" name="NELM">    60</i>
    <i type="int" name="NELMDL">    -5</i>
    <i type="int" name="NELMIN">     2</i>
    <i name="ENINI">    400.00000000</i>
    <separator name="electronic convergence detail" >
     <i type="logical" name="LDIAG"> T  </i>
     <i type="logical" name="LSUBROT"> F  </i>
     <i name="WEIMIN">      0.00100000</i>
     <i name="EBREAK">      0.00000031</i>
     <i name="DEPER">      0.30000000</i>
     <i type="int" name="NRMM">     4</i>
     <i name="TIME">      0.40000000</i>
    </separator>
   </separator>
   <separator name="electronic mixer" >
    <i name="AMIX">      0.40000000</i>
    <i name="BMIX">      1.00000000</i>
    <i name="AMIN">      0.10000000</i>
    <i name="AMIX_MAG">      1.60000000</i>
    <i name="BMIX_MAG">      1.00000000</i>
    <separator name="electronic mixer details" >
     <i type="int" name="IMIX">     4</i>
     <i type="logical" name="MIXFIRST"> F  </i>
     <i type="int" name="MAXMIX">   -45</i>
     <i name="WC">    100.00000000</i>
     <i type="int" name="INIMIX">     1</i>
     <i type="int" name="MIXPRE">     1</i>
     <i type="int" name="MREMOVE">     5</i>
    </separator>
   </separator>
   <separator name="electronic dipolcorrection" >
    <i type="logical" name="LDIPOL"> F  </i>
    <i type="logical" name="LMONO"> F  </i>
    <i type="int" name="IDIPOL">     0</i>
    <i name="EPSILON">      1.00000000</i>
    <v name="DIPOL">   -100.00000000   -100.00000000   -100.00000000</v>
    <i name="EFIELD">      0.00000000</i>
   </separator>
  </separator>
  <separator name="grids" >
   <i type="int" name="NGX">    54</i>
   <i type="int" name="NGY">    54</i>
   <i type="int" name="NGZ">    36</i>
   <i type="int" name="NGXF">   108</i>
   <i type="int" name="NGYF">   108</i>
   <i type="int" name="NGZF">    72</i>
   <i type="logical" name="ADDGRID"> F  </i>
  </separator>
  <separator name="ionic" >
   <i type="int" name="NSW">   100</i>
   <i type="int" name="IBRION">     2</i>
   <i type="int" name="MDALGO">     0</i>
   <i type="int" name="ISIF">     2</i>
   <i name="PSTRESS">      0.00000000</i>
   <i name="EDIFFG">      0.00100000</i>
   <i type="int" name="NFREE">     1</i>
   <i name="POTIM">      0.50000000</i>
   <i name="SMASS">     -3.00000000</i>
   <i name="SCALEE">      1.00000000</i>
  </separator>
  <separator name="ionic md" >
   <i name="TEBEG">      0.00010000</i>
   <i name="TEEND">      0.00010000</i>
   <i type="int" name="NBLOCK">     1</i>
   <i type="int" name="KBLOCK">   100</i>
   <i type="int" name="NPACO">   256</i>
   <i name="APACO">     16.00000000</i>
  </separator>
  <separator name="symmetry" >
   <i type="int" name="ISYM">     2</i>
   <i name="SYMPREC">      0.00001000</i>
  </separator>
  <separator name="dos" >
   <i type="int" name="LORBIT">     0</i>
   <v name="RWIGS">     -1.00000000     -1.00000000</v>
   <i type="int" name="NEDOS">   301</i>
   <i name="EMIN">     10.00000000</i>
   <i name="EMAX">    -10.00000000</i>
   <i name="EFERMI">      0.00000000</i>
  </separator>
  <separator name="writing" >
   <i type="int" name="NWRITE">     2</i>
   <i type="logical" name="LWAVE"> F  </i>
   <i type="logical" name="LDOWNSAMPLE"> F  </i>
   <i type="logical" name="LCHARG"> F  </i>
   <i type="logical" name="LPARD"> F  </i>
   <i type="logical" name="LVTOT"> F  </i>
   <i type="logical" name="LVHAR"> F  </i>
   <i type="logical" name="LELF"> F  </i>
   <i type="logical" name="LOPTICS"> F  </i>
   <v name="STM">      0.00000000      0.00000000      0.00000000      0.00000000      0.00000000      0.00000000      0.00000000</v>
  </separator>
  <separator name="performance" >
   <i type="int" name="NPAR">     4</i>
   <i type="int" name="NSIM">     4</i>
   <i type="int" name="NBLK">    -1</i>
   <i type="logical" name="LPLANE"> T  </i>
   <i type="logical" name="LSCALAPACK"> F  </i>
   <i type="logical" name="LSCAAWARE"> F  </i>
   <i type="logical" name="LSCALU"> F  </i>
   <i type="logical" name="LASYNC"> F  </i>
   <i type="logical" name="LORBITALREAL"> F  </i>
  </separator>
  <separator name="miscellaneous" >
   <i type="int" name="IDIOT">     3</i>
   <i type="int" name="ISPECIAL">     0</i>
   <i type="logical" name="LMUSIC"> F  </i>
   <v name="POMASS">     14.00100000     28.08500000</v>
   <v name="DARWINR">      0.00000000      0.00000000</v>
   <v name="DARWINV">      1.00000000      1.00000000</v>
   <i type="logical" name="LCORR"> T  </i>
  </separator>
  <i type="logical" name="GGA_COMPAT"> T  </i>
  <i type="logical" name="LBERRY"> F  </i>
  <i type="int" name="ICORELEVEL">     0</i>
  <i type="logical" name="LDAU"> F  </i>
  <i type="int" name="I_CONSTRAINED_M">     0</i>
  <separator name="electronic exchange-correlation" >
   <i type="string" name="GGA">--</i>
   <i type="int" name="VOSKOWN">     0</i>
   <i type="logical" name="LHFCALC"> F  </i>
   <i type="string" name="PRECFOCK"></i>
   <i type="logical" name="LSYMGRAD"> F  </i>
   <i type="logical" name="LHFONE"> F  </i>
   <i type="logical" name="LRHFCALC"> F  </i>
   <i type="logical" name="LTHOMAS"> F  </i>
   <i type="logical" name="LMODELHF"> F  </i>
   <i name="ENCUT4O">     -1.00000000</i>
   <i type="int" name="EXXOEP">     0</i>
   <i type="int" name="FOURORBIT">     0</i>
   <i name="AEXX">      0.00000000</i>
   <i name="HFALPHA">      0.00000000</i>
   <i name="MCALPHA">      0.00000000</i>
   <i name="ALDAX">      1.00000000</i>
   <i name="AGGAX">      1.00000000</i>
   <i name="ALDAC">      1.00000000</i>
   <i name="AGGAC">      1.00000000</i>
   <i type="int" name="NKREDX">     1</i>
   <i type="int" name="NKREDY">     1</i>
   <i type="int" name="NKREDZ">     1</i>
   <i type="logical" name="SHIFTRED"> F  </i>
   <i type="logical" name="ODDONLY"> F  </i>
   <i type="logical" name="EVENONLY"> F  </i>
   <i type="int" name="LMAXFOCK">     0</i>
   <i type="int" name="NMAXFOCKAE">     0</i>
   <i type="logical" name="LFOCKAEDFT"> F  </i>
   <i name="HFSCREEN">      0.00000000</i>
   <i name="HFSCREENC">      0.00000000</i>
   <i type="int" name="NBANDSGWLOW">     0</i>
  </separator>
  <separator name="vdW DFT" >
   <i type="logical" name="LUSE_VDW"> F  </i>
   <i name="Zab_VDW">     -0.84910000</i>
   <i name="PARAM1">      0.12340000</i>
   <i name="PARAM2">      1.00000000</i>
   <i name="PARAM3">      0.00000000</i>
  </separator>
  <separator name="model GW" >
   <i type="int" name="MODEL_GW">     0</i>
   <i name="MODEL_EPS0">      6.55937443</i>
   <i name="MODEL_ALPHA">      1.00000000</i>
  </separator>
  <separator name="linear response parameters" >
   <i type="logical" name="LEPSILON"> F  </i>
   <i type="logical" name="LRPA"> F  </i>
   <i type="logical" name="LNABLA"> F  </i>
   <i type="logical" name="LVEL"> F  </i>
   <i type="int" name="KINTER">     0</i>
   <i name="CSHIFT">      0.10000000</i>
   <i name="OMEGAMAX">     -1.00000000</i>
   <i name="DEG_THRESHOLD">      0.00200000</i>
   <i name="RTIME">     -0.10000000</i>
   <i name="WPLASMAI">      0.00000000</i>
   <v name="DFIELD">      0.00000000      0.00000000      0.00000000</v>
   <v name="WPLASMA">      0.00000000      0.00000000      0.00000000      0.00000000      0.00000000      0.00000000      0.00000000      0.00000000      0.00000000</v>
  </separator>
  <separator name="orbital magnetization" >
   <i type="logical" name="NUCIND"> F  </i>
   <v name="MAGPOS">      0.00000000      0.00000000      0.00000000</v>
   <i type="logical" name="LNICSALL"> T  </i>
   <i type="logical" name="ORBITALMAG"> F  </i>
   <i type="logical" name="LMAGBLOCH"> F  </i>
   <i type="logical" name="LCHIMAG"> F  </i>
   <i type="logical" name="LGAUGE"> T  </i>
   <i type="int" name="MAGATOM">     0</i>
   <v name="MAGDIPOL">      0.00000000      0.00000000      0.00000000</v>
   <v name="AVECCONST">      0.00000000      0.00000000      0.00000000</v>
  </separator>
  <separator name="response functions" >
   <i type="logical" name="LADDER"> F  </i>
   <i type="logical" name="LRPAFORCE"> F  </i>
   <i type="logical" name="LFXC"> F  </i>
   <i type="logical" name="LHARTREE"> T  </i>
   <i type="int" name="IBSE">     0</i>
   <v type="int" name="KPOINT">    -1     0     0     0</v>
   <i type="logical" name="LTCTE"> F  </i>
   <i type="logical" name="LTETE"> F  </i>
   <i type="logical" name="LTRIPLET"> F  </i>
   <i type="logical" name="LFXCEPS"> F  </i>
   <i type="logical" name="LFXHEG"> F  </i>
   <i type="int" name="NATURALO">     2</i>
   <i type="logical" name="L2ORDER"> F  </i>
   <i type="logical" name="LMP2LT"> F  </i>
   <i type="logical" name="LUSEW"> F  </i>
   <i name="ENCUTGW">     -2.00000000</i>
   <i name="ENCUTGWSOFT">     -2.00000000</i>
   <i name="ENCUTLF">     -1.00000000</i>
   <i type="int" name="LMAXMP2">    -1</i>
   <i name="SCISSOR">      0.00000000</i>
   <i type="int" name="NOMEGA">     0</i>
   <i type="int" name="NOMEGAR">     0</i>
   <i type="int" name="NBANDSGW">    -1</i>
   <i type="int" name="NBANDSO">    -1</i>
   <i type="int" name="NBANDSV">    -1</i>
   <i type="int" name="NELM">     1</i>
   <i type="int" name="NELMHF">     1</i>
   <i type="int" name="DIM">     3</i>
   <i type="int" name="ANTIRES">     0</i>
   <i name="OMEGAMAX">    -30.00000000</i>
   <i name="OMEGAMIN">    -30.00000000</i>
   <i name="OMEGATL">   -200.00000000</i>
   <i type="int" name="OMEGAGRID">   140</i>
   <i name="CSHIFT">     -0.10000000</i>
   <i type="logical" name="SELFENERGY"> F  </i>
   <i type="logical" name="LSPECTRAL"> F  </i>
   <i type="logical" name="LSPECTRALGW"> F  </i>
   <i type="logical" name="LSINGLES"> F  </i>
   <i type="logical" name="LFERMIGW"> F  </i>
   <i type="logical" name="ODDONLYGW"> F  </i>
   <i type="logical" name="EVENONLYGW"> F  </i>
   <i type="int" name="NKREDLFX">     1</i>
   <i type="int" name="NKREDLFY">     1</i>
   <i type="int" name="NKREDLFZ">     1</i>
   <i type="int" name="MAXMEM">  2800</i>
   <i type="int" name="TELESCOPE">     0</i>
   <i type="int" name="TAUPAR">     1</i>
   <i type="int" name="OMEGAPAR">    -1</i>
   <i name="LAMBDA">      1.00000000</i>
  </separator>
  <separator name="External order field" >
   <i name="OFIELD_KAPPA">      0.00000000</i>
   <v name="OFIELD_K">      0.00000000      0.00000000      0.00000000</v>
   <i name="OFIELD_Q6_NEAR">      0.00000000</i>
   <i name="OFIELD_Q6_FAR">      0.00000000</i>
   <i name="OFIELD_A">      0.00000000</i>
  </separator>
 </parameters>
 <atominfo>
  <atoms>      28 </atoms>
  <types>       2 </types>
  <array name="atoms" >
   <dimension dim="1">ion</dimension>
   <field type="string">element</field>
   <field type="int">atomtype</field>
   <set>
    <rc><c>N </c><c>   1</c></rc>
    <rc><c>N </c><c>   1</c></rc>
    <rc><c>N </c><c>   1</c></rc>
    <rc><c>N </c><c>   1</c></rc>
    <rc><c>N </c><c>   1</c></rc>
    <rc><c>N </c><c>   1</c></rc>
    <rc><c>N </c><c>   1</c></rc>
    <rc><c>N </c><c>   1</c></rc>
    <rc><c>N </c><c>   1</c></rc>
    <rc><c>N </c><c>   1</c></rc>
    <rc><c>N </c><c>   1</c></rc>
    <rc><c>N </c><c>   1</c></rc>
    <rc><c>Si</c><c>   2</c></rc>
    <rc><c>Si</c><c>   2</c></rc>
    <rc><c>Si</c><c>   2</c></rc>
    <rc><c>Si</c><c>   2</c></rc>
    <rc><c>Si</c><c>   2</c></rc>
    <rc><c>Si</c><c>   2</c></rc>
    <rc><c>Si</c><c>   2</c></rc>
    <rc><c>Si</c><c>   2</c></rc>
    <rc><c>Si</c><c>   2</c></rc>
    <rc><c>Si</c><c>   2</c></rc>
    <rc><c>Si</c><c>   2</c></rc>
    <rc><c>Si</c><c>   2</c></rc>
    <rc><c>Si</c><c>   2</c></rc>
    <rc><c>Si</c><c>   2</c></rc>
    <rc><c>Si</c><c>   2</c></rc>
    <rc><c>Si</c><c>   2</c></rc>
   </set>
  </array>
  <array name="atomtypes" >
   <dimension dim="1">type</dimension>
   <field type="int">atomspertype</field>
   <field type="string">element</field>
   <field>mass</field>
   <field>valence</field>
   <field type="string">pseudopotential</field>
   <set>
    <rc><c>  12</c><c>N </c><c>     14.00100000</c><c>      5.00000000</c><c>  PAW_PBE N 08Apr2002                   </c></rc>
    <rc><c>  16</c><c>Si</c><c>     28.08500000</c><c>      4.00000000</c><c>  PAW_PBE Si 05Jan2001                  </c></rc>
   </set>
  </array>
 </atominfo>
 <structure name="initialpos" >
  <crystal>
   <varray name="basis" >
    <v>       4.10065589      -7.10254435       0.00000000 </v>
    <v>       4.10065589       7.10254435       0.00000000 </v>
    <v>       0.00000000       0.00000000       5.25499039 </v>
   </varray>
   <i name="volume">    306.10414013 </i>
   <varray name="rec_basis" >
    <v>       0.12193171      -0.07039731       0.00000000 </v>
    <v>       0.12193171       0.07039731       0.00000000 </v>
    <v>       0.00000000       0.00000000       0.19029531 </v>
   </varray>
  </crystal>
  <varray name="positions" >
   <v>       0.00847736       0.64712623       0.21326215 </v>
   <v>       0.63864887       0.99152264       0.21326215 </v>
   <v>       0.91417805       0.32157747       0.99187268 </v>
   <v>       0.64712623       0.00847736       0.71326215 </v>
   <v>       0.08582195       0.40739942       0.49187268 </v>
   <v>       0.32157747       0.91417805       0.49187268 </v>
   <v>       0.35287377       0.36135113       0.21326215 </v>
   <v>       0.59260058       0.67842253       0.49187268 </v>
   <v>       0.99152264       0.63864887       0.71326215 </v>
   <v>       0.36135113       0.35287377       0.71326215 </v>
   <v>       0.67842253       0.59260058       0.99187268 </v>
   <v>       0.40739942       0.08582195       0.99187268 </v>
   <v>       0.21311138       0.30040483       0.46674092 </v>
   <v>       0.08729345       0.78688862       0.46674092 </v>
   <v>       0.30040483       0.21311138       0.96674092 </v>
   <v>       0.69959517       0.91270655       0.46674092 </v>
   <v>       0.00000000       0.00000000       0.95692726 </v>
   <v>       0.06686359       0.48449764       0.78259872 </v>
   <v>       0.00000000       0.00000000       0.45692726 </v>
   <v>       0.66666667       0.33333333       0.47577702 </v>
   <v>       0.58236595       0.51550236       0.28259872 </v>
   <v>       0.78688862       0.08729345       0.96674092 </v>
   <v>       0.91270655       0.69959517       0.96674092 </v>
   <v>       0.33333333       0.66666667       0.97577702 </v>
   <v>       0.93313641       0.41763405       0.28259872 </v>
   <v>       0.41763405       0.93313641       0.78259872 </v>
   <v>       0.51550236       0.58236595       0.78259872 </v>
   <v>       0.48449764       0.06686359       0.28259872 </v>
  </varray>
 </structure>
 <calculation>
  <scstep>
   <time name="dav">    6.56    6.56</time>
   <time name="total">    6.61    6.61</time>
   <energy>
    <i name="alphaZ">    159.29910815 </i>
    <i name="ewald">  -4417.74007683 </i>
    <i name="hartreedc">  -1015.86609696 </i>
    <i name="XCdc">    107.56232752 </i>
    <i name="pawpsdc">   3869.17357318 </i>
    <i name="pawaedc">  -3601.97287308 </i>
    <i name="eentropy">      0.00071219 </i>
    <i name="bandstr">    567.12547484 </i>
    <i name="atom">   4822.75196862 </i>
    <i name="e_fr_energy">    490.33411763 </i>
    <i name="e_wo_entrp">    490.33340543 </i>
    <i name="e_0_energy">    490.33393958 </i>
   </energy>
  </scstep>
  <scstep>
   <time name="dav">    7.57    7.57</time>
   <time name="total">    7.57    7.57</time>
   <energy>
    <i name="e_fr_energy">   -176.60131905 </i>
    <i name="e_wo_entrp">   -176.60093448 </i>
    <i name="e_0_energy">   -176.60122291 </i>
   </energy>
  </scstep>
  <scstep>
   <time name="dav">    8.81    8.81</time>
   <time name="total">    8.81    8.81</time>
   <energy>
    <i name="e_fr_energy">   -224.09324351 </i>
    <i name="e_wo_entrp">   -224.07860086 </i>
    <i name="e_0_energy">   -224.08958285 </i>
   </energy>
  </scstep>
  <scstep>
   <time name="dav">    7.87    7.87</time>
   <time name="total">    7.87    7.87</time>
   <energy>
    <i name="e_fr_energy">   -225.00774820 </i>
    <i name="e_wo_entrp">   -224.99086737 </i>
    <i name="e_0_energy">   -225.00352799 </i>
   </energy>
  </scstep>
  <scstep>
   <time name="dav">    7.56    7.57</time>
   <time name="total">    7.89    7.89</time>
   <energy>
    <i name="e_fr_energy">   -225.02639583 </i>
    <i name="e_wo_entrp">   -225.00948502 </i>
    <i name="e_0_energy">   -225.02216813 </i>
   </energy>
  </scstep>
  <scstep>
   <time name="diag">    0.95    0.95</time>
   <time name="diis">    4.36    4.36</time>
   <time name="orth">    0.09    0.09</time>
   <time name="total">    5.79    5.79</time>
   <energy>
    <i name="e_fr_energy">   -197.45276644 </i>
    <i name="e_wo_entrp">   -197.44947124 </i>
    <i name="e_0_energy">   -197.45194264 </i>
   </energy>
  </scstep>
  <scstep>
   <time name="diag">    0.97    0.97</time>
   <time name="diis">    4.35    4.35</time>
   <time name="orth">    0.10    0.10</time>
   <time name="total">    5.81    5.81</time>
   <energy>
    <i name="e_fr_energy">   -196.61440627 </i>
    <i name="e_wo_entrp">   -196.61153525 </i>
    <i name="e_0_energy">   -196.61368852 </i>
   </energy>
  </scstep>
  <scstep>
   <time name="diag">    0.96    0.96</time>
   <time name="diis">    4.40    4.40</time>
   <time name="orth">    0.09    0.09</time>
   <time name="total">    5.83    5.83</time>
   <energy>
    <i name="e_fr_energy">   -196.39952182 </i>
    <i name="e_wo_entrp">   -196.39589283 </i>
    <i name="e_0_energy">   -196.39861458 </i>
   </energy>
  </scstep>
  <scstep>
   <time name="diag">    0.96    0.96</time>
   <time name="diis">    4.40    4.40</time>
   <time name="orth">    0.10    0.10</time>
   <time name="total">    5.84    5.84</time>
   <energy>
    <i name="e_fr_energy">   -196.36773270 </i>
    <i name="e_wo_entrp">   -196.36445068 </i>
    <i name="e_0_energy">   -196.36691219 </i>
   </energy>
  </scstep>
  <scstep>
   <time name="diag">    0.97    0.97</time>
   <time name="diis">    4.36    4.36</time>
   <time name="orth">    0.09    0.09</time>
   <time name="total">    5.79    5.79</time>
   <energy>
    <i name="e_fr_energy">   -196.36934550 </i>
    <i name="e_wo_entrp">   -196.36616220 </i>
    <i name="e_0_energy">   -196.36854968 </i>
   </energy>
  </scstep>
  <scstep>
   <time name="diag">    0.92    0.92</time>
   <time name="diis">    4.02    4.02</time>
   <time name="orth">    0.09    0.09</time>
   <time name="total">    5.40    5.40</time>
   <energy>
    <i name="e_fr_energy">   -196.36816338 </i>
    <i name="e_wo_entrp">   -196.36491149 </i>
    <i name="e_0_energy">   -196.36735041 </i>
   </energy>
  </scstep>
  <scstep>
   <time name="diag">    0.92    0.92</time>
   <time name="diis">    3.74    3.74</time>
   <time name="orth">    0.09    0.09</time>
   <time name="total">    5.13    5.13</time>
   <energy>
    <i name="e_fr_energy">   -196.36840757 </i>
    <i name="e_wo_entrp">   -196.36512604 </i>
    <i name="e_0_energy">   -196.36758719 </i>
   </energy>
  </scstep>
  <scstep>
   <time name="diag">    0.95    0.95</time>
   <time name="diis">    2.96    2.96</time>
   <time name="orth">    0.09    0.09</time>
   <time name="total">    4.03    4.04</time>
   <energy>
    <i name="alphaZ">    159.29910815 </i>
    <i name="ewald">  -4417.74007683 </i>
    <i name="hartreedc">  -1254.54762581 </i>
    <i name="XCdc">    127.00244960 </i>
    <i name="pawpsdc">  23701.12280450 </i>
    <i name="pawaedc"> -23440.50940482 </i>
    <i name="eentropy">     -0.00326120 </i>
    <i name="bandstr">    106.25572648 </i>
    <i name="atom">   4822.75196862 </i>
    <i name="e_fr_energy">   -196.36831130 </i>
    <i name="e_wo_entrp">   -196.36505010 </i>
    <i name="e_0_energy">   -196.36749600 </i>
   </energy>
  </scstep>
  <structure>
   <crystal>
    <varray name="basis" >
     <v>       4.10065589      -7.10254435       0.00000000 </v>
     <v>       4.10065589       7.10254435       0.00000000 </v>
     <v>       0.00000000       0.00000000       5.25499039 </v>
    </varray>
    <i name="volume">    306.10414013 </i>
    <varray name="rec_basis" >
     <v>       0.12193171      -0.07039731       0.00000000 </v>
     <v>       0.12193171       0.07039731       0.00000000 </v>
     <v>       0.00000000       0.00000000       0.19029531 </v>
    </varray>
   </crystal>
   <varray name="positions" >
    <v>       0.00847736       0.64712623       0.21326215 </v>
    <v>       0.63864887       0.99152264       0.21326215 </v>
    <v>       0.91417805       0.32157747       0.99187268 </v>
    <v>       0.64712623       0.00847736       0.71326215 </v>
    <v>       0.08582195       0.40739942       0.49187268 </v>
    <v>       0.32157747       0.91417805       0.49187268 </v>
    <v>       0.35287377       0.36135113       0.21326215 </v>
    <v>       0.59260058       0.67842253       0.49187268 </v>
    <v>       0.99152264       0.63864887       0.71326215 </v>
    <v>       0.36135113       0.35287377       0.71326215 </v>
    <v>       0.67842253       0.59260058       0.99187268 </v>
    <v>       0.40739942       0.08582195       0.99187268 </v>
    <v>       0.21311138       0.30040483       0.46674092 </v>
    <v>       0.08729345       0.78688862       0.46674092 </v>
    <v>       0.30040483       0.21311138       0.96674092 </v>
    <v>       0.69959517       0.91270655       0.46674092 </v>
    <v>       0.00000000       0.00000000       0.95692726 </v>
    <v>       0.06686359       0.48449764       0.78259872 </v>
    <v>       0.00000000       0.00000000       0.45692726 </v>
    <v>       0.66666667       0.33333333       0.47577702 </v>
    <v>       0.58236595       0.51550236       0.28259872 </v>
    <v>       0.78688862       0.08729345       0.96674092 </v>
    <v>       0.91270655       0.69959517       0.96674092 </v>
    <v>       0.33333333       0.66666667       0.97577702 </v>
    <v>       0.93313641       0.41763405       0.28259872 </v>
    <v>       0.41763405       0.93313641       0.78259872 </v>
    <v>       0.51550236       0.58236595       0.78259872 </v>
    <v>       0.48449764       0.06686359       0.28259872 </v>
   </varray>
  </structure>
  <varray name="forces" >
   <v>       0.34648532      -0.40559661      -0.43735599 </v>
   <v>      -0.52449963      -0.09726678      -0.43735599 </v>
   <v>      -0.18308353       0.22305702      -0.30769954 </v>
   <v>       0.34648532       0.40559661      -0.43735599 </v>
   <v>       0.28471481      -0.04702648      -0.30769954 </v>
   <v>      -0.18308353      -0.22305702      -0.30769954 </v>
   <v>       0.17801431       0.50286339      -0.43735599 </v>
   <v>      -0.10163128       0.27008350      -0.30769954 </v>
   <v>      -0.52449963       0.09726678      -0.43735599 </v>
   <v>       0.17801431      -0.50286339      -0.43735599 </v>
   <v>      -0.10163128      -0.27008350      -0.30769954 </v>
   <v>       0.28471481       0.04702648      -0.30769954 </v>
   <v>      -0.77889705      -0.22834694      -0.02512659 </v>
   <v>       0.19169427       0.78871810      -0.02512659 </v>
   <v>      -0.77889705       0.22834694      -0.02512659 </v>
   <v>       0.58720278      -0.56037116      -0.02512659 </v>
   <v>       0.00000000      -0.00000000      -0.06908949 </v>
   <v>       0.23564559      -0.48070528       0.34825399 </v>
   <v>       0.00000000      -0.00000000      -0.06908949 </v>
   <v>       0.00000000      -0.00000000       1.33487391 </v>
   <v>       0.29848018      -0.44442771       0.34825399 </v>
   <v>       0.19169427      -0.78871810      -0.02512659 </v>
   <v>       0.58720278       0.56037116      -0.02512659 </v>
   <v>       0.00000000      -0.00000000       1.33487391 </v>
   <v>      -0.53412578      -0.03627757       0.34825399 </v>
   <v>      -0.53412578       0.03627757       0.34825399 </v>
   <v>       0.29848018       0.44442771       0.34825399 </v>
   <v>       0.23564559       0.48070528       0.34825399 </v>
  </varray>
  <varray name="stress" >
   <v>     358.80832104       0.00000000       0.00000000 </v>
   <v>       0.00000000     358.80832104       0.00000000 </v>
   <v>       0.00000000       0.00000000     340.03214132 </v>
  </varray>
  <energy>
   <i name="e_fr_energy">   -196.36831130 </i>
   <i name="e_wo_entrp">   -196.36749600 </i>
   <i name="e_0_energy">     -0.00326120 </i>
  </energy>
  <time name="totalsc">   92.29   92.33</time>
 </calculation>
 <calculation>
  <scstep>
   <time name="dav">    7.25    7.25</time>
   <time name="total">    7.63    7.63</time>
   <energy>
    <i name="alphaZ">    159.29910815 </i>
    <i name="ewald">  -4458.99515536 </i>
    <i name="hartreedc">  -1228.68996278 </i>
    <i name="XCdc">    126.29814295 </i>
    <i name="pawpsdc">  23697.48747741 </i>
    <i name="pawaedc"> -23436.87437290 </i>
    <i name="eentropy">     -0.00452550 </i>
    <i name="bandstr">    122.08311762 </i>
    <i name="atom">   4822.75196862 </i>
    <i name="e_fr_energy">   -196.64420179 </i>
    <i name="e_wo_entrp">   -196.63967629 </i>
    <i name="e_0_energy">   -196.64307042 </i>
   </energy>
  </scstep>
  <scstep>
   <time name="diag">    0.97    0.97</time>
   <time name="diis">    4.36    4.36</time>
   <time name="orth">    0.09    0.09</time>
   <time name="total">    5.80    5.80</time>
   <energy>
    <i name="e_fr_energy">   -196.68699537 </i>
    <i name="e_wo_entrp">   -196.68263610 </i>
    <i name="e_0_energy">   -196.68590555 </i>
   </energy>
  </scstep>
  <scstep>
   <time name="diag">    0.96    0.96</time>
   <time name="diis">    4.44    4.44</time>
   <time name="orth">    0.09    0.09</time>
   <time name="total">    5.87    5.87</time>
   <energy>
    <i name="e_fr_energy">   -196.67352800 </i>
    <i name="e_wo_entrp">   -196.66926250 </i>
    <i name="e_0_energy">   -196.67246162 </i>
   </energy>
  </scstep>
  <scstep>
   <time name="diag">    2.03    3.14</time>
   <time name="diis">    4.30    4.30</time>
   <time name="orth">    0.09    0.09</time>
   <time name="total">    7.25    8.89</time>
   <energy>
    <i name="e_fr_energy">   -196.66947226 </i>
    <i name="e_wo_entrp">   -196.66530943 </i>
    <i name="e_0_energy">   -196.66843155 </i>
   </energy>
  </scstep>
  <scstep>
   <time name="diag">    0.93    0.93</time>
   <time name="diis">    4.07    4.07</time>
   <time name="orth">    0.09    0.09</time>
   <time name="total">    5.47    5.47</time>
   <energy>
    <i name="e_fr_energy">   -196.66958684 </i>
    <i name="e_wo_entrp">   -196.66544662 </i>
    <i name="e_0_energy">   -196.66855179 </i>
   </energy>
  </scstep>
  <scstep>
   <time name="diag">    0.92    0.92</time>
   <time name="diis">    2.91    2.91</time>
   <time name="orth">    0.11    0.11</time>
   <time name="total">    3.97    3.97</time>
   <energy>
    <i name="alphaZ">    159.29910815 </i>
    <i name="ewald">  -4458.99515536 </i>
    <i name="hartreedc">  -1224.16790434 </i>
    <i name="XCdc">    125.91295838 </i>
    <i name="pawpsdc">  22827.71928101 </i>
    <i name="pawaedc"> -22566.87867981 </i>
    <i name="eentropy">     -0.00414994 </i>
    <i name="bandstr">    117.69299721 </i>
    <i name="atom">   4822.75196862 </i>
    <i name="e_fr_energy">   -196.66957608 </i>
    <i name="e_wo_entrp">   -196.66542614 </i>
    <i name="e_0_energy">   -196.66853859 </i>
   </energy>
  </scstep>
  <structure>
   <crystal>
    <varray name="basis" >
     <v>       4.10065589      -7.10254435       0.00000000 </v>
     <v>       4.10065589       7.10254435       0.00000000 </v>
     <v>       0.00000000       0.00000000       5.25499039 </v>
    </varray>
    <i name="volume">    306.10414013 </i>
    <varray name="rec_basis" >
     <v>       0.12193171      -0.07039731       0.00000000 </v>
     <v>       0.12193171       0.07039731       0.00000000 </v>
     <v>       0.00000000       0.00000000       0.19029531 </v>
    </varray>
   </crystal>
   <varray name="positions" >
    <v>       0.01189296       0.64778690       0.20924707 </v>
    <v>       0.63589394       0.98810704       0.20924707 </v>
    <v>       0.91234356       0.32125805       0.98904789 </v>
    <v>       0.64778690       0.01189296       0.70924707 </v>
    <v>       0.08765644       0.40891449       0.48904789 </v>
    <v>       0.32125805       0.91234356       0.48904789 </v>
    <v>       0.35221310       0.36410606       0.20924707 </v>
    <v>       0.59108551       0.67874195       0.48904789 </v>
    <v>       0.98810704       0.63589394       0.70924707 </v>
    <v>       0.36410606       0.35221310       0.70924707 </v>
    <v>       0.67874195       0.59108551       0.98904789 </v>
    <v>       0.40891449       0.08765644       0.98904789 </v>
    <v>       0.20930517       0.29504761       0.46651024 </v>
    <v>       0.08574244       0.79069483       0.46651024 </v>
    <v>       0.29504761       0.20930517       0.96651024 </v>
    <v>       0.70495239       0.91425756       0.46651024 </v>
    <v>       0.00000000       0.00000000       0.95629299 </v>
    <v>       0.06988228       0.48425123       0.78579582 </v>
    <v>       0.00000000       0.00000000       0.45629299 </v>
    <v>       0.66666667       0.33333333       0.48803163 </v>
    <v>       0.58563105       0.51574877       0.28579582 </v>
    <v>       0.79069483       0.08574244       0.96651024 </v>
    <v>       0.91425756       0.70495239       0.96651024 </v>
    <v>       0.33333333       0.66666667       0.98803163 </v>
    <v>       0.93011772       0.41436895       0.28579582 </v>
    <v>       0.41436895       0.93011772       0.78579582 </v>
    <v>       0.51574877       0.58563105       0.78579582 </v>
    <v>       0.48425123       0.06988228       0.28579582 </v>
   </varray>
  </structure>
  <varray name="forces" >
   <v>       0.26801776      -0.01162640      -0.00201405 </v>
   <v>      -0.14407764      -0.22629699      -0.00201405 </v>
   <v>      -0.32658869       0.03966565       0.28483013 </v>
   <v>       0.26801776       0.01162640      -0.00201405 </v>
   <v>       0.19764580      -0.26300127       0.28483013 </v>
   <v>      -0.32658869      -0.03966565       0.28483013 </v>
   <v>      -0.12394012       0.23792339      -0.00201405 </v>
   <v>       0.12894288       0.30266692       0.28483013 </v>
   <v>      -0.14407764       0.22629699      -0.00201405 </v>
   <v>      -0.12394012      -0.23792339      -0.00201405 </v>
   <v>       0.12894288      -0.30266692       0.28483013 </v>
   <v>       0.19764580       0.26300127       0.28483013 </v>
   <v>       0.97073579      -0.08517116      -0.30577735 </v>
   <v>      -0.55912829      -0.79809627      -0.30577735 </v>
   <v>       0.97073579       0.08517116      -0.30577735 </v>
   <v>      -0.41160750       0.88326743      -0.30577735 </v>
   <v>       0.00000000      -0.00000000      -0.12710660 </v>
   <v>       0.42626636       0.14446164      -0.28610244 </v>
   <v>       0.00000000      -0.00000000      -0.12710660 </v>
   <v>       0.00000000      -0.00000000       1.05429771 </v>
   <v>      -0.33824063      -0.29692668      -0.28610244 </v>
   <v>      -0.55912829       0.79809627      -0.30577735 </v>
   <v>      -0.41160750      -0.88326743      -0.30577735 </v>
   <v>       0.00000000      -0.00000000       1.05429771 </v>
   <v>      -0.08802573       0.44138831      -0.28610244 </v>
   <v>      -0.08802573      -0.44138831      -0.28610244 </v>
   <v>      -0.33824063       0.29692668      -0.28610244 </v>
   <v>       0.42626636      -0.14446164      -0.28610244 </v>
  </varray>
  <varray name="stress" >
   <v>     338.12820007       0.00000000       0.00000000 </v>
   <v>       0.00000000     338.12820007       0.00000000 </v>
   <v>       0.00000000       0.00000000     287.98918728 </v>
  </varray>
  <energy>
   <i name="e_fr_energy">   -196.66957608 </i>
   <i name="e_wo_entrp">   -196.66853859 </i>
   <i name="e_0_energy">     -0.00414994 </i>
  </energy>
  <time name="totalsc">   45.92   47.56</time>
 </calculation>
 <calculation>
  <scstep>
   <time name="dav">   23.94   23.94</time>
   <time name="total">   24.31   24.32</time>
   <energy>
    <i name="alphaZ">    159.29910815 </i>
    <i name="ewald">  -4455.07687367 </i>
    <i name="hartreedc">  -1226.61027017 </i>
    <i name="XCdc">    125.98025186 </i>
    <i name="pawpsdc">  22827.31314132 </i>
    <i name="pawaedc"> -22566.47260458 </i>
    <i name="eentropy">     -0.00414912 </i>
    <i name="bandstr">    116.14678856 </i>
    <i name="atom">   4822.75196862 </i>
    <i name="e_fr_energy">   -196.67263903 </i>
    <i name="e_wo_entrp">   -196.66848991 </i>
    <i name="e_0_energy">   -196.67160175 </i>
   </energy>
  </scstep>
  <scstep>
   <time name="diag">    0.92    0.92</time>
   <time name="diis">    4.01    4.01</time>
   <time name="orth">    0.09    0.09</time>
   <time name="total">    5.40    5.40</time>
   <energy>
    <i name="e_fr_energy">   -196.67304277 </i>
    <i name="e_wo_entrp">   -196.66888194 </i>
    <i name="e_0_energy">   -196.67200256 </i>
   </energy>
  </scstep>
  <scstep>
   <time name="diag">    0.91    0.91</time>
   <time name="diis">    3.75    3.75</time>
   <time name="orth">    0.09    0.09</time>
   <time name="total">    5.13    5.13</time>
   <energy>
    <i name="e_fr_energy">   -196.67289269 </i>
    <i name="e_wo_entrp">   -196.66872710 </i>
    <i name="e_0_energy">   -196.67185129 </i>
   </energy>
  </scstep>
  <scstep>
   <time name="diag">    0.91    0.91</time>
   <time name="diis">    2.43    2.43</time>
   <time name="orth">    0.09    0.09</time>
   <time name="total">    3.48    3.48</time>
   <energy>
    <i name="alphaZ">    159.29910815 </i>
    <i name="ewald">  -4455.07687367 </i>
    <i name="hartreedc">  -1227.10979027 </i>
    <i name="XCdc">    126.02088713 </i>
    <i name="pawpsdc">  22893.62603820 </i>
    <i name="pawaedc"> -22632.80552422 </i>
    <i name="eentropy">     -0.00417279 </i>
    <i name="bandstr">    116.62549271 </i>
    <i name="atom">   4822.75196862 </i>
    <i name="e_fr_energy">   -196.67286615 </i>
    <i name="e_wo_entrp">   -196.66869336 </i>
    <i name="e_0_energy">   -196.67182295 </i>
   </energy>
  </scstep>
  <structure>
   <crystal>
    <varray name="basis" >
     <v>       4.10065589      -7.10254435       0.00000000 </v>
     <v>       4.10065589       7.10254435       0.00000000 </v>
     <v>       0.00000000       0.00000000       5.25499039 </v>
    </varray>
    <i name="volume">    306.10414013 </i>
    <varray name="rec_basis" >
     <v>       0.12193171      -0.07039731       0.00000000 </v>
     <v>       0.12193171       0.07039731       0.00000000 </v>
     <v>       0.00000000       0.00000000       0.19029531 </v>
    </varray>
   </crystal>
   <varray name="positions" >
    <v>       0.01156875       0.64772419       0.20962819 </v>
    <v>       0.63615544       0.98843125       0.20962819 </v>
    <v>       0.91251770       0.32128837       0.98931602 </v>
    <v>       0.64772419       0.01156875       0.70962819 </v>
    <v>       0.08748230       0.40877068       0.48931602 </v>
    <v>       0.32128837       0.91251770       0.48931602 </v>
    <v>       0.35227581       0.36384456       0.20962819 </v>
    <v>       0.59122932       0.67871163       0.48931602 </v>
    <v>       0.98843125       0.63615544       0.70962819 </v>
    <v>       0.36384456       0.35227581       0.70962819 </v>
    <v>       0.67871163       0.59122932       0.98931602 </v>
    <v>       0.40877068       0.08748230       0.98931602 </v>
    <v>       0.20966646       0.29555613       0.46653214 </v>
    <v>       0.08588967       0.79033354       0.46653214 </v>
    <v>       0.29555613       0.20966646       0.96653214 </v>
    <v>       0.70444387       0.91411033       0.46653214 </v>
    <v>       0.00000000       0.00000000       0.95635320 </v>
    <v>       0.06959574       0.48427462       0.78549235 </v>
    <v>       0.00000000       0.00000000       0.45635320 </v>
    <v>       0.66666667       0.33333333       0.48686840 </v>
    <v>       0.58532113       0.51572538       0.28549235 </v>
    <v>       0.79033354       0.08588967       0.96653214 </v>
    <v>       0.91411033       0.70444387       0.96653214 </v>
    <v>       0.33333333       0.66666667       0.98686840 </v>
    <v>       0.93040426       0.41467887       0.28549235 </v>
    <v>       0.41467887       0.93040426       0.78549235 </v>
    <v>       0.51572538       0.58532113       0.78549235 </v>
    <v>       0.48427462       0.06959574       0.28549235 </v>
   </varray>
  </structure>
  <varray name="forces" >
   <v>       0.27631997      -0.05188793      -0.04289985 </v>
   <v>      -0.18309625      -0.21335615      -0.04289985 </v>
   <v>      -0.31305289       0.05785633       0.23275985 </v>
   <v>       0.27631997       0.05188793      -0.04289985 </v>
   <v>       0.20663149      -0.24218359       0.23275985 </v>
   <v>      -0.31305289      -0.05785633       0.23275985 </v>
   <v>      -0.09322372       0.26524408      -0.04289985 </v>
   <v>       0.10642139       0.30003992       0.23275985 </v>
   <v>      -0.18309625       0.21335615      -0.04289985 </v>
   <v>      -0.09322372      -0.26524408      -0.04289985 </v>
   <v>       0.10642139      -0.30003992       0.23275985 </v>
   <v>       0.20663149       0.24218359       0.23275985 </v>
   <v>       0.79945689      -0.10478088      -0.28070412 </v>
   <v>      -0.49047134      -0.63995953      -0.28070412 </v>
   <v>       0.79945689       0.10478088      -0.28070412 </v>
   <v>      -0.30898554       0.74474041      -0.28070412 </v>
   <v>      -0.00000000       0.00000000      -0.12157233 </v>
   <v>       0.40979663       0.08806755      -0.22870082 </v>
   <v>      -0.00000000       0.00000000      -0.12157233 </v>
   <v>      -0.00000000       0.00000000       1.08020716 </v>
   <v>      -0.28116705      -0.31086052      -0.22870082 </v>
   <v>      -0.49047134       0.63995953      -0.28070412 </v>
   <v>      -0.30898554      -0.74474041      -0.28070412 </v>
   <v>      -0.00000000       0.00000000       1.08020716 </v>
   <v>      -0.12862958       0.39892806      -0.22870082 </v>
   <v>      -0.12862958      -0.39892806      -0.22870082 </v>
   <v>      -0.28116705       0.31086052      -0.22870082 </v>
   <v>       0.40979663      -0.08806755      -0.22870082 </v>
  </varray>
  <varray name="stress" >
   <v>     339.88854120       0.00000000       0.00000000 </v>
   <v>       0.00000000     339.88854120       0.00000000 </v>
   <v>       0.00000000       0.00000000     292.83039719 </v>
  </varray>
  <energy>
   <i name="e_fr_energy">   -196.67286615 </i>
   <i name="e_wo_entrp">   -196.67182295 </i>
   <i name="e_0_energy">     -0.00417279 </i>
  </energy>
  <time name="totalsc">   47.61   47.62</time>
 </calculation>
 <calculation>
  <scstep>
   <time name="dav">    6.38    6.38</time>
   <time name="total">    6.79    6.79</time>
   <energy>
    <i name="alphaZ">    159.29910815 </i>
    <i name="ewald">  -4471.11186999 </i>
    <i name="hartreedc">  -1218.56535213 </i>
    <i name="XCdc">    125.63345050 </i>
    <i name="pawpsdc">  22906.23916330 </i>
    <i name="pawaedc"> -22645.42034079 </i>
    <i name="eentropy">     -0.00462238 </i>
    <i name="bandstr">    124.30907079 </i>
    <i name="atom">   4822.75196862 </i>
    <i name="e_fr_energy">   -196.86942393 </i>
    <i name="e_wo_entrp">   -196.86480155 </i>
    <i name="e_0_energy">   -196.86826833 </i>
   </energy>
  </scstep>
  <scstep>
   <time name="diag">    0.96    0.96</time>
   <time name="diis">    3.96    3.96</time>
   <time name="orth">    0.09    0.09</time>
   <time name="total">    5.39    5.39</time>
   <energy>
    <i name="e_fr_energy">   -196.92000899 </i>
    <i name="e_wo_entrp">   -196.91548147 </i>
    <i name="e_0_energy">   -196.91887711 </i>
   </energy>
  </scstep>
  <scstep>
   <time name="diag">    0.92    0.92</time>
   <time name="diis">    3.96    3.96</time>
   <time name="orth">    0.09    0.09</time>
   <time name="total">    5.34    5.34</time>
   <energy>
    <i name="e_fr_energy">   -196.90845083 </i>
    <i name="e_wo_entrp">   -196.90395205 </i>
    <i name="e_0_energy">   -196.90732613 </i>
   </energy>
  </scstep>
  <scstep>
   <time name="diag">    0.92    0.92</time>
   <time name="diis">    4.00    4.01</time>
   <time name="orth">    0.11    0.11</time>
   <time name="total">    5.80    6.23</time>
   <energy>
    <i name="e_fr_energy">   -196.90452445 </i>
    <i name="e_wo_entrp">   -196.90008743 </i>
    <i name="e_0_energy">   -196.90341520 </i>
   </energy>
  </scstep>
  <scstep>
   <time name="diag">    0.92    0.92</time>
   <time name="diis">    4.12    4.12</time>
   <time name="orth">    0.09    0.09</time>
   <time name="total">    5.17    5.19</time>
   <energy>
    <i name="alphaZ">    159.29910815 </i>
    <i name="ewald">  -4471.11186999 </i>
    <i name="hartreedc">  -1216.08946208 </i>
    <i name="XCdc">    125.43332452 </i>
    <i name="pawpsdc">  22446.22253762 </i>
    <i name="pawaedc"> -22185.23722668 </i>
    <i name="eentropy">     -0.00442163 </i>
    <i name="bandstr">    121.83156148 </i>
    <i name="atom">   4822.75196862 </i>
    <i name="e_fr_energy">   -196.90448001 </i>
    <i name="e_wo_entrp">   -196.90005837 </i>
    <i name="e_0_energy">   -196.90337460 </i>
   </energy>
  </scstep>
  <structure>
   <crystal>
    <varray name="basis" >
     <v>       4.10065589      -7.10254435       0.00000000 </v>
     <v>       4.10065589       7.10254435       0.00000000 </v>
     <v>       0.00000000       0.00000000       5.25499039 </v>
    </varray>
    <i name="volume">    306.10414013 </i>
    <varray name="rec_basis" >
     <v>       0.12193171      -0.07039731       0.00000000 </v>
     <v>       0.12193171       0.07039731       0.00000000 </v>
     <v>       0.00000000       0.00000000       0.19029531 </v>
    </varray>
   </crystal>
   <varray name="positions" >
    <v>       0.01508753       0.64934012       0.20695676 </v>
    <v>       0.63425259       0.98491247       0.20695676 </v>
    <v>       0.90971828       0.31970466       0.98948775 </v>
    <v>       0.64934012       0.01508753       0.70695676 </v>
    <v>       0.09028172       0.40998637       0.48948775 </v>
    <v>       0.31970466       0.90971828       0.48948775 </v>
    <v>       0.35065988       0.36574741       0.20695676 </v>
    <v>       0.59001363       0.68029534       0.48948775 </v>
    <v>       0.98491247       0.63425259       0.70695676 </v>
    <v>       0.36574741       0.35065988       0.70695676 </v>
    <v>       0.68029534       0.59001363       0.98948775 </v>
    <v>       0.40998637       0.09028172       0.98948775 </v>
    <v>       0.21174969       0.29613191       0.46420813 </v>
    <v>       0.08438222       0.78825031       0.46420813 </v>
    <v>       0.29613191       0.21174969       0.96420813 </v>
    <v>       0.70386809       0.91561778       0.46420813 </v>
    <v>       0.00000000      -0.00000000       0.95503568 </v>
    <v>       0.07314681       0.48643371       0.78556896 </v>
    <v>       0.00000000      -0.00000000       0.45503568 </v>
    <v>       0.66666667       0.33333333       0.50242717 </v>
    <v>       0.58671310       0.51356629       0.28556896 </v>
    <v>       0.78825031       0.08438222       0.96420813 </v>
    <v>       0.91561778       0.70386809       0.96420813 </v>
    <v>       0.33333333       0.66666667       0.00242717 </v>
    <v>       0.92685319       0.41328690       0.28556896 </v>
    <v>       0.41328690       0.92685319       0.78556896 </v>
    <v>       0.51356629       0.58671310       0.78556896 </v>
    <v>       0.48643371       0.07314681       0.28556896 </v>
   </varray>
  </structure>
  <varray name="forces" >
   <v>      -0.34291234      -0.34811534      -0.22234201 </v>
   <v>      -0.13002056       0.47102846      -0.22234201 </v>
   <v>       0.26612706       0.14520713      -0.00467401 </v>
   <v>      -0.34291234       0.34811534      -0.22234201 </v>
   <v>      -0.00731046       0.30307636      -0.00467401 </v>
   <v>       0.26612706      -0.14520713      -0.00467401 </v>
   <v>       0.47293289      -0.12291312      -0.22234201 </v>
   <v>      -0.25881659      -0.15786923      -0.00467401 </v>
   <v>      -0.13002056      -0.47102846      -0.22234201 </v>
   <v>       0.47293289       0.12291312      -0.22234201 </v>
   <v>      -0.25881659       0.15786923      -0.00467401 </v>
   <v>      -0.00731046      -0.30307636      -0.00467401 </v>
   <v>       0.36353958       0.11819122      -0.01433020 </v>
   <v>      -0.07941319      -0.37393012      -0.01433020 </v>
   <v>       0.36353958      -0.11819122      -0.01433020 </v>
   <v>      -0.28412639       0.25573891      -0.01433020 </v>
   <v>       0.00000000       0.00000000      -0.12056937 </v>
   <v>      -0.03221604       0.19627622       0.10036498 </v>
   <v>       0.00000000       0.00000000      -0.12056937 </v>
   <v>       0.00000000       0.00000000       0.54351308 </v>
   <v>      -0.15387217       0.12603802       0.10036498 </v>
   <v>      -0.07941319       0.37393012      -0.01433020 </v>
   <v>      -0.28412639      -0.25573891      -0.01433020 </v>
   <v>       0.00000000       0.00000000       0.54351308 </v>
   <v>       0.18608821       0.07023820       0.10036498 </v>
   <v>       0.18608821      -0.07023820       0.10036498 </v>
   <v>      -0.15387217      -0.12603802       0.10036498 </v>
   <v>      -0.03221604      -0.19627622       0.10036498 </v>
  </varray>
  <varray name="stress" >
   <v>     315.05218408       0.00000000       0.00000000 </v>
   <v>       0.00000000     315.05218408       0.00000000 </v>
   <v>       0.00000000       0.00000000     281.57276302 </v>
  </varray>
  <energy>
   <i name="e_fr_energy">   -196.90448001 </i>
   <i name="e_wo_entrp">   -196.90337460 </i>
   <i name="e_0_energy">     -0.00442163 </i>
  </energy>
  <time name="totalsc">   38.50   38.97</time>
 </calculation>
 <calculation>
  <scstep>
   <time name="dav">    7.05    7.06</time>
   <time name="total">    7.43    7.44</time>
   <energy>
    <i name="alphaZ">    159.29910815 </i>
    <i name="ewald">  -4474.80432105 </i>
    <i name="hartreedc">  -1214.20737759 </i>
    <i name="XCdc">    125.34039895 </i>
    <i name="pawpsdc">  22421.83466012 </i>
    <i name="pawaedc"> -22160.84511059 </i>
    <i name="eentropy">     -0.00446741 </i>
    <i name="bandstr">    123.72376647 </i>
    <i name="atom">   4822.75196862 </i>
    <i name="e_fr_energy">   -196.91137433 </i>
    <i name="e_wo_entrp">   -196.90690692 </i>
    <i name="e_0_energy">   -196.91025748 </i>
   </energy>
  </scstep>
  <scstep>
   <time name="diag">    0.94    0.94</time>
   <time name="diis">    4.36    4.36</time>
   <time name="orth">    0.10    0.10</time>
   <time name="total">    5.79    5.79</time>
   <energy>
    <i name="e_fr_energy">   -196.91423339 </i>
    <i name="e_wo_entrp">   -196.90979334 </i>
    <i name="e_0_energy">   -196.91312338 </i>
   </energy>
  </scstep>
  <scstep>
   <time name="diag">    0.96    0.96</time>
   <time name="diis">    4.53    4.53</time>
   <time name="orth">    0.10    0.10</time>
   <time name="total">    5.96    5.96</time>
   <energy>
    <i name="e_fr_energy">   -196.91359905 </i>
    <i name="e_wo_entrp">   -196.90916309 </i>
    <i name="e_0_energy">   -196.91249006 </i>
   </energy>
  </scstep>
  <scstep>
   <time name="diag">    0.97    0.97</time>
   <time name="diis">    4.13    4.13</time>
   <time name="orth">    0.10    0.10</time>
   <time name="total">    5.58    5.58</time>
   <energy>
    <i name="e_fr_energy">   -196.91343409 </i>
    <i name="e_wo_entrp">   -196.90901108 </i>
    <i name="e_0_energy">   -196.91232834 </i>
   </energy>
  </scstep>
  <scstep>
   <time name="diag">    0.96    0.96</time>
   <time name="diis">    2.88    2.88</time>
   <time name="orth">    0.09    0.09</time>
   <time name="total">    3.98    3.98</time>
   <energy>
    <i name="alphaZ">    159.29910815 </i>
    <i name="ewald">  -4474.80432105 </i>
    <i name="hartreedc">  -1213.60894145 </i>
    <i name="XCdc">    125.28992028 </i>
    <i name="pawpsdc">  22304.37754801 </i>
    <i name="pawaedc"> -22043.34674146 </i>
    <i name="eentropy">     -0.00441906 </i>
    <i name="bandstr">    123.13244715 </i>
    <i name="atom">   4822.75196862 </i>
    <i name="e_fr_energy">   -196.91343081 </i>
    <i name="e_wo_entrp">   -196.90901175 </i>
    <i name="e_0_energy">   -196.91232605 </i>
   </energy>
  </scstep>
  <structure>
   <crystal>
    <varray name="basis" >
     <v>       4.10065589      -7.10254435       0.00000000 </v>
     <v>       4.10065589       7.10254435       0.00000000 </v>
     <v>       0.00000000       0.00000000       5.25499039 </v>
    </varray>
    <i name="volume">    306.10414013 </i>
    <varray name="rec_basis" >
     <v>       0.12193171      -0.07039731       0.00000000 </v>
     <v>       0.12193171       0.07039731       0.00000000 </v>
     <v>       0.00000000       0.00000000       0.19029531 </v>
    </varray>
   </crystal>
   <varray name="positions" >
    <v>       0.01592954       0.64972680       0.20631752 </v>
    <v>       0.63379726       0.98407046       0.20631752 </v>
    <v>       0.90904841       0.31932569       0.98952884 </v>
    <v>       0.64972680       0.01592954       0.70631752 </v>
    <v>       0.09095159       0.41027728       0.48952884 </v>
    <v>       0.31932569       0.90904841       0.48952884 </v>
    <v>       0.35027320       0.36620274       0.20631752 </v>
    <v>       0.58972272       0.68067431       0.48952884 </v>
    <v>       0.98407046       0.63379726       0.70631752 </v>
    <v>       0.36620274       0.35027320       0.70631752 </v>
    <v>       0.68067431       0.58972272       0.98952884 </v>
    <v>       0.41027728       0.09095159       0.98952884 </v>
    <v>       0.21224818       0.29626969       0.46365202 </v>
    <v>       0.08402151       0.78775182       0.46365202 </v>
    <v>       0.29626969       0.21224818       0.96365202 </v>
    <v>       0.70373031       0.91597849       0.46365202 </v>
    <v>       0.00000000      -0.00000000       0.95472041 </v>
    <v>       0.07399654       0.48695036       0.78558729 </v>
    <v>       0.00000000      -0.00000000       0.45472041 </v>
    <v>       0.66666667       0.33333333       0.50615024 </v>
    <v>       0.58704618       0.51304964       0.28558729 </v>
    <v>       0.78775182       0.08402151       0.96365202 </v>
    <v>       0.91597849       0.70373031       0.96365202 </v>
    <v>       0.33333333       0.66666667       0.00615024 </v>
    <v>       0.92600346       0.41295382       0.28558729 </v>
    <v>       0.41295382       0.92600346       0.78558729 </v>
    <v>       0.51304964       0.58704618       0.78558729 </v>
    <v>       0.48695036       0.07399654       0.28558729 </v>
   </varray>
  </structure>
  <varray name="forces" >
   <v>      -0.48620445      -0.41496845      -0.26943565 </v>
   <v>      -0.11627099       0.62854964      -0.26943565 </v>
   <v>       0.39003065       0.16291686      -0.05044705 </v>
   <v>      -0.48620445       0.41496845      -0.26943565 </v>
   <v>      -0.05392519       0.41923488      -0.05044705 </v>
   <v>       0.39003065      -0.16291686      -0.05044705 </v>
   <v>       0.60247545      -0.21358118      -0.26943565 </v>
   <v>      -0.33610547      -0.25631802      -0.05044705 </v>
   <v>      -0.11627099      -0.62854964      -0.26943565 </v>
   <v>       0.60247545       0.21358118      -0.26943565 </v>
   <v>      -0.33610547       0.25631802      -0.05044705 </v>
   <v>      -0.05392519      -0.41923488      -0.05044705 </v>
   <v>       0.25837978       0.17161883       0.05475069 </v>
   <v>       0.01943638      -0.30957287       0.05475069 </v>
   <v>       0.25837978      -0.17161883       0.05475069 </v>
   <v>      -0.27781616       0.13795404       0.05475069 </v>
   <v>      -0.00000000      -0.00000000      -0.12199095 </v>
   <v>      -0.12487443       0.21996106       0.17117708 </v>
   <v>      -0.00000000      -0.00000000      -0.12199095 </v>
   <v>      -0.00000000      -0.00000000       0.40385575 </v>
   <v>      -0.12805465       0.21812496       0.17117708 </v>
   <v>       0.01943638       0.30957287       0.05475069 </v>
   <v>      -0.27781616      -0.13795404       0.05475069 </v>
   <v>      -0.00000000      -0.00000000       0.40385575 </v>
   <v>       0.25292908       0.00183610       0.17117708 </v>
   <v>       0.25292908      -0.00183610       0.17117708 </v>
   <v>      -0.12805465      -0.21812496       0.17117708 </v>
   <v>      -0.12487443      -0.21996106       0.17117708 </v>
  </varray>
  <varray name="stress" >
   <v>     309.28037622       0.00000000       0.00000000 </v>
   <v>       0.00000000     309.28037622       0.00000000 </v>
   <v>       0.00000000       0.00000000     279.34632754 </v>
  </varray>
  <energy>
   <i name="e_fr_energy">   -196.91343081 </i>
   <i name="e_wo_entrp">   -196.91232605 </i>
   <i name="e_0_energy">     -0.00441906 </i>
  </energy>
  <time name="totalsc">   38.57   38.60</time>
 </calculation>
 <calculation>
  <scstep>
   <time name="dav">    6.30    6.30</time>
   <time name="total">    6.67    6.67</time>
   <energy>
    <i name="alphaZ">    159.29910815 </i>
    <i name="ewald">  -4468.45527180 </i>
    <i name="hartreedc">  -1222.86574814 </i>
    <i name="XCdc">    125.15815500 </i>
    <i name="pawpsdc">  22298.45316417 </i>
    <i name="pawaedc"> -22037.42124041 </i>
    <i name="eentropy">     -0.00441458 </i>
    <i name="bandstr">    126.11353182 </i>
    <i name="atom">   4822.75196862 </i>
    <i name="e_fr_energy">   -196.97074718 </i>
    <i name="e_wo_entrp">   -196.96633259 </i>
    <i name="e_0_energy">   -196.96964353 </i>
   </energy>
  </scstep>
  <scstep>
   <time name="diag">    0.93    0.93</time>
   <time name="diis">    4.27    4.27</time>
   <time name="orth">    0.09    0.09</time>
   <time name="total">    5.66    5.67</time>
   <energy>
    <i name="e_fr_energy">   -197.01673892 </i>
    <i name="e_wo_entrp">   -197.01214898 </i>
    <i name="e_0_energy">   -197.01559144 </i>
   </energy>
  </scstep>
  <scstep>
   <time name="diag">    0.96    0.96</time>
   <time name="diis">    4.48    4.47</time>
   <time name="orth">    0.09    0.09</time>
   <time name="total">    5.92    5.92</time>
   <energy>
    <i name="e_fr_energy">   -197.00466710 </i>
    <i name="e_wo_entrp">   -197.00000599 </i>
    <i name="e_0_energy">   -197.00350182 </i>
   </energy>
  </scstep>
  <scstep>
   <time name="diag">    0.96    0.96</time>
   <time name="diis">    4.30    4.30</time>
   <time name="orth">    0.10    0.10</time>
   <time name="total">    5.73    5.73</time>
   <energy>
    <i name="e_fr_energy">   -197.00182807 </i>
    <i name="e_wo_entrp">   -196.99716439 </i>
    <i name="e_0_energy">   -197.00066215 </i>
   </energy>
  </scstep>
  <scstep>
   <time name="diag">    0.97    0.97</time>
   <time name="diis">    4.27    4.27</time>
   <time name="orth">    0.10    0.10</time>
   <time name="total">    5.38    5.38</time>
   <energy>
    <i name="alphaZ">    159.29910815 </i>
    <i name="ewald">  -4468.45527180 </i>
    <i name="hartreedc">  -1222.49579701 </i>
    <i name="XCdc">    125.04746037 </i>
    <i name="pawpsdc">  21960.58060813 </i>
    <i name="pawaedc"> -21699.42072812 </i>
    <i name="eentropy">     -0.00464433 </i>
    <i name="bandstr">    125.69556663 </i>
    <i name="atom">   4822.75196862 </i>
    <i name="e_fr_energy">   -197.00172935 </i>
    <i name="e_wo_entrp">   -196.99708503 </i>
    <i name="e_0_energy">   -197.00056827 </i>
   </energy>
  </scstep>
  <structure>
   <crystal>
    <varray name="basis" >
     <v>       4.10065589      -7.10254435       0.00000000 </v>
     <v>       4.10065589       7.10254435       0.00000000 </v>
     <v>       0.00000000       0.00000000       5.25499039 </v>
    </varray>
    <i name="volume">    306.10414013 </i>
    <varray name="rec_basis" >
     <v>       0.12193171      -0.07039731       0.00000000 </v>
     <v>       0.12193171       0.07039731       0.00000000 </v>
     <v>       0.00000000       0.00000000       0.19029531 </v>
    </varray>
   </crystal>
   <varray name="positions" >
    <v>       0.01669902       0.64687194       0.20255023 </v>
    <v>       0.63017292       0.98330098       0.20255023 </v>
    <v>       0.90895879       0.32093350       0.98921707 </v>
    <v>       0.64687194       0.01669902       0.70255023 </v>
    <v>       0.09104121       0.41197471       0.48921707 </v>
    <v>       0.32093350       0.90895879       0.48921707 </v>
    <v>       0.35312806       0.36982708       0.20255023 </v>
    <v>       0.58802529       0.67906650       0.48921707 </v>
    <v>       0.98330098       0.63017292       0.70255023 </v>
    <v>       0.36982708       0.35312806       0.70255023 </v>
    <v>       0.67906650       0.58802529       0.98921707 </v>
    <v>       0.41197471       0.09104121       0.98921707 </v>
    <v>       0.21430282       0.29847925       0.46273823 </v>
    <v>       0.08417643       0.78569718       0.46273823 </v>
    <v>       0.29847925       0.21430282       0.96273823 </v>
    <v>       0.70152075       0.91582357       0.46273823 </v>
    <v>       0.00000000      -0.00000000       0.95295146 </v>
    <v>       0.07475745       0.48822620       0.78703142 </v>
    <v>       0.00000000      -0.00000000       0.45295146 </v>
    <v>       0.66666667       0.33333333       0.51856537 </v>
    <v>       0.58653125       0.51177380       0.28703142 </v>
    <v>       0.78569718       0.08417643       0.96273823 </v>
    <v>       0.91582357       0.70152075       0.96273823 </v>
    <v>       0.33333333       0.66666667       0.01856537 </v>
    <v>       0.92524255       0.41346875       0.28703142 </v>
    <v>       0.41346875       0.92524255       0.78703142 </v>
    <v>       0.51177380       0.58653125       0.78703142 </v>
    <v>       0.48822620       0.07475745       0.28703142 </v>
   </varray>
  </structure>
  <varray name="forces" >
   <v>       0.08148473       0.05834076       0.14133304 </v>
   <v>       0.00978222      -0.09973823       0.14133304 </v>
   <v>      -0.17802101      -0.06496729       0.05810256 </v>
   <v>       0.08148473      -0.05834076       0.14133304 </v>
   <v>       0.03274718      -0.18665437       0.05810256 </v>
   <v>      -0.17802101       0.06496729       0.05810256 </v>
   <v>      -0.09126695       0.04139746       0.14133304 </v>
   <v>       0.14527383       0.12168707       0.05810256 </v>
   <v>       0.00978222       0.09973823       0.14133304 </v>
   <v>      -0.09126695      -0.04139746       0.14133304 </v>
   <v>       0.14527383      -0.12168707       0.05810256 </v>
   <v>       0.03274718       0.18665437       0.05810256 </v>
   <v>       0.03980540       0.39104307      -0.28648417 </v>
   <v>       0.31875053      -0.22999402      -0.28648417 </v>
   <v>       0.03980540      -0.39104307      -0.28648417 </v>
   <v>      -0.35855593      -0.16104905      -0.28648417 </v>
   <v>       0.00000000      -0.00000000      -0.12038446 </v>
   <v>       0.08995370      -0.34797978       0.23471841 </v>
   <v>       0.00000000       0.00000000      -0.12038446 </v>
   <v>       0.00000000       0.00000000      -0.32262506 </v>
   <v>       0.25638248      -0.25189208       0.23471841 </v>
   <v>       0.31875053       0.22999402      -0.28648417 </v>
   <v>      -0.35855593       0.16104905      -0.28648417 </v>
   <v>       0.00000000      -0.00000000      -0.32262506 </v>
   <v>      -0.34633618      -0.09608770       0.23471841 </v>
   <v>      -0.34633618       0.09608770       0.23471841 </v>
   <v>       0.25638248       0.25189208       0.23471841 </v>
   <v>       0.08995370       0.34797978       0.23471841 </v>
  </varray>
  <varray name="stress" >
   <v>     299.80310823       0.00000000       0.00000000 </v>
   <v>       0.00000000     299.80310823       0.00000000 </v>
   <v>       0.00000000       0.00000000     260.89300120 </v>
  </varray>
  <energy>
   <i name="e_fr_energy">   -197.00172935 </i>
   <i name="e_wo_entrp">   -197.00056827 </i>
   <i name="e_0_energy">     -0.00464433 </i>
  </energy>
  <time name="totalsc">   39.40   39.41</time>
 </calculation>
 <calculation>
  <scstep>
   <time name="dav">    6.65    6.65</time>
   <time name="total">    7.04    7.05</time>
   <energy>
    <i name="alphaZ">    159.29910815 </i>
    <i name="ewald">  -4469.93805110 </i>
    <i name="hartreedc">  -1220.44387410 </i>
    <i name="XCdc">    125.07048979 </i>
    <i name="pawpsdc">  21946.25608040 </i>
    <i name="pawaedc"> -21685.09290790 </i>
    <i name="eentropy">     -0.00467583 </i>
    <i name="bandstr">    125.09524089 </i>
    <i name="atom">   4822.75196862 </i>
    <i name="e_fr_energy">   -197.00662107 </i>
    <i name="e_wo_entrp">   -197.00194524 </i>
    <i name="e_0_energy">   -197.00545211 </i>
   </energy>
  </scstep>
  <scstep>
   <time name="diag">    0.91    0.91</time>
   <time name="diis">    4.13    4.13</time>
   <time name="orth">    0.09    0.09</time>
   <time name="total">    5.50    5.58</time>
   <energy>
    <i name="e_fr_energy">   -197.00828795 </i>
    <i name="e_wo_entrp">   -197.00363064 </i>
    <i name="e_0_energy">   -197.00712362 </i>
   </energy>
  </scstep>
  <scstep>
   <time name="diag">    0.93    0.93</time>
   <time name="diis">    4.46    4.46</time>
   <time name="orth">    0.09    0.09</time>
   <time name="total">    5.86    5.86</time>
   <energy>
    <i name="e_fr_energy">   -197.00778306 </i>
    <i name="e_wo_entrp">   -197.00314011 </i>
    <i name="e_0_energy">   -197.00662232 </i>
   </energy>
  </scstep>
  <scstep>
   <time name="diag">    0.94    0.94</time>
   <time name="diis">    3.63    3.63</time>
   <time name="orth">    0.09    0.09</time>
   <time name="total">    4.71    4.71</time>
   <energy>
    <i name="alphaZ">    159.29910815 </i>
    <i name="ewald">  -4469.93805110 </i>
    <i name="hartreedc">  -1220.52996040 </i>
    <i name="XCdc">    125.09336017 </i>
    <i name="pawpsdc">  22004.98390542 </i>
    <i name="pawaedc"> -21743.84358080 </i>
    <i name="eentropy">     -0.00464216 </i>
    <i name="bandstr">    125.18020218 </i>
    <i name="atom">   4822.75196862 </i>
    <i name="e_fr_energy">   -197.00768991 </i>
    <i name="e_wo_entrp">   -197.00304775 </i>
    <i name="e_0_energy">   -197.00652937 </i>
   </energy>
  </scstep>
  <structure>
   <crystal>
    <varray name="basis" >
     <v>       4.10065589      -7.10254435       0.00000000 </v>
     <v>       4.10065589       7.10254435       0.00000000 </v>
     <v>       0.00000000       0.00000000       5.25499039 </v>
    </varray>
    <i name="volume">    306.10414013 </i>
    <varray name="rec_basis" >
     <v>       0.12193171      -0.07039731       0.00000000 </v>
     <v>       0.12193171       0.07039731       0.00000000 </v>
     <v>       0.00000000       0.00000000       0.19029531 </v>
    </varray>
   </crystal>
   <varray name="positions" >
    <v>       0.01654467       0.64744459       0.20330590 </v>
    <v>       0.63089992       0.98345533       0.20330590 </v>
    <v>       0.90897677       0.32061099       0.98927961 </v>
    <v>       0.64744459       0.01654467       0.70330590 </v>
    <v>       0.09102323       0.41163423       0.48927961 </v>
    <v>       0.32061099       0.90897677       0.48927961 </v>
    <v>       0.35255541       0.36910008       0.20330590 </v>
    <v>       0.58836577       0.67938901       0.48927961 </v>
    <v>       0.98345533       0.63089992       0.70330590 </v>
    <v>       0.36910008       0.35255541       0.70330590 </v>
    <v>       0.67938901       0.58836577       0.98927961 </v>
    <v>       0.41163423       0.09102323       0.98927961 </v>
    <v>       0.21389069       0.29803604       0.46292152 </v>
    <v>       0.08414535       0.78610931       0.46292152 </v>
    <v>       0.29803604       0.21389069       0.96292152 </v>
    <v>       0.70196396       0.91585465       0.46292152 </v>
    <v>       0.00000000      -0.00000000       0.95330629 </v>
    <v>       0.07460482       0.48797028       0.78674175 </v>
    <v>       0.00000000      -0.00000000       0.45330629 </v>
    <v>       0.66666667       0.33333333       0.51607506 </v>
    <v>       0.58663454       0.51202972       0.28674175 </v>
    <v>       0.78610931       0.08414535       0.96292152 </v>
    <v>       0.91585465       0.70196396       0.96292152 </v>
    <v>       0.33333333       0.66666667       0.01607506 </v>
    <v>       0.92539518       0.41336546       0.28674175 </v>
    <v>       0.41336546       0.92539518       0.78674175 </v>
    <v>       0.51202972       0.58663454       0.78674175 </v>
    <v>       0.48797028       0.07460482       0.28674175 </v>
   </varray>
  </structure>
  <varray name="forces" >
   <v>      -0.02936404      -0.03588108       0.06413176 </v>
   <v>      -0.01639191       0.04337054       0.06413176 </v>
   <v>      -0.06464093      -0.01896607       0.03754982 </v>
   <v>      -0.02936404       0.03588108       0.06413176 </v>
   <v>       0.01589537      -0.06546372       0.03754982 </v>
   <v>      -0.06464093       0.01896607       0.03754982 </v>
   <v>       0.04575595      -0.00748947       0.06413176 </v>
   <v>       0.04874556       0.04649765       0.03754982 </v>
   <v>      -0.01639191      -0.04337054       0.06413176 </v>
   <v>       0.04575595       0.00748947       0.06413176 </v>
   <v>       0.04874556      -0.04649765       0.03754982 </v>
   <v>       0.01589537       0.06546372       0.03754982 </v>
   <v>       0.08254676       0.34611348      -0.22260793 </v>
   <v>       0.25846968      -0.24454433      -0.22260793 </v>
   <v>       0.08254676      -0.34611348      -0.22260793 </v>
   <v>      -0.34101645      -0.10156915      -0.22260793 </v>
   <v>       0.00000000       0.00000000      -0.12034098 </v>
   <v>       0.04812425      -0.23322778       0.21983803 </v>
   <v>       0.00000000       0.00000000      -0.12034098 </v>
   <v>       0.00000000       0.00000000      -0.17639402 </v>
   <v>       0.17791906      -0.15829072       0.21983803 </v>
   <v>       0.25846968       0.24454433      -0.22260793 </v>
   <v>      -0.34101645       0.10156915      -0.22260793 </v>
   <v>       0.00000000       0.00000000      -0.17639402 </v>
   <v>      -0.22604331      -0.07493706       0.21983803 </v>
   <v>      -0.22604331       0.07493706       0.21983803 </v>
   <v>       0.17791906       0.15829072       0.21983803 </v>
   <v>       0.04812425       0.23322778       0.21983803 </v>
  </varray>
  <varray name="stress" >
   <v>     301.38612577       0.00000000       0.00000000 </v>
   <v>       0.00000000     301.38612577       0.00000000 </v>
   <v>       0.00000000       0.00000000     264.34257452 </v>
  </varray>
  <energy>
   <i name="e_fr_energy">   -197.00768991 </i>
   <i name="e_wo_entrp">   -197.00652937 </i>
   <i name="e_0_energy">     -0.00464216 </i>
  </energy>
  <time name="totalsc">   33.26   33.36</time>
 </calculation>
 <calculation>
  <scstep>
   <time name="dav">    6.69    6.69</time>
   <time name="total">    7.07    7.07</time>
   <energy>
    <i name="alphaZ">    159.29910815 </i>
    <i name="ewald">  -4468.56376542 </i>
    <i name="hartreedc">  -1223.34454994 </i>
    <i name="XCdc">    125.02722224 </i>
    <i name="pawpsdc">  22008.19356431 </i>
    <i name="pawaedc"> -21747.05489198 </i>
    <i name="eentropy">     -0.00452800 </i>
    <i name="bandstr">    126.66205256 </i>
    <i name="atom">   4822.75196862 </i>
    <i name="e_fr_energy">   -197.03381945 </i>
    <i name="e_wo_entrp">   -197.02929145 </i>
    <i name="e_0_energy">   -197.03268745 </i>
   </energy>
  </scstep>
  <scstep>
   <time name="diag">    0.96    0.96</time>
   <time name="diis">    4.29    4.29</time>
[...]
       <r>   -1.1591    1.0000 </r>
       <r>   -0.4150    1.0000 </r>
       <r>   -0.1363    1.0000 </r>
       <r>    0.0858    1.0000 </r>
       <r>    0.0858    1.0000 </r>
       <r>    0.7606    1.0000 </r>
       <r>    0.7606    1.0000 </r>
       <r>    1.2071    1.0000 </r>
       <r>    1.2071    1.0000 </r>
       <r>    1.2780    1.0000 </r>
       <r>    1.8006    1.0000 </r>
       <r>    2.0034    1.0000 </r>
       <r>    2.0034    1.0000 </r>
       <r>    2.2681    1.0000 </r>
       <r>    2.3503    1.0000 </r>
       <r>    2.3503    1.0000 </r>
       <r>    2.4411    1.0000 </r>
       <r>    2.5730    1.0000 </r>
       <r>    2.5730    1.0000 </r>
       <r>    2.9830    1.0000 </r>
       <r>    3.7351    1.0000 </r>
       <r>    3.7351    1.0000 </r>
       <r>    3.9960    1.0000 </r>
       <r>    4.1019    1.0000 </r>
       <r>    4.1019    1.0000 </r>
       <r>    4.4142    1.0000 </r>
       <r>    4.4713    1.0000 </r>
       <r>    4.4713    1.0000 </r>
       <r>    4.5346    1.0000 </r>
       <r>    5.3770    1.0000 </r>
       <r>    5.3770    1.0000 </r>
       <r>    5.6574    1.0000 </r>
       <r>    5.7637    1.0000 </r>
       <r>    5.7637    1.0000 </r>
       <r>    5.9348    1.0000 </r>
       <r>    6.2033    1.0000 </r>
       <r>    6.2033    1.0000 </r>
       <r>    6.7703    1.0000 </r>
       <r>    6.7703    1.0000 </r>
       <r>    7.2040    1.0000 </r>
       <r>    7.2040    1.0000 </r>
       <r>    7.4328    1.0000 </r>
       <r>    7.5493    1.0000 </r>
       <r>    8.5473    1.0000 </r>
       <r>    9.2206   -0.0212 </r>
       <r>    9.2206   -0.0212 </r>
       <r>    9.7771    0.0000 </r>
       <r>   11.6160    0.0000 </r>
       <r>   11.6160    0.0000 </r>
       <r>   11.8100    0.0000 </r>
       <r>   11.8100    0.0000 </r>
       <r>   12.3938    0.0000 </r>
       <r>   12.5565    0.0000 </r>
       <r>   13.1213    0.0000 </r>
       <r>   13.1213    0.0000 </r>
       <r>   13.6365    0.0000 </r>
       <r>   13.8815    0.0000 </r>
       <r>   13.8815    0.0000 </r>
       <r>   14.0549    0.0000 </r>
       <r>   14.0549    0.0000 </r>
       <r>   14.2755    0.0000 </r>
       <r>   14.2755    0.0000 </r>
       <r>   14.4228    0.0000 </r>
      </set>
     </set>
    </set>
   </array>
  </eigenvalues>
  <separator name="orbital magnetization" >
   <v name="MAGDIPOLOUT">      0.00000000      0.00000000      0.00000000</v>
  </separator>
  <dos>
   <i name="efermi">      9.08308391 </i>
   <total>
    <array>
     <dimension dim="1">gridpoints</dimension>
     <dimension dim="2">spin</dimension>
     <field>energy</field>
     <field>total</field>
     <field>integrated</field>
     <set>
      <set comment="spin 1">
       <r>   -11.7226     0.0000     0.0000 </r>
       <r>   -11.6299     0.0000     0.0000 </r>
       <r>   -11.5373     0.0000     0.0000 </r>
       <r>   -11.4446     0.0000     0.0000 </r>
       <r>   -11.3519     0.0000     0.0000 </r>
       <r>   -11.2593     0.0000     0.0000 </r>
       <r>   -11.1666     0.0000     0.0000 </r>
       <r>   -11.0740     0.0000     0.0000 </r>
       <r>   -10.9813     0.0000     0.0000 </r>
       <r>   -10.8886     0.0000     0.0000 </r>
       <r>   -10.7960     0.0000     0.0000 </r>
       <r>   -10.7033     0.0006     0.0001 </r>
       <r>   -10.6107     0.0047     0.0005 </r>
       <r>   -10.5180    -0.0368    -0.0029 </r>
       <r>   -10.4253     0.3193     0.0267 </r>
       <r>   -10.3327     1.5689     0.1720 </r>
       <r>   -10.2400     2.7011     0.4223 </r>
       <r>   -10.1474     3.7115     0.7662 </r>
       <r>   -10.0547     2.9448     1.0391 </r>
       <r>    -9.9620     4.5954     1.4649 </r>
       <r>    -9.8694     4.3778     1.8705 </r>
       <r>    -9.7767     6.1667     2.4419 </r>
       <r>    -9.6841     8.3983     3.2201 </r>
       <r>    -9.5914     8.7840     4.0340 </r>
       <r>    -9.4987     5.3877     4.5333 </r>
       <r>    -9.4061     5.5504     5.0476 </r>
       <r>    -9.3134     5.2814     5.5369 </r>
       <r>    -9.2208     0.1351     5.5495 </r>
       <r>    -9.1281     2.3413     5.7664 </r>
       <r>    -9.0354     6.0386     6.3259 </r>
       <r>    -8.9428     2.6397     6.5705 </r>
       <r>    -8.8501     4.0477     6.9456 </r>
       <r>    -8.7575     7.1987     7.6126 </r>
       <r>    -8.6648     1.6656     7.7670 </r>
       <r>    -8.5721     5.6810     8.2934 </r>
       <r>    -8.4795    13.3676     9.5320 </r>
       <r>    -8.3868     7.6319    10.2392 </r>
       <r>    -8.2942     4.4012    10.6470 </r>
       <r>    -8.2015     4.5265    11.0664 </r>
       <r>    -8.1089     2.9281    11.3377 </r>
       <r>    -8.0162     5.6689    11.8630 </r>
       <r>    -7.9235     9.3592    12.7302 </r>
       <r>    -7.8309    13.5070    13.9818 </r>
       <r>    -7.7382    11.9082    15.0852 </r>
       <r>    -7.6456    14.0733    16.3892 </r>
       <r>    -7.5529    10.6289    17.3741 </r>
       <r>    -7.4602    10.7053    18.3660 </r>
       <r>    -7.3676     6.6334    18.9806 </r>
       <r>    -7.2749     7.0222    19.6313 </r>
       <r>    -7.1823    10.0460    20.5622 </r>
       <r>    -7.0896    23.1707    22.7092 </r>
       <r>    -6.9969    13.6896    23.9776 </r>
       <r>    -6.9043     0.3439    24.0095 </r>
       <r>    -6.8116    -0.1421    23.9964 </r>
       <r>    -6.7190     0.0381    23.9999 </r>
       <r>    -6.6263     0.0013    24.0000 </r>
       <r>    -6.5336     0.0000    24.0000 </r>
       <r>    -6.4410     0.0000    24.0000 </r>
       <r>    -6.3483     0.0000    24.0000 </r>
       <r>    -6.2557     0.0000    24.0000 </r>
       <r>    -6.1630     0.0000    24.0000 </r>
       <r>    -6.0703     0.0000    24.0000 </r>
       <r>    -5.9777     0.0000    24.0000 </r>
       <r>    -5.8850     0.0000    24.0000 </r>
       <r>    -5.7924     0.0000    24.0000 </r>
       <r>    -5.6997     0.0000    24.0000 </r>
       <r>    -5.6070     0.0000    24.0000 </r>
       <r>    -5.5144     0.0000    24.0000 </r>
       <r>    -5.4217     0.0000    24.0000 </r>
       <r>    -5.3291     0.0000    24.0000 </r>
       <r>    -5.2364     0.0000    24.0000 </r>
       <r>    -5.1437     0.0000    24.0000 </r>
       <r>    -5.0511     0.0000    24.0000 </r>
       <r>    -4.9584     0.0000    24.0000 </r>
       <r>    -4.8658     0.0000    24.0000 </r>
       <r>    -4.7731     0.0000    24.0000 </r>
       <r>    -4.6804     0.0000    24.0000 </r>
       <r>    -4.5878     0.0000    24.0000 </r>
       <r>    -4.4951     0.0000    24.0000 </r>
       <r>    -4.4025     0.0000    24.0000 </r>
       <r>    -4.3098     0.0000    24.0000 </r>
       <r>    -4.2171     0.0000    24.0000 </r>
       <r>    -4.1245     0.0000    24.0000 </r>
       <r>    -4.0318     0.0000    24.0000 </r>
       <r>    -3.9392     0.0000    24.0000 </r>
       <r>    -3.8465     0.0000    24.0000 </r>
       <r>    -3.7538     0.0000    24.0000 </r>
       <r>    -3.6612     0.0000    24.0000 </r>
       <r>    -3.5685     0.0000    24.0000 </r>
       <r>    -3.4759     0.0007    24.0001 </r>
       <r>    -3.3832    -0.0011    24.0000 </r>
       <r>    -3.2906     0.0028    24.0002 </r>
       <r>    -3.1979     0.2342    24.0219 </r>
       <r>    -3.1052     0.8957    24.1049 </r>
       <r>    -3.0126     0.5477    24.1557 </r>
       <r>    -2.9199     1.5514    24.2994 </r>
       <r>    -2.8273     1.3701    24.4264 </r>
       <r>    -2.7346     1.3585    24.5522 </r>
       <r>    -2.6419     2.4177    24.7763 </r>
       <r>    -2.5493     2.0860    24.9696 </r>
       <r>    -2.4566     2.6374    25.2139 </r>
       <r>    -2.3640     2.1723    25.4152 </r>
       <r>    -2.2713     0.5205    25.4635 </r>
       <r>    -2.1786     3.2424    25.7639 </r>
       <r>    -2.0860     3.3146    26.0710 </r>
       <r>    -1.9933     5.0078    26.5350 </r>
       <r>    -1.9007     7.1372    27.1964 </r>
       <r>    -1.8080     8.2484    27.9607 </r>
       <r>    -1.7153     8.9451    28.7895 </r>
       <r>    -1.6227     6.2509    29.3687 </r>
       <r>    -1.5300     5.7961    29.9058 </r>
       <r>    -1.4374     6.0901    30.4701 </r>
       <r>    -1.3447     4.7958    30.9145 </r>
       <r>    -1.2520     4.7333    31.3531 </r>
       <r>    -1.1594     8.8191    32.1702 </r>
       <r>    -1.0667    10.9277    33.1828 </r>
       <r>    -0.9741    10.1388    34.1222 </r>
       <r>    -0.8814     9.2216    34.9767 </r>
       <r>    -0.7887    10.4783    35.9476 </r>
       <r>    -0.6961    10.0466    36.8785 </r>
       <r>    -0.6034     9.8221    37.7886 </r>
       <r>    -0.5108    10.0204    38.7171 </r>
       <r>    -0.4181    10.0528    39.6486 </r>
       <r>    -0.3254     7.5797    40.3510 </r>
       <r>    -0.2328     3.5786    40.6825 </r>
       <r>    -0.1401     1.5956    40.8304 </r>
       <r>    -0.0475     2.8415    41.0937 </r>
       <r>     0.0452     3.0631    41.3775 </r>
       <r>     0.1379     3.0649    41.6615 </r>
       <r>     0.2305     5.2180    42.1450 </r>
       <r>     0.3232    11.2289    43.1855 </r>
       <r>     0.4158    10.4124    44.1503 </r>
       <r>     0.5085    11.0644    45.1755 </r>
       <r>     0.6012     6.9374    45.8183 </r>
       <r>     0.6938     5.8855    46.3637 </r>
       <r>     0.7865     8.1413    47.1180 </r>
       <r>     0.8791     7.9114    47.8511 </r>
       <r>     0.9718     7.9042    48.5835 </r>
       <r>     1.0644     7.4006    49.2692 </r>
       <r>     1.1571     5.7814    49.8049 </r>
       <r>     1.2498     7.0340    50.4567 </r>
       <r>     1.3424     7.9020    51.1889 </r>
       <r>     1.4351    12.0668    52.3070 </r>
       <r>     1.5277    12.0961    53.4278 </r>
       <r>     1.6204    10.7147    54.4206 </r>
       <r>     1.7131    13.2894    55.6520 </r>
       <r>     1.8057    12.9530    56.8522 </r>
       <r>     1.8984    10.2162    57.7989 </r>
       <r>     1.9910     5.8501    58.3410 </r>
       <r>     2.0837    11.2525    59.3836 </r>
       <r>     2.1764    10.6463    60.3701 </r>
       <r>     2.2690    11.0862    61.3973 </r>
       <r>     2.3617     9.3315    62.2620 </r>
       <r>     2.4543     9.5060    63.1428 </r>
       <r>     2.5470    12.2729    64.2800 </r>
       <r>     2.6397    11.5820    65.3532 </r>
       <r>     2.7323     8.8655    66.1747 </r>
       <r>     2.8250    11.7862    67.2668 </r>
       <r>     2.9176    12.0537    68.3837 </r>
       <r>     3.0103    11.3040    69.4311 </r>
       <r>     3.1030    10.9851    70.4490 </r>
       <r>     3.1956    10.2104    71.3951 </r>
       <r>     3.2883    14.1124    72.7027 </r>
       <r>     3.3809    14.9661    74.0895 </r>
       <r>     3.4736     9.2508    74.9466 </r>
       <r>     3.5663     8.7558    75.7579 </r>
       <r>     3.6589     8.9987    76.5918 </r>
       <r>     3.7516    12.2078    77.7229 </r>
       <r>     3.8442    10.8888    78.7319 </r>
       <r>     3.9369    10.7674    79.7296 </r>
       <r>     4.0296    14.1383    81.0396 </r>
       <r>     4.1222    17.3976    82.6517 </r>
       <r>     4.2149    12.1455    83.7771 </r>
       <r>     4.3075    10.3068    84.7321 </r>
       <r>     4.4002    10.8676    85.7391 </r>
       <r>     4.4929    10.0520    86.6705 </r>
       <r>     4.5855     8.3934    87.4482 </r>
       <r>     4.6782     9.4132    88.3205 </r>
       <r>     4.7708    12.5506    89.4834 </r>
       <r>     4.8635    15.5332    90.9227 </r>
       <r>     4.9562     9.5566    91.8082 </r>
       <r>     5.0488     7.8385    92.5345 </r>
       <r>     5.1415    10.5358    93.5108 </r>
       <r>     5.2341    12.6040    94.6786 </r>
       <r>     5.3268    10.8519    95.6842 </r>
       <r>     5.4195    12.1667    96.8115 </r>
       <r>     5.5121    12.8076    97.9983 </r>
       <r>     5.6048     7.5832    98.7009 </r>
       <r>     5.6974     9.1556    99.5493 </r>
       <r>     5.7901    12.7077   100.7268 </r>
       <r>     5.8827    16.2706   102.2344 </r>
       <r>     5.9754    13.5565   103.4906 </r>
       <r>     6.0681     8.1326   104.2441 </r>
       <r>     6.1607     7.4222   104.9319 </r>
       <r>     6.2534     5.9199   105.4804 </r>
       <r>     6.3460     8.8462   106.3001 </r>
       <r>     6.4387     6.3928   106.8924 </r>
       <r>     6.5314     9.5531   107.7776 </r>
       <r>     6.6240    10.5199   108.7524 </r>
       <r>     6.7167    13.6106   110.0135 </r>
       <r>     6.8093    17.0341   111.5919 </r>
       <r>     6.9020    11.1533   112.6254 </r>
       <r>     6.9947     4.5264   113.0448 </r>
       <r>     7.0873     3.5009   113.3692 </r>
       <r>     7.1800     3.4685   113.6906 </r>
       <r>     7.2726     6.4434   114.2876 </r>
       <r>     7.3653     7.9666   115.0258 </r>
       <r>     7.4580     8.4273   115.8067 </r>
       <r>     7.5506    10.4660   116.7764 </r>
       <r>     7.6433     9.3471   117.6425 </r>
       <r>     7.7359     9.2911   118.5034 </r>
       <r>     7.8286     6.2626   119.0837 </r>
       <r>     7.9213     4.6997   119.5192 </r>
       <r>     8.0139     3.9849   119.8884 </r>
       <r>     8.1066     5.7480   120.4210 </r>
       <r>     8.1992     6.3895   121.0131 </r>
       <r>     8.2919     5.3893   121.5125 </r>
       <r>     8.3846     0.5095   121.5597 </r>
       <r>     8.4772     0.7040   121.6249 </r>
       <r>     8.5699     3.7758   121.9748 </r>
       <r>     8.6625     2.1594   122.1749 </r>
       <r>     8.7552     1.2885   122.2942 </r>
       <r>     8.8479     2.8366   122.5571 </r>
       <r>     8.9405     3.4926   122.8807 </r>
       <r>     9.0332     5.4803   123.3885 </r>
       <r>     9.1258    14.4759   124.7298 </r>
       <r>     9.2185    12.0581   125.8471 </r>
       <r>     9.3112     1.3539   125.9726 </r>
       <r>     9.4038     0.2674   125.9974 </r>
       <r>     9.4965     0.0280   126.0000 </r>
       <r>     9.5891     0.0163   126.0015 </r>
       <r>     9.6818    -0.1679   125.9859 </r>
       <r>     9.7745     1.2910   126.1056 </r>
       <r>     9.8671     3.2559   126.4072 </r>
       <r>     9.9598     0.4622   126.4501 </r>
       <r>    10.0524    -0.0709   126.4435 </r>
       <r>    10.1451     0.0093   126.4444 </r>
       <r>    10.2377     0.0008   126.4444 </r>
       <r>    10.3304     0.0001   126.4445 </r>
       <r>    10.4231     0.0006   126.4445 </r>
       <r>    10.5157    -0.0049   126.4441 </r>
       <r>    10.6084     0.0471   126.4484 </r>
       <r>    10.7010     0.1345   126.4609 </r>
       <r>    10.7937     0.7075   126.5264 </r>
       <r>    10.8864     1.0724   126.6258 </r>
       <r>    10.9790     1.4028   126.7558 </r>
       <r>    11.0717     4.6830   127.1897 </r>
       <r>    11.1643     4.7413   127.6290 </r>
       <r>    11.2570     5.7505   128.1619 </r>
       <r>    11.3497     6.3876   128.7538 </r>
       <r>    11.4423     8.8425   129.5731 </r>
       <r>    11.5350    15.1284   130.9749 </r>
       <r>    11.6276    11.9039   132.0779 </r>
       <r>    11.7203     6.9620   132.7230 </r>
       <r>    11.8130     7.4145   133.4100 </r>
       <r>    11.9056     8.2192   134.1716 </r>
       <r>    11.9983     5.3563   134.6679 </r>
       <r>    12.0909     6.2600   135.2480 </r>
       <r>    12.1836     6.5027   135.8505 </r>
       <r>    12.2763     2.4774   136.0801 </r>
       <r>    12.3689     4.7260   136.5180 </r>
       <r>    12.4616     4.8001   136.9627 </r>
       <r>    12.5542     5.7657   137.4970 </r>
       <r>    12.6469     8.4478   138.2798 </r>
       <r>    12.7396     9.0469   139.1180 </r>
       <r>    12.8322     7.4559   139.8089 </r>
       <r>    12.9249     6.8739   140.4458 </r>
       <r>    13.0175     9.9222   141.3652 </r>
       <r>    13.1102     9.7606   142.2696 </r>
       <r>    13.2029    11.5737   143.3421 </r>
       <r>    13.2955     6.9335   143.9845 </r>
       <r>    13.3882     7.0388   144.6367 </r>
       <r>    13.4808     7.2821   145.3115 </r>
       <r>    13.5735    12.6618   146.4847 </r>
       <r>    13.6662    10.1253   147.4229 </r>
       <r>    13.7588    10.0425   148.3535 </r>
       <r>    13.8515    10.3233   149.3100 </r>
       <r>    13.9441    14.1096   150.6174 </r>
       <r>    14.0368    12.8303   151.8063 </r>
       <r>    14.1295    12.5722   152.9712 </r>
       <r>    14.2221    18.9945   154.7312 </r>
       <r>    14.3148    16.5452   156.2643 </r>
       <r>    14.4074    11.9323   157.3699 </r>
       <r>    14.5001    13.1429   158.5877 </r>
       <r>    14.5927     9.2850   159.4481 </r>
       <r>    14.6854     5.1938   159.9294 </r>
       <r>    14.7781     0.7402   159.9979 </r>
       <r>    14.8707     0.0020   159.9981 </r>
       <r>    14.9634     0.0204   160.0000 </r>
       <r>    15.0560    -0.0004   160.0000 </r>
       <r>    15.1487     0.0003   160.0000 </r>
       <r>    15.2414     0.0000   160.0000 </r>
       <r>    15.3340     0.0000   160.0000 </r>
       <r>    15.4267     0.0000   160.0000 </r>
       <r>    15.5193     0.0000   160.0000 </r>
       <r>    15.6120     0.0000   160.0000 </r>
       <r>    15.7047     0.0000   160.0000 </r>
       <r>    15.7973     0.0000   160.0000 </r>
       <r>    15.8900     0.0000   160.0000 </r>
       <r>    15.9826     0.0000   160.0000 </r>
       <r>    16.0753     0.0000   160.0000 </r>
      </set>
     </set>
    </array>
   </total>
  </dos>
 </calculation>
 <structure name="finalpos" >
  <crystal>
   <varray name="basis" >
    <v>       4.10065589      -7.10254435       0.00000000 </v>
    <v>       4.10065589       7.10254435       0.00000000 </v>
    <v>       0.00000000       0.00000000       5.25499039 </v>
   </varray>
   <i name="volume">    306.10414013 </i>
   <varray name="rec_basis" >
    <v>       0.12193171      -0.07039731       0.00000000 </v>
    <v>       0.12193171       0.07039731       0.00000000 </v>
    <v>       0.00000000       0.00000000       0.19029531 </v>
   </varray>
  </crystal>
  <varray name="positions" >
   <v>       0.01423460       0.64493506       0.20313912 </v>
   <v>       0.63070046       0.98576540       0.20313912 </v>
   <v>       0.90886323       0.32051642       0.99293342 </v>
   <v>       0.64493506       0.01423460       0.70313912 </v>
   <v>       0.09113677       0.41165319       0.49293342 </v>
   <v>       0.32051642       0.90886323       0.49293342 </v>
   <v>       0.35506494       0.36929954       0.20313912 </v>
   <v>       0.58834681       0.67948358       0.49293342 </v>
   <v>       0.98576540       0.63070046       0.70313912 </v>
   <v>       0.36929954       0.35506494       0.70313912 </v>
   <v>       0.67948358       0.58834681       0.99293342 </v>
   <v>       0.41165319       0.09113677       0.99293342 </v>
   <v>       0.21400348       0.29942326       0.46017836 </v>
   <v>       0.08541978       0.78599652       0.46017836 </v>
   <v>       0.29942326       0.21400348       0.96017836 </v>
   <v>       0.70057674       0.91458022       0.46017836 </v>
   <v>      -0.00000000      -0.00000000       0.92795522 </v>
   <v>       0.07671060       0.48764339       0.79233250 </v>
   <v>      -0.00000000      -0.00000000       0.42795522 </v>
   <v>       0.66666667       0.33333333       0.52242225 </v>
   <v>       0.58906722       0.51235661       0.29233250 </v>
   <v>       0.78599652       0.08541978       0.96017836 </v>
   <v>       0.91458022       0.70057674       0.96017836 </v>
   <v>       0.33333333       0.66666667       0.02242225 </v>
   <v>       0.92328940       0.41093278       0.29233250 </v>
   <v>       0.41093278       0.92328940       0.79233250 </v>
   <v>       0.51235661       0.58906722       0.79233250 </v>
   <v>       0.48764339       0.07671060       0.29233250 </v>
  </varray>
 </structure>
</modeling>
