unknown system                          
           1
     4.100656   -7.102544    0.000000
     4.100656    7.102544    0.000000
     0.000000    0.000000    5.254990
   Si   N 
  12  16
Direct configuration=     1
   0.00847736  0.64712623  0.21326215
   0.63864887  0.99152264  0.21326215
   0.91417805  0.32157747  0.99187268
   0.64712623  0.00847736  0.71326215
   0.08582195  0.40739942  0.49187268
   0.32157747  0.91417805  0.49187268
   0.35287377  0.36135113  0.21326215
   0.59260058  0.67842253  0.49187268
   0.99152264  0.63864887  0.71326215
   0.36135113  0.35287377  0.71326215
   0.67842253  0.59260058  0.99187268
   0.40739942  0.08582195  0.99187268
   0.21311138  0.30040483  0.46674092
   0.08729345  0.78688862  0.46674092
   0.30040483  0.21311138  0.96674092
   0.69959517  0.91270655  0.46674092
   0.00000000  0.00000000  0.95692726
   0.06686359  0.48449764  0.78259872
   0.00000000  0.00000000  0.45692726
   0.66666667  0.33333333  0.47577702
   0.58236595  0.51550236  0.28259872
   0.78688862  0.08729345  0.96674092
   0.91270655  0.69959517  0.96674092
   0.33333333  0.66666667  0.97577702
   0.93313641  0.41763405  0.28259872
   0.41763405  0.93313641  0.78259872
   0.51550236  0.58236595  0.78259872
   0.48449764  0.06686359  0.28259872
Direct configuration=     2
   0.01189296  0.64778690  0.20924707
   0.63589394  0.98810704  0.20924707
   0.91234356  0.32125805  0.98904789
   0.64778690  0.01189296  0.70924707
   0.08765644  0.40891449  0.48904789
   0.32125805  0.91234356  0.48904789
   0.35221310  0.36410606  0.20924707
   0.59108551  0.67874195  0.48904789
   0.98810704  0.63589394  0.70924707
   0.36410606  0.35221310  0.70924707
   0.67874195  0.59108551  0.98904789
   0.40891449  0.08765644  0.98904789
   0.20930517  0.29504761  0.46651024
   0.08574244  0.79069483  0.46651024
   0.29504761  0.20930517  0.96651024
   0.70495239  0.91425756  0.46651024
   0.00000000  0.00000000  0.95629299
   0.06988228  0.48425123  0.78579582
   0.00000000  0.00000000  0.45629299
   0.66666667  0.33333333  0.48803163
   0.58563105  0.51574877  0.28579582
   0.79069483  0.08574244  0.96651024
   0.91425756  0.70495239  0.96651024
   0.33333333  0.66666667  0.98803163
   0.93011772  0.41436895  0.28579582
   0.41436895  0.93011772  0.78579582
   0.51574877  0.58563105  0.78579582
   0.48425123  0.06988228  0.28579582
Direct configuration=     3
   0.01156875  0.64772419  0.20962819
   0.63615544  0.98843125  0.20962819
   0.91251770  0.32128837  0.98931602
   0.64772419  0.01156875  0.70962819
   0.08748230  0.40877068  0.48931602
   0.32128837  0.91251770  0.48931602
   0.35227581  0.36384456  0.20962819
   0.59122932  0.67871163  0.48931602
   0.98843125  0.63615544  0.70962819
   0.36384456  0.35227581  0.70962819
   0.67871163  0.59122932  0.98931602
   0.40877068  0.08748230  0.98931602
   0.20966646  0.29555613  0.46653214
   0.08588967  0.79033354  0.46653214
   0.29555613  0.20966646  0.96653214
   0.70444387  0.91411033  0.46653214
   0.00000000  0.00000000  0.95635320
   0.06959574  0.48427462  0.78549235
   0.00000000  0.00000000  0.45635320
   0.66666667  0.33333333  0.48686840
   0.58532113  0.51572538  0.28549235
   0.79033354  0.08588967  0.96653214
   0.91411033  0.70444387  0.96653214
   0.33333333  0.66666667  0.98686840
   0.93040426  0.41467887  0.28549235
   0.41467887  0.93040426  0.78549235
   0.51572538  0.58532113  0.78549235
   0.48427462  0.06959574  0.28549235
Direct configuration=     4
   0.01508753  0.64934012  0.20695676
   0.63425259  0.98491247  0.20695676
   0.90971828  0.31970466  0.98948775
   0.64934012  0.01508753  0.70695676
   0.09028172  0.40998637  0.48948775
   0.31970466  0.90971828  0.48948775
   0.35065988  0.36574741  0.20695676
   0.59001363  0.68029534  0.48948775
   0.98491247  0.63425259  0.70695676
   0.36574741  0.35065988  0.70695676
   0.68029534  0.59001363  0.98948775
   0.40998637  0.09028172  0.98948775
   0.21174969  0.29613191  0.46420813
   0.08438222  0.78825031  0.46420813
   0.29613191  0.21174969  0.96420813
   0.70386809  0.91561778  0.46420813
   0.00000000 -0.00000000  0.95503568
   0.07314681  0.48643371  0.78556896
   0.00000000 -0.00000000  0.45503568
   0.66666667  0.33333333  0.50242717
   0.58671310  0.51356629  0.28556896
   0.78825031  0.08438222  0.96420813
   0.91561778  0.70386809  0.96420813
   0.33333333  0.66666667  0.00242717
   0.92685319  0.41328690  0.28556896
   0.41328690  0.92685319  0.78556896
   0.51356629  0.58671310  0.78556896
   0.48643371  0.07314681  0.28556896
Direct configuration=     5
   0.01592954  0.64972680  0.20631752
   0.63379726  0.98407046  0.20631752
   0.90904841  0.31932569  0.98952884
   0.64972680  0.01592954  0.70631752
   0.09095159  0.41027728  0.48952884
   0.31932569  0.90904841  0.48952884
   0.35027320  0.36620274  0.20631752
   0.58972272  0.68067431  0.48952884
   0.98407046  0.63379726  0.70631752
   0.36620274  0.35027320  0.70631752
   0.68067431  0.58972272  0.98952884
   0.41027728  0.09095159  0.98952884
   0.21224818  0.29626969  0.46365202
   0.08402151  0.78775182  0.46365202
   0.29626969  0.21224818  0.96365202
   0.70373031  0.91597849  0.46365202
   0.00000000 -0.00000000  0.95472041
   0.07399654  0.48695036  0.78558729
   0.00000000 -0.00000000  0.45472041
   0.66666667  0.33333333  0.50615024
   0.58704618  0.51304964  0.28558729
   0.78775182  0.08402151  0.96365202
   0.91597849  0.70373031  0.96365202
   0.33333333  0.66666667  0.00615024
   0.92600346  0.41295382  0.28558729
   0.41295382  0.92600346  0.78558729
   0.51304964  0.58704618  0.78558729
   0.48695036  0.07399654  0.28558729
Direct configuration=     6
   0.01669902  0.64687194  0.20255023
   0.63017292  0.98330098  0.20255023
   0.90895879  0.32093350  0.98921707
   0.64687194  0.01669902  0.70255023
   0.09104121  0.41197471  0.48921707
   0.32093350  0.90895879  0.48921707
   0.35312806  0.36982708  0.20255023
   0.58802529  0.67906650  0.48921707
   0.98330098  0.63017292  0.70255023
   0.36982708  0.35312806  0.70255023
   0.67906650  0.58802529  0.98921707
   0.41197471  0.09104121  0.98921707
   0.21430282  0.29847925  0.46273823
   0.08417643  0.78569718  0.46273823
   0.29847925  0.21430282  0.96273823
   0.70152075  0.91582357  0.46273823
   0.00000000 -0.00000000  0.95295146
   0.07475745  0.48822620  0.78703142
   0.00000000 -0.00000000  0.45295146
   0.66666667  0.33333333  0.51856537
   0.58653125  0.51177380  0.28703142
   0.78569718  0.08417643  0.96273823
   0.91582357  0.70152075  0.96273823
   0.33333333  0.66666667  0.01856537
   0.92524255  0.41346875  0.28703142
   0.41346875  0.92524255  0.78703142
   0.51177380  0.58653125  0.78703142
   0.48822620  0.07475745  0.28703142
Direct configuration=     7
   0.01654467  0.64744459  0.20330590
   0.63089992  0.98345533  0.20330590
   0.90897677  0.32061099  0.98927961
   0.64744459  0.01654467  0.70330590
   0.09102323  0.41163423  0.48927961
   0.32061099  0.90897677  0.48927961
   0.35255541  0.36910008  0.20330590
   0.58836577  0.67938901  0.48927961
   0.98345533  0.63089992  0.70330590
   0.36910008  0.35255541  0.70330590
   0.67938901  0.58836577  0.98927961
   0.41163423  0.09102323  0.98927961
   0.21389069  0.29803604  0.46292152
   0.08414535  0.78610931  0.46292152
   0.29803604  0.21389069  0.96292152
   0.70196396  0.91585465  0.46292152
   0.00000000 -0.00000000  0.95330629
   0.07460482  0.48797028  0.78674175
   0.00000000 -0.00000000  0.45330629
   0.66666667  0.33333333  0.51607506
   0.58663454  0.51202972  0.28674175
   0.78610931  0.08414535  0.96292152
   0.91585465  0.70196396  0.96292152
   0.33333333  0.66666667  0.01607506
   0.92539518  0.41336546  0.28674175
   0.41336546  0.92539518  0.78674175
   0.51202972  0.58663454  0.78674175
   0.48797028  0.07460482  0.28674175
Direct configuration=     8
   0.01674108  0.64630282  0.20263467
   0.62956175  0.98325892  0.20263467
   0.90867889  0.32073218  0.98947704
   0.64630282  0.01674108  0.70263467
   0.09132111  0.41205329  0.48947704
   0.32073218  0.90867889  0.48947704
   0.35369718  0.37043825  0.20263467
   0.58794671  0.67926782  0.48947704
   0.98325892  0.62956175  0.70263467
   0.37043825  0.35369718  0.70263467
   0.67926782  0.58794671  0.98947704
   0.41205329  0.09132111  0.98947704
   0.21394157  0.30014452  0.46088999
   0.08620295  0.78605843  0.46088999
   0.30014452  0.21394157  0.96088999
   0.69985548  0.91379705  0.46088999
   0.00000000 -0.00000000  0.95181059
   0.07576096  0.48793298  0.78891687
   0.00000000 -0.00000000  0.45181059
   0.66666667  0.33333333  0.51856136
   0.58782797  0.51206702  0.28891687
   0.78605843  0.08620295  0.96088999
   0.91379705  0.69985548  0.96088999
   0.33333333  0.66666667  0.01856136
   0.92423904  0.41217203  0.28891687
   0.41217203  0.92423904  0.78891687
   0.51206702  0.58782797  0.78891687
   0.48793298  0.07576096  0.28891687
Direct configuration=     9
   0.01671998  0.64642547  0.20270677
   0.62970549  0.98328002  0.20270677
   0.90871089  0.32071916  0.98945583
   0.64642547  0.01671998  0.70270677
   0.09128911  0.41200827  0.48945583
   0.32071916  0.90871089  0.48945583
   0.35357453  0.37029451  0.20270677
   0.58799173  0.67928084  0.48945583
   0.98328002  0.62970549  0.70270677
   0.37029451  0.35357453  0.70270677
   0.67928084  0.58799173  0.98945583
   0.41200827  0.09128911  0.98945583
   0.21393610  0.29991802  0.46110822
   0.08598192  0.78606390  0.46110822
   0.29991802  0.21393610  0.96110822
   0.70008198  0.91401808  0.46110822
   0.00000000 -0.00000000  0.95197125
   0.07563677  0.48793699  0.78868322
   0.00000000 -0.00000000  0.45197125
   0.66666667  0.33333333  0.51829428
   0.58769978  0.51206301  0.28868322
   0.78606390  0.08598192  0.96110822
   0.91401808  0.70008198  0.96110822
   0.33333333  0.66666667  0.01829428
   0.92436323  0.41230022  0.28868322
   0.41230022  0.92436323  0.78868322
   0.51206301  0.58769978  0.78868322
   0.48793699  0.07563677  0.28868322
Direct configuration=    10
   0.01601247  0.64573013  0.20152659
   0.62971767  0.98398753  0.20152659
   0.90883372  0.32164004  0.99087494
   0.64573013  0.01601247  0.70152659
   0.09116628  0.41280632  0.49087494
   0.32164004  0.90883372  0.49087494
   0.35426987  0.37028233  0.20152659
   0.58719368  0.67835996  0.49087494
   0.98398753  0.62971767  0.70152659
   0.37028233  0.35426987  0.70152659
   0.67835996  0.58719368  0.99087494
   0.41280632  0.09116628  0.99087494
   0.21437351  0.30044776  0.45994121
   0.08607425  0.78562649  0.45994121
   0.30044776  0.21437351  0.95994121
   0.69955224  0.91392575  0.45994121
   0.00000000  0.00000000  0.95043549
   0.07672752  0.48771322  0.79003105
   0.00000000  0.00000000  0.45043549
   0.66666667  0.33333333  0.51857083
   0.58901430  0.51228678  0.29003105
   0.78562649  0.08607425  0.95994121
   0.91392575  0.69955224  0.95994121
   0.33333333  0.66666667  0.01857083
   0.92327248  0.41098570  0.29003105
   0.41098570  0.92327248  0.79003105
   0.51228678  0.58901430  0.79003105
   0.48771322  0.07672752  0.29003105
Direct configuration=    11
   0.01616184  0.64587694  0.20177576
   0.62971510  0.98383816  0.20177576
   0.90880778  0.32144562  0.99057533
   0.64587694  0.01616184  0.70177576
   0.09119222  0.41263783  0.49057533
   0.32144562  0.90880778  0.49057533
   0.35412306  0.37028490  0.20177576
   0.58736217  0.67855438  0.49057533
   0.98383816  0.62971510  0.70177576
   0.37028490  0.35412306  0.70177576
   0.67855438  0.58736217  0.99057533
   0.41263783  0.09119222  0.99057533
   0.21428116  0.30033592  0.46018760
   0.08605476  0.78571884  0.46018760
   0.30033592  0.21428116  0.96018760
   0.69966408  0.91394524  0.46018760
   0.00000000 -0.00000000  0.95075973
   0.07649723  0.48776046  0.78974649
   0.00000000 -0.00000000  0.45075973
   0.66666667  0.33333333  0.51851244
   0.58873677  0.51223954  0.28974649
   0.78571884  0.08605476  0.96018760
   0.91394524  0.69966408  0.96018760
   0.33333333  0.66666667  0.01851244
   0.92350277  0.41126323  0.28974649
   0.41126323  0.92350277  0.78974649
   0.51223954  0.58873677  0.78974649
   0.48776046  0.07649723  0.28974649
Direct configuration=    12
   0.01543110  0.64536272  0.20157844
   0.62993162  0.98456890  0.20157844
   0.90850800  0.32106780  0.99119078
   0.64536272  0.01543110  0.70157844
   0.09149200  0.41255980  0.49119078
   0.32106780  0.90850800  0.49119078
   0.35463728  0.37006838  0.20157844
   0.58744020  0.67893220  0.49119078
   0.98456890  0.62993162  0.70157844
   0.37006838  0.35463728  0.70157844
   0.67893220  0.58744020  0.99119078
   0.41255980  0.09149200  0.99119078
   0.21424535  0.30021186  0.45940142
   0.08596651  0.78575465  0.45940142
   0.30021186  0.21424535  0.95940142
   0.69978814  0.91403349  0.45940142
   0.00000000 -0.00000000  0.94947726
   0.07667549  0.48792288  0.79042822
   0.00000000 -0.00000000  0.44947726
   0.66666667  0.33333333  0.51885386
   0.58875261  0.51207712  0.29042822
   0.78575465  0.08596651  0.95940142
   0.91403349  0.69978814  0.95940142
   0.33333333  0.66666667  0.01885386
   0.92332451  0.41124739  0.29042822
   0.41124739  0.92332451  0.79042822
   0.51207712  0.58875261  0.79042822
   0.48792288  0.07667549  0.29042822
Direct configuration=    13
   0.01500730  0.64506450  0.20146401
   0.63005720  0.98499270  0.20146401
   0.90833414  0.32084868  0.99154771
   0.64506450  0.01500730  0.70146401
   0.09166586  0.41251454  0.49154771
   0.32084868  0.90833414  0.49154771
   0.35493550  0.36994280  0.20146401
   0.58748546  0.67915132  0.49154771
   0.98499270  0.63005720  0.70146401
   0.36994280  0.35493550  0.70146401
   0.67915132  0.58748546  0.99154771
   0.41251454  0.09166586  0.99154771
   0.21422458  0.30013991  0.45894547
   0.08591533  0.78577542  0.45894547
   0.30013991  0.21422458  0.95894547
   0.69986009  0.91408467  0.45894547
   0.00000000 -0.00000000  0.94873349
   0.07677887  0.48801707  0.79082359
   0.00000000 -0.00000000  0.44873349
   0.66666667  0.33333333  0.51905186
   0.58876180  0.51198293  0.29082359
   0.78577542  0.08591533  0.95894547
   0.91408467  0.69986009  0.95894547
   0.33333333  0.66666667  0.01905186
   0.92322113  0.41123820  0.29082359
   0.41123820  0.92322113  0.79082359
   0.51198293  0.58876180  0.79082359
   0.48801707  0.07677887  0.29082359
Direct configuration=    14
   0.01427476  0.64487883  0.20145219
   0.63060407  0.98572524  0.20145219
   0.90847946  0.32082503  0.99177308
   0.64487883  0.01427476  0.70145219
   0.09152054  0.41234557  0.49177308
   0.32082503  0.90847946  0.49177308
   0.35512117  0.36939593  0.20145219
   0.58765443  0.67917497  0.49177308
   0.98572524  0.63060407  0.70145219
   0.36939593  0.35512117  0.70145219
   0.67917497  0.58765443  0.99177308
   0.41234557  0.09152054  0.99177308
   0.21439706  0.30000520  0.45831260
   0.08560813  0.78560294  0.45831260
   0.30000520  0.21439706  0.95831260
   0.69999480  0.91439187  0.45831260
  -0.00000000  0.00000000  0.94682072
   0.07640940  0.48762441  0.79145428
  -0.00000000  0.00000000  0.44682072
   0.66666667  0.33333333  0.52033054
   0.58878500  0.51237559  0.29145428
   0.78560294  0.08560813  0.95831260
   0.91439187  0.69999480  0.95831260
   0.33333333  0.66666667  0.02033054
   0.92359060  0.41121500  0.29145428
   0.41121500  0.92359060  0.79145428
   0.51237559  0.58878500  0.79145428
   0.48762441  0.07640940  0.29145428
Direct configuration=    15
   0.01430647  0.64488686  0.20145270
   0.63058040  0.98569353  0.20145270
   0.90847317  0.32082606  0.99176332
   0.64488686  0.01430647  0.70145270
   0.09152683  0.41235288  0.49176332
   0.32082606  0.90847317  0.49176332
   0.35511314  0.36941960  0.20145270
   0.58764712  0.67917394  0.49176332
   0.98569353  0.63058040  0.70145270
   0.36941960  0.35511314  0.70145270
   0.67917394  0.58764712  0.99176332
   0.41235288  0.09152683  0.99176332
   0.21438960  0.30001103  0.45833999
   0.08562143  0.78561040  0.45833999
   0.30001103  0.21438960  0.95833999
   0.69998897  0.91437857  0.45833999
  -0.00000000  0.00000000  0.94690351
   0.07642540  0.48764140  0.79142698
  -0.00000000  0.00000000  0.44690351
   0.66666667  0.33333333  0.52027519
   0.58878399  0.51235860  0.29142698
   0.78561040  0.08562143  0.95833999
   0.91437857  0.69998897  0.95833999
   0.33333333  0.66666667  0.02027519
   0.92357460  0.41121601  0.29142698
   0.41121601  0.92357460  0.79142698
   0.51235860  0.58878399  0.79142698
   0.48764140  0.07642540  0.29142698
Direct configuration=    16
   0.01399298  0.64480563  0.20155856
   0.63081265  0.98600702  0.20155856
   0.90847896  0.32058274  0.99184413
   0.64480563  0.01399298  0.70155856
   0.09152104  0.41210377  0.49184413
   0.32058274  0.90847896  0.49184413
   0.35519437  0.36918735  0.20155856
   0.58789623  0.67941726  0.49184413
   0.98600702  0.63081265  0.70155856
   0.36918735  0.35519437  0.70155856
   0.67941726  0.58789623  0.99184413
   0.41210377  0.09152104  0.99184413
   0.21417069  0.29998599  0.45842164
   0.08581530  0.78582931  0.45842164
   0.29998599  0.21417069  0.95842164
   0.70001401  0.91418470  0.45842164
  -0.00000000 -0.00000000  0.94525258
   0.07641637  0.48743724  0.79145136
  -0.00000000 -0.00000000  0.44525258
   0.66666667  0.33333333  0.52104804
   0.58897914  0.51256276  0.29145136
   0.78582931  0.08581530  0.95842164
   0.91418470  0.70001401  0.95842164
   0.33333333  0.66666667  0.02104804
   0.92358363  0.41102086  0.29145136
   0.41102086  0.92358363  0.79145136
   0.51256276  0.58897914  0.79145136
   0.48743724  0.07641637  0.29145136
Direct configuration=    17
   0.01398266  0.64480296  0.20156204
   0.63082030  0.98601734  0.20156204
   0.90847915  0.32057472  0.99184679
   0.64480296  0.01398266  0.70156204
   0.09152085  0.41209557  0.49184679
   0.32057472  0.90847915  0.49184679
   0.35519704  0.36917970  0.20156204
   0.58790443  0.67942528  0.49184679
   0.98601734  0.63082030  0.70156204
   0.36917970  0.35519704  0.70156204
   0.67942528  0.58790443  0.99184679
   0.41209557  0.09152085  0.99184679
   0.21416348  0.29998517  0.45842433
   0.08582168  0.78583652  0.45842433
   0.29998517  0.21416348  0.95842433
   0.70001483  0.91417832  0.45842433
  -0.00000000 -0.00000000  0.94519821
   0.07641607  0.48743051  0.79145216
  -0.00000000 -0.00000000  0.44519821
   0.66666667  0.33333333  0.52107350
   0.58898556  0.51256949  0.29145216
   0.78583652  0.08582168  0.95842433
   0.91417832  0.70001483  0.95842433
   0.33333333  0.66666667  0.02107350
   0.92358393  0.41101444  0.29145216
   0.41101444  0.92358393  0.79145216
   0.51256949  0.58898556  0.79145216
   0.48743051  0.07641607  0.29145216
Direct configuration=    18
   0.01384928  0.64473278  0.20180397
   0.63088350  0.98615072  0.20180397
   0.90859693  0.32060678  0.99186976
   0.64473278  0.01384928  0.70180397
   0.09140307  0.41200985  0.49186976
   0.32060678  0.90859693  0.49186976
   0.35526722  0.36911650  0.20180397
   0.58799015  0.67939322  0.49186976
   0.98615072  0.63088350  0.70180397
   0.36911650  0.35526722  0.70180397
   0.67939322  0.58799015  0.99186976
   0.41200985  0.09140307  0.99186976
   0.21413070  0.29991053  0.45852791
   0.08577983  0.78586930  0.45852791
   0.29991053  0.21413070  0.95852791
   0.70008947  0.91422017  0.45852791
  -0.00000000  0.00000000  0.94380615
   0.07655800  0.48744728  0.79143732
  -0.00000000  0.00000000  0.44380615
   0.66666667  0.33333333  0.52140467
   0.58911072  0.51255272  0.29143732
   0.78586930  0.08577983  0.95852791
   0.91422017  0.70008947  0.95852791
   0.33333333  0.66666667  0.02140467
   0.92344200  0.41088928  0.29143732
   0.41088928  0.92344200  0.79143732
   0.51255272  0.58911072  0.79143732
   0.48744728  0.07655800  0.29143732
Direct configuration=    19
   0.01344915  0.64452224  0.20252975
   0.63107309  0.98655085  0.20252975
   0.90895027  0.32070295  0.99193868
   0.64452224  0.01344915  0.70252975
   0.09104973  0.41175268  0.49193868
   0.32070295  0.90895027  0.49193868
   0.35547776  0.36892691  0.20252975
   0.58824732  0.67929705  0.49193868
   0.98655085  0.63107309  0.70252975
   0.36892691  0.35547776  0.70252975
   0.67929705  0.58824732  0.99193868
   0.41175268  0.09104973  0.99193868
   0.21403234  0.29968663  0.45883864
   0.08565429  0.78596766  0.45883864
   0.29968663  0.21403234  0.95883864
   0.70031337  0.91434571  0.45883864
  -0.00000000  0.00000000  0.93962997
   0.07698376  0.48749758  0.79139277
  -0.00000000  0.00000000  0.43962997
   0.66666667  0.33333333  0.52239818
   0.58948618  0.51250242  0.29139277
   0.78596766  0.08565429  0.95883864
   0.91434571  0.70031337  0.95883864
   0.33333333  0.66666667  0.02239818
   0.92301624  0.41051382  0.29139277
   0.41051382  0.92301624  0.79139277
   0.51250242  0.58948618  0.79139277
   0.48749758  0.07698376  0.29139277
Direct configuration=    20
   0.01339182  0.64447635  0.20264917
   0.63108453  0.98660818  0.20264917
   0.90900016  0.32064367  0.99179979
   0.64447635  0.01339182  0.70264917
   0.09099984  0.41164350  0.49179979
   0.32064367  0.90900016  0.49179979
   0.35552365  0.36891547  0.20264917
   0.58835650  0.67935633  0.49179979
   0.98660818  0.63108453  0.70264917
   0.36891547  0.35552365  0.70264917
   0.67935633  0.58835650  0.99179979
   0.41164350  0.09099984  0.99179979
   0.21423468  0.29982240  0.45920144
   0.08558772  0.78576532  0.45920144
   0.29982240  0.21423468  0.95920144
   0.70017760  0.91441228  0.45920144
  -0.00000000  0.00000000  0.93800694
   0.07722226  0.48779478  0.79163521
  -0.00000000  0.00000000  0.43800694
   0.66666667  0.33333333  0.52226388
   0.58942748  0.51220522  0.29163521
   0.78576532  0.08558772  0.95920144
   0.91441228  0.70017760  0.95920144
   0.33333333  0.66666667  0.02226388
   0.92277774  0.41057252  0.29163521
   0.41057252  0.92277774  0.79163521
   0.51220522  0.58942748  0.79163521
   0.48779478  0.07722226  0.29163521
Direct configuration=    21
   0.01338838  0.64447359  0.20265635
   0.63108521  0.98661162  0.20265635
   0.90900316  0.32064010  0.99179144
   0.64447359  0.01338838  0.70265635
   0.09099684  0.41163694  0.49179144
   0.32064010  0.90900316  0.49179144
   0.35552641  0.36891479  0.20265635
   0.58836306  0.67935990  0.49179144
   0.98661162  0.63108521  0.70265635
   0.36891479  0.35552641  0.70265635
   0.67935990  0.58836306  0.99179144
   0.41163694  0.09099684  0.99179144
   0.21424685  0.29983057  0.45922325
   0.08558372  0.78575315  0.45922325
   0.29983057  0.21424685  0.95922325
   0.70016943  0.91441628  0.45922325
  -0.00000000  0.00000000  0.93790939
   0.07723659  0.48781264  0.79164978
  -0.00000000  0.00000000  0.43790939
   0.66666667  0.33333333  0.52225581
   0.58942395  0.51218736  0.29164978
   0.78575315  0.08558372  0.95922325
   0.91441628  0.70016943  0.95922325
   0.33333333  0.66666667  0.02225581
   0.92276341  0.41057605  0.29164978
   0.41057605  0.92276341  0.79164978
   0.51218736  0.58942395  0.79164978
   0.48781264  0.07723659  0.29164978
Direct configuration=    22
   0.01349106  0.64441823  0.20284455
   0.63092718  0.98650894  0.20284455
   0.90902923  0.32070108  0.99189945
   0.64441823  0.01349106  0.70284455
   0.09097077  0.41167184  0.49189945
   0.32070108  0.90902923  0.49189945
   0.35558177  0.36907282  0.20284455
   0.58832816  0.67929892  0.49189945
   0.98650894  0.63092718  0.70284455
   0.36907282  0.35558177  0.70284455
   0.67929892  0.58832816  0.99189945
   0.41167184  0.09097077  0.99189945
   0.21426804  0.29986764  0.45946270
   0.08559960  0.78573196  0.45946270
   0.29986764  0.21426804  0.95946270
   0.70013236  0.91440040  0.45946270
  -0.00000000  0.00000000  0.93631015
   0.07730138  0.48790814  0.79167198
  -0.00000000  0.00000000  0.43631015
   0.66666667  0.33333333  0.52218150
   0.58939324  0.51209186  0.29167198
   0.78573196  0.08559960  0.95946270
   0.91440040  0.70013236  0.95946270
   0.33333333  0.66666667  0.02218150
   0.92269862  0.41060676  0.29167198
   0.41060676  0.92269862  0.79167198
   0.51209186  0.58939324  0.79167198
   0.48790814  0.07730138  0.29167198
Direct configuration=    23
   0.01366396  0.64432502  0.20316146
   0.63066106  0.98633604  0.20316146
   0.90907314  0.32080375  0.99208132
   0.64432502  0.01366396  0.70316146
   0.09092686  0.41173061  0.49208132
   0.32080375  0.90907314  0.49208132
   0.35567498  0.36933894  0.20316146
   0.58826939  0.67919625  0.49208132
   0.98633604  0.63066106  0.70316146
   0.36933894  0.35567498  0.70316146
   0.67919625  0.58826939  0.99208132
   0.41173061  0.09092686  0.99208132
   0.21430372  0.29993006  0.45986591
   0.08562634  0.78569628  0.45986591
   0.29993006  0.21430372  0.95986591
   0.70006994  0.91437366  0.45986591
  -0.00000000  0.00000000  0.93361721
   0.07741048  0.48806894  0.79170935
  -0.00000000  0.00000000  0.43361721
   0.66666667  0.33333333  0.52205637
   0.58934153  0.51193106  0.29170935
   0.78569628  0.08562634  0.95986591
   0.91437366  0.70006994  0.95986591
   0.33333333  0.66666667  0.02205637
   0.92258952  0.41065847  0.29170935
   0.41065847  0.92258952  0.79170935
   0.51193106  0.58934153  0.79170935
   0.48806894  0.07741048  0.29170935
Direct configuration=    24
   0.01377648  0.64439792  0.20323804
   0.63062144  0.98622352  0.20323804
   0.90907236  0.32081998  0.99219302
   0.64439792  0.01377648  0.70323804
   0.09092764  0.41174763  0.49219302
   0.32081998  0.90907236  0.49219302
   0.35560208  0.36937856  0.20323804
   0.58825237  0.67918002  0.49219302
   0.98622352  0.63062144  0.70323804
   0.36937856  0.35560208  0.70323804
   0.67918002  0.58825237  0.99219302
   0.41174763  0.09092764  0.99219302
   0.21426111  0.29992277  0.45998776
   0.08566166  0.78573889  0.45998776
   0.29992277  0.21426111  0.95998776
   0.70007723  0.91433834  0.45998776
  -0.00000000  0.00000000  0.93255482
   0.07736278  0.48798375  0.79173338
  -0.00000000  0.00000000  0.43255482
   0.66666667  0.33333333  0.52211628
   0.58937903  0.51201625  0.29173338
   0.78573889  0.08566166  0.95998776
   0.91433834  0.70007723  0.95998776
   0.33333333  0.66666667  0.02211628
   0.92263722  0.41062097  0.29173338
   0.41062097  0.92263722  0.79173338
   0.51201625  0.58937903  0.79173338
   0.48798375  0.07736278  0.29173338
Direct configuration=    25
   0.01405791  0.64458027  0.20342956
   0.63052236  0.98594209  0.20342956
   0.90907040  0.32086058  0.99247238
   0.64458027  0.01405791  0.70342956
   0.09092960  0.41179019  0.49247238
   0.32086058  0.90907040  0.49247238
   0.35541973  0.36947764  0.20342956
   0.58820981  0.67913942  0.49247238
   0.98594209  0.63052236  0.70342956
   0.36947764  0.35541973  0.70342956
   0.67913942  0.58820981  0.99247238
   0.41179019  0.09092960  0.99247238
   0.21415453  0.29990455  0.46029253
   0.08575002  0.78584547  0.46029253
   0.29990455  0.21415453  0.96029253
   0.70009545  0.91424998  0.46029253
  -0.00000000  0.00000000  0.92989768
   0.07724348  0.48777067  0.79179349
  -0.00000000  0.00000000  0.42989768
   0.66666667  0.33333333  0.52226613
   0.58947281  0.51222933  0.29179349
   0.78584547  0.08575002  0.96029253
   0.91424998  0.70009545  0.96029253
   0.33333333  0.66666667  0.02226613
   0.92275652  0.41052719  0.29179349
   0.41052719  0.92275652  0.79179349
   0.51222933  0.58947281  0.79179349
   0.48777067  0.07724348  0.29179349
Direct configuration=    26
   0.01409435  0.64468360  0.20334685
   0.63058925  0.98590565  0.20334685
   0.90902845  0.32077625  0.99250636
   0.64468360  0.01409435  0.70334685
   0.09097155  0.41174780  0.49250636
   0.32077625  0.90902845  0.49250636
   0.35531640  0.36941075  0.20334685
   0.58825220  0.67922375  0.49250636
   0.98590565  0.63058925  0.70334685
   0.36941075  0.35531640  0.70334685
   0.67922375  0.58825220  0.99250636
   0.41174780  0.09097155  0.99250636
   0.21413305  0.29982625  0.46031084
   0.08569320  0.78586695  0.46031084
   0.29982625  0.21413305  0.96031084
   0.70017375  0.91430680  0.46031084
  -0.00000000  0.00000000  0.92950147
   0.07713829  0.48772388  0.79193935
  -0.00000000  0.00000000  0.42950147
   0.66666667  0.33333333  0.52231597
   0.58941441  0.51227612  0.29193935
   0.78586695  0.08569320  0.96031084
   0.91430680  0.70017375  0.96031084
   0.33333333  0.66666667  0.02231597
   0.92286171  0.41058559  0.29193935
   0.41058559  0.92286171  0.79193935
   0.51227612  0.58941441  0.79193935
   0.48772388  0.07713829  0.29193935
Direct configuration=    27
   0.01416386  0.64488071  0.20318908
   0.63071685  0.98583614  0.20318908
   0.90894844  0.32061537  0.99257119
   0.64488071  0.01416386  0.70318908
   0.09105156  0.41166693  0.49257119
   0.32061537  0.90894844  0.49257119
   0.35511929  0.36928315  0.20318908
   0.58833307  0.67938463  0.49257119
   0.98583614  0.63071685  0.70318908
   0.36928315  0.35511929  0.70318908
   0.67938463  0.58833307  0.99257119
   0.41166693  0.09105156  0.99257119
   0.21409207  0.29967690  0.46034578
   0.08558483  0.78590793  0.46034578
   0.29967690  0.21409207  0.96034578
   0.70032310  0.91441517  0.46034578
  -0.00000000 -0.00000000  0.92874567
   0.07693763  0.48763462  0.79221761
  -0.00000000 -0.00000000  0.42874567
   0.66666667  0.33333333  0.52241104
   0.58930301  0.51236538  0.29221761
   0.78590793  0.08558483  0.96034578
   0.91441517  0.70032310  0.96034578
   0.33333333  0.66666667  0.02241104
   0.92306237  0.41069699  0.29221761
   0.41069699  0.92306237  0.79221761
   0.51236538  0.58930301  0.79221761
   0.48763462  0.07693763  0.29221761
Direct configuration=    28
   0.01420730  0.64491409  0.20315840
   0.63070678  0.98579270  0.20315840
   0.90889611  0.32055460  0.99279363
   0.64491409  0.01420730  0.70315840
   0.09110389  0.41165849  0.49279363
   0.32055460  0.90889611  0.49279363
   0.35508591  0.36929322  0.20315840