  56  56   0   0
  0.8433259E+01  0.7787436E-09  0.7787436E-09  0.7787436E-09  0.5000000E-15
  1.000000000000000E-004
  CAR 
 unknown system                          
     15.21776049    -10.53476050  301     10.12416136      1.00000000
    -10.535  0.0000E+00  0.0000E+00
    -10.449  0.0000E+00  0.0000E+00
    -10.363  0.0000E+00  0.0000E+00
    -10.277  0.0000E+00  0.0000E+00
    -10.191  0.1595E-30  0.1369E-31
    -10.106  0.8099E-25  0.6952E-26
    -10.020  0.9110E-20  0.7821E-21
     -9.934  0.2265E-15  0.1944E-16
     -9.848  0.1236E-11  0.1062E-12
     -9.762  0.1473E-08  0.1266E-09
     -9.676  0.3740E-06  0.3223E-07
     -9.591  0.1809E-04  0.1585E-05
     -9.505  0.6506E-04  0.7169E-05
     -9.419 -0.6771E-03 -0.5095E-04
     -9.333  0.5233E-02  0.3982E-03
     -9.247  0.2220E-01  0.2304E-02
     -9.161  0.4011E-01  0.5747E-02
     -9.075  0.4312E-01  0.9449E-02
     -8.990  0.6326E-01  0.1488E-01
     -8.904  0.6715E-01  0.2064E-01
     -8.818  0.7431E-01  0.2702E-01
     -8.732  0.1090E+00  0.3638E-01
     -8.646  0.1056E+00  0.4544E-01
     -8.560  0.1584E+00  0.5904E-01
     -8.475  0.1380E+00  0.7088E-01
     -8.389  0.1191E+00  0.8111E-01
     -8.303  0.2638E+00  0.1038E+00
     -8.217  0.3012E+00  0.1296E+00
     -8.131  0.2079E+00  0.1475E+00
     -8.045  0.1279E+00  0.1584E+00
     -7.960  0.7406E-02  0.1591E+00
     -7.874  0.9540E-01  0.1673E+00
     -7.788  0.3592E+00  0.1981E+00
     -7.702  0.2779E+00  0.2220E+00
     -7.616  0.1818E+00  0.2376E+00
     -7.530  0.6825E-01  0.2434E+00
     -7.444  0.4975E-01  0.2477E+00
     -7.359  0.1157E+00  0.2576E+00
     -7.273  0.8261E-01  0.2647E+00
     -7.187  0.5943E-01  0.2698E+00
     -7.101  0.1331E+00  0.2812E+00
     -7.015  0.9897E-01  0.2897E+00
     -6.929  0.6492E-01  0.2953E+00
     -6.844  0.1134E+00  0.3050E+00
     -6.758  0.5752E-01  0.3100E+00
     -6.672  0.3456E-01  0.3129E+00
     -6.586  0.4036E-01  0.3164E+00
     -6.500 -0.3116E-01  0.3137E+00
     -6.414  0.4607E+00  0.3533E+00
     -6.329  0.1270E+01  0.4623E+00
     -6.243  0.2520E+00  0.4839E+00
     -6.157 -0.5209E-01  0.4794E+00
     -6.071  0.5771E-02  0.4799E+00
     -5.985  0.6664E-03  0.4800E+00
     -5.899  0.7294E-05  0.4800E+00
     -5.813  0.1433E-07  0.4800E+00
     -5.728  0.5728E-11  0.4800E+00
     -5.642  0.4771E-15  0.4800E+00
     -5.556  0.0000E+00  0.4800E+00
     -5.470  0.0000E+00  0.4800E+00
     -5.384  0.0000E+00  0.4800E+00
     -5.298  0.0000E+00  0.4800E+00
     -5.213  0.0000E+00  0.4800E+00
     -5.127  0.0000E+00  0.4800E+00
     -5.041  0.0000E+00  0.4800E+00
     -4.955  0.0000E+00  0.4800E+00
     -4.869  0.0000E+00  0.4800E+00
     -4.783  0.0000E+00  0.4800E+00
     -4.698  0.0000E+00  0.4800E+00
     -4.612  0.0000E+00  0.4800E+00
     -4.526  0.0000E+00  0.4800E+00
     -4.440  0.0000E+00  0.4800E+00
     -4.354  0.0000E+00  0.4800E+00
     -4.268  0.0000E+00  0.4800E+00
     -4.182  0.0000E+00  0.4800E+00
     -4.097  0.0000E+00  0.4800E+00
     -4.011  0.0000E+00  0.4800E+00
     -3.925  0.0000E+00  0.4800E+00
     -3.839  0.0000E+00  0.4800E+00
     -3.753  0.0000E+00  0.4800E+00
     -3.667  0.0000E+00  0.4800E+00
     -3.582  0.0000E+00  0.4800E+00
     -3.496  0.0000E+00  0.4800E+00
     -3.410  0.0000E+00  0.4800E+00
     -3.324  0.0000E+00  0.4800E+00
     -3.238  0.0000E+00  0.4800E+00
     -3.152  0.0000E+00  0.4800E+00
     -3.067  0.0000E+00  0.4800E+00
     -2.981  0.0000E+00  0.4800E+00
     -2.895  0.0000E+00  0.4800E+00
     -2.809  0.0000E+00  0.4800E+00
     -2.723  0.0000E+00  0.4800E+00
     -2.637  0.0000E+00  0.4800E+00
     -2.551  0.0000E+00  0.4800E+00
     -2.466  0.0000E+00  0.4800E+00
     -2.380  0.0000E+00  0.4800E+00
     -2.294  0.0000E+00  0.4800E+00
     -2.208  0.0000E+00  0.4800E+00
     -2.122  0.0000E+00  0.4800E+00
     -2.036  0.0000E+00  0.4800E+00
     -1.951  0.0000E+00  0.4800E+00
     -1.865  0.0000E+00  0.4800E+00
     -1.779  0.0000E+00  0.4800E+00
     -1.693  0.1735E-29  0.4800E+00
     -1.607  0.8904E-24  0.4800E+00
     -1.521  0.1009E-18  0.4800E+00
     -1.436  0.2508E-14  0.4800E+00
     -1.350  0.1349E-10  0.4800E+00
     -1.264  0.1545E-07  0.4800E+00
     -1.178  0.3623E-05  0.4800E+00
     -1.092  0.1530E-03  0.4800E+00
     -1.006  0.3781E-03  0.4800E+00
     -0.920 -0.4579E-02  0.4797E+00
     -0.835  0.4037E-01  0.4831E+00
     -0.749  0.1818E+00  0.4987E+00
     -0.663  0.2738E+00  0.5222E+00
     -0.577  0.3432E+00  0.5517E+00
     -0.491  0.3746E+00  0.5838E+00
     -0.405  0.4411E+00  0.6217E+00
     -0.320  0.3165E+00  0.6489E+00
     -0.234  0.2423E+00  0.6697E+00
     -0.148  0.2540E+00  0.6915E+00
     -0.062  0.2394E+00  0.7120E+00
      0.024  0.1783E+00  0.7273E+00
      0.110  0.1724E+00  0.7421E+00
      0.195  0.1985E+00  0.7592E+00
      0.281  0.2095E+00  0.7772E+00
      0.367  0.2211E+00  0.7961E+00
      0.453  0.1639E+00  0.8102E+00
      0.539  0.1754E+00  0.8253E+00
      0.625  0.8120E-01  0.8322E+00
      0.711  0.9557E-01  0.8404E+00
      0.796  0.2383E+00  0.8609E+00
      0.882  0.1615E+00  0.8748E+00
      0.968  0.2091E+00  0.8927E+00
      1.054  0.3301E+00  0.9210E+00
      1.140  0.2503E+00  0.9425E+00
      1.226  0.1666E+00  0.9568E+00
      1.311  0.2122E+00  0.9750E+00
      1.397  0.2473E+00  0.9963E+00
      1.483  0.2076E+00  0.1014E+01
      1.569  0.9761E-01  0.1022E+01
      1.655  0.1969E+00  0.1039E+01
      1.741  0.1313E+00  0.1051E+01
      1.826  0.4965E-01  0.1055E+01
      1.912  0.4179E-01  0.1059E+01
      1.998  0.1580E+00  0.1072E+01
      2.084  0.1938E+00  0.1089E+01
      2.170  0.1435E+00  0.1101E+01
      2.256  0.1081E+00  0.1110E+01
      2.341  0.9821E-01  0.1119E+01
      2.427  0.1230E+00  0.1129E+01
      2.513  0.2646E+00  0.1152E+01
      2.599  0.3601E+00  0.1183E+01
      2.685  0.2222E+00  0.1202E+01
      2.771  0.2980E+00  0.1228E+01
      2.857  0.3791E+00  0.1260E+01
      2.942  0.2949E+00  0.1285E+01
      3.028  0.3146E+00  0.1312E+01
      3.114  0.2842E+00  0.1337E+01
      3.200  0.3505E+00  0.1367E+01
      3.286  0.4088E+00  0.1402E+01
      3.372  0.2691E+00  0.1425E+01
      3.457  0.1958E+00  0.1442E+01
      3.543  0.2433E+00  0.1463E+01
      3.629  0.2919E+00  0.1488E+01
      3.715  0.2616E+00  0.1510E+01
      3.801  0.3896E+00  0.1544E+01
      3.887  0.4192E+00  0.1580E+01
      3.972  0.3694E+00  0.1611E+01
      4.058  0.2378E+00  0.1632E+01
      4.144  0.1436E+00  0.1644E+01
      4.230  0.1169E+00  0.1654E+01
      4.316  0.2283E+00  0.1674E+01
      4.402  0.1666E+00  0.1688E+01
      4.488  0.6921E-01  0.1694E+01
      4.573  0.1372E+00  0.1706E+01
      4.659  0.1091E+00  0.1715E+01
      4.745  0.1027E+00  0.1724E+01
      4.831  0.1463E+00  0.1737E+01
      4.917  0.7678E-01  0.1743E+01
      5.003  0.1492E+00  0.1756E+01
      5.088  0.1339E+00  0.1767E+01
      5.174  0.9225E-01  0.1775E+01
      5.260  0.6168E-01  0.1781E+01
      5.346  0.1391E+00  0.1793E+01
      5.432  0.1396E+00  0.1805E+01
      5.518  0.1005E+00  0.1813E+01
      5.603  0.1814E+00  0.1829E+01
      5.689  0.2982E+00  0.1854E+01
      5.775  0.2764E+00  0.1878E+01
      5.861  0.2344E+00  0.1898E+01
      5.947  0.1254E+00  0.1909E+01
      6.033  0.8645E-01  0.1916E+01
      6.119  0.3521E-01  0.1919E+01
      6.204  0.8107E-02  0.1920E+01
      6.290  0.1707E-02  0.1920E+01
      6.376  0.3815E-02  0.1921E+01
      6.462  0.8335E-02  0.1921E+01
      6.548  0.8942E-02  0.1922E+01
      6.634  0.5947E-02  0.1923E+01
      6.719  0.2027E-01  0.1924E+01
      6.805  0.2083E-01  0.1926E+01
      6.891  0.3090E-01  0.1929E+01
      6.977  0.4779E-01  0.1933E+01
      7.063  0.5699E-01  0.1938E+01
      7.149  0.4892E-01  0.1942E+01
      7.234  0.4309E-01  0.1946E+01
      7.320  0.1248E+00  0.1956E+01
      7.406  0.8490E-01  0.1964E+01
      7.492  0.8367E-01  0.1971E+01
      7.578  0.9166E-01  0.1979E+01
      7.664  0.1037E+00  0.1988E+01
      7.750  0.1036E+00  0.1997E+01
      7.835  0.6970E-01  0.2003E+01
      7.921  0.5987E-01  0.2008E+01
      8.007  0.1122E+00  0.2017E+01
      8.093  0.1394E+00  0.2029E+01
      8.179  0.1398E+00  0.2041E+01
      8.265  0.1923E+00  0.2058E+01
      8.350  0.1756E+00  0.2073E+01
      8.436  0.1422E+00  0.2085E+01
      8.522  0.2265E+00  0.2104E+01
      8.608  0.2598E+00  0.2127E+01
      8.694  0.2345E+00  0.2147E+01
      8.780  0.1764E+00  0.2162E+01
      8.865  0.2515E+00  0.2184E+01
      8.951  0.2704E+00  0.2207E+01
      9.037  0.2341E+00  0.2227E+01
      9.123  0.2277E+00  0.2246E+01
      9.209  0.1927E+00  0.2263E+01
      9.295  0.1698E+00  0.2278E+01
      9.381  0.1839E+00  0.2293E+01
      9.466  0.2927E+00  0.2319E+01
      9.552  0.2140E+00  0.2337E+01
      9.638  0.1567E+00  0.2350E+01
      9.724  0.1635E+00  0.2364E+01
      9.810  0.2956E+00  0.2390E+01
      9.896  0.3038E+00  0.2416E+01
      9.981  0.3828E+00  0.2449E+01
     10.067  0.2761E+00  0.2472E+01
     10.153  0.1069E+00  0.2482E+01
     10.239  0.4912E-01  0.2486E+01
     10.325  0.6273E-01  0.2491E+01
     10.411  0.6896E-01  0.2497E+01
     10.496  0.5370E-01  0.2502E+01
     10.582  0.1289E+00  0.2513E+01
     10.668  0.1488E+00  0.2526E+01
     10.754  0.1630E+00  0.2540E+01
     10.840  0.2883E+00  0.2564E+01
     10.926  0.2169E+00  0.2583E+01
     11.012  0.1485E+00  0.2596E+01
     11.097  0.2203E+00  0.2615E+01
     11.183  0.2754E+00  0.2638E+01
     11.269  0.2079E+00  0.2656E+01
     11.355  0.2148E+00  0.2674E+01
     11.441  0.2444E+00  0.2695E+01
     11.527  0.2581E+00  0.2718E+01
     11.612  0.3129E+00  0.2744E+01
     11.698  0.2511E+00  0.2766E+01
     11.784  0.3903E+00  0.2800E+01
     11.870  0.2769E+00  0.2823E+01
     11.956  0.3078E+00  0.2850E+01
     12.042  0.2216E+00  0.2869E+01
     12.127  0.1621E+00  0.2883E+01
     12.213  0.3332E+00  0.2911E+01
     12.299  0.3515E+00  0.2941E+01
     12.385  0.2237E+00  0.2961E+01
     12.471  0.1497E+00  0.2973E+01
     12.557  0.1414E+00  0.2986E+01
     12.643  0.2629E+00  0.3008E+01
     12.728  0.2172E+00  0.3027E+01
     12.814  0.1731E+00  0.3042E+01
     12.900  0.1645E+00  0.3056E+01
     12.986  0.1235E+00  0.3066E+01
     13.072  0.1415E+00  0.3079E+01
     13.158  0.1863E+00  0.3095E+01
     13.243  0.1091E+00  0.3104E+01
     13.329  0.6048E-01  0.3109E+01
     13.415  0.3313E-01  0.3112E+01
     13.501  0.3076E-01  0.3115E+01
     13.587  0.2374E-01  0.3117E+01
     13.673  0.2283E-01  0.3119E+01
     13.758  0.1235E-02  0.3119E+01
     13.844  0.7480E-02  0.3119E+01
     13.930  0.6016E-02  0.3120E+01
     14.016 -0.7622E-04  0.3120E+01
     14.102  0.1623E-02  0.3120E+01
     14.188  0.7813E-04  0.3120E+01
     14.274 -0.3781E-04  0.3120E+01
     14.359  0.6985E-05  0.3120E+01
     14.445  0.2809E-06  0.3120E+01
     14.531  0.1452E-08  0.3120E+01
     14.617  0.1376E-11  0.3120E+01
     14.703  0.2643E-15  0.3120E+01
     14.789  0.0000E+00  0.3120E+01
     14.874  0.0000E+00  0.3120E+01
     14.960  0.0000E+00  0.3120E+01
     15.046  0.0000E+00  0.3120E+01
     15.132  0.0000E+00  0.3120E+01
     15.218  0.0000E+00  0.3120E+01
