 running on   16 total cores
 distrk:  each k-point on   16 cores,    1 groups
 distr:  one band on    4 cores,    4 groups
 using from now: INCAR     
 vasp.5.4.4.18Apr17-6-g9f103f2a35 (build Nov 01 2019 12:17:22) complex          
  
 POSCAR found type information on POSCAR  Si N 
 POSCAR found :  2 types and      56 ions
 WARNING: type information on POSCAR and POTCAR are incompatible
 POTCAR overwrites the type information in POSCAR
 typ   1 type information:  Si N 
 WARNING: type information on POSCAR and POTCAR are incompatible
 POTCAR overwrites the type information in POSCAR
 typ   2 type information:  N  Si
 LDA part: xc-table for Pade appr. of Perdew
 generate k-points for:    6    6    6
 POSCAR, INCAR and KPOINTS ok, starting setup
 FFT: planning ...
 WAVECAR not read
 entering main loop
       N       E                     dE             d eps       ncg     rms          rms(c)
DAV:   1     0.959773977008E+03    0.95977E+03   -0.10452E+05  6240   0.121E+03
DAV:   2    -0.221216319808E+03   -0.11810E+04   -0.11402E+04  7872   0.262E+02
DAV:   3    -0.310471045316E+03   -0.89255E+02   -0.84515E+02  7808   0.657E+01
DAV:   4    -0.313992125547E+03   -0.35211E+01   -0.33144E+01  8040   0.104E+01
DAV:   5    -0.314125281905E+03   -0.13316E+00   -0.13059E+00  7752   0.164E+00    0.488E+01
RMM:   6    -0.285528946677E+03    0.28596E+02   -0.12526E+02  6244   0.204E+01    0.243E+01
RMM:   7    -0.284966581499E+03    0.56237E+00   -0.65179E+00  6539   0.421E+00    0.131E+01
RMM:   8    -0.284711199200E+03    0.25538E+00   -0.12335E+00  6321   0.183E+00    0.417E+00
RMM:   9    -0.284657898458E+03    0.53301E-01   -0.18084E-01  6588   0.738E-01    0.458E-01
RMM:  10    -0.284656299654E+03    0.15988E-02   -0.53841E-02  6873   0.305E-01    0.239E-01
RMM:  11    -0.284656513864E+03   -0.21421E-03   -0.59206E-03  6825   0.113E-01    0.850E-02
RMM:  12    -0.284656396229E+03    0.11763E-03   -0.12517E-03  5337   0.386E-02    0.170E-02
RMM:  13    -0.284656410769E+03   -0.14540E-04   -0.23803E-04  4127   0.158E-02
   1 F= -.28465641E+03 E0= -.28465685E+03  d E =-.284656E+03
 curvature:   0.00 expect dE= 0.000E+00 dE for cont linesearch  0.000E+00
 trial: gam= 0.00000 g(F)=  0.542E+02 g(S)=  0.122E+03 ort = 0.000E+00 (trialstep = 0.100E+01)
 search vector abs. value=  0.176E+03
 bond charge predicted
       N       E                     dE             d eps       ncg     rms          rms(c)
DAV:   1    -0.443418605347E+03   -0.15876E+03   -0.36697E+03  6544   0.140E+02    0.854E+01
RMM:   2    -0.323269296430E+03    0.12015E+03   -0.76903E+02  6478   0.474E+01    0.366E+01
RMM:   3    -0.292018459169E+03    0.31251E+02   -0.62229E+01  6247   0.143E+01    0.186E+01
RMM:   4    -0.288878414975E+03    0.31400E+01   -0.69212E+00  6507   0.421E+00    0.924E+00
RMM:   5    -0.288170100332E+03    0.70831E+00   -0.33120E+00  6412   0.256E+00    0.175E+00
RMM:   6    -0.288122921327E+03    0.47179E-01   -0.55815E-01  6595   0.105E+00    0.123E+00
RMM:   7    -0.288100871769E+03    0.22050E-01   -0.10590E-01  6461   0.463E-01    0.353E-01
RMM:   8    -0.288099200405E+03    0.16714E-02   -0.28255E-02  6776   0.217E-01    0.174E-01
RMM:   9    -0.288099434409E+03   -0.23400E-03   -0.68760E-03  6670   0.871E-02    0.941E-02
RMM:  10    -0.288099230671E+03    0.20374E-03   -0.87686E-04  4935   0.371E-02    0.245E-02
RMM:  11    -0.288099238920E+03   -0.82482E-05   -0.13238E-04  3845   0.144E-02
   2 F= -.28809924E+03 E0= -.28810289E+03  d E =-.344283E+01
 trial-energy change:   -3.442828  1 .order  -29.883206 -176.410685  116.644273
 step:   0.4672(harm=  0.6020)  dis= 0.07709  next Energy=  -323.170886 (dE=-0.385E+02)
 bond charge predicted
       N       E                     dE             d eps       ncg     rms          rms(c)
DAV:   1    -0.357301255315E+03   -0.69202E+02   -0.12619E+03  6452   0.928E+01    0.484E+01
RMM:   2    -0.325910347624E+03    0.31391E+02   -0.16094E+02  6240   0.264E+01    0.125E+01
RMM:   3    -0.323867985035E+03    0.20424E+01   -0.13357E+01  6268   0.704E+00    0.673E+00
RMM:   4    -0.322907716904E+03    0.96027E+00   -0.19520E+00  6243   0.244E+00    0.408E+00
RMM:   5    -0.322734574950E+03    0.17314E+00   -0.24662E-01  6290   0.964E-01    0.210E+00
RMM:   6    -0.322716589918E+03    0.17985E-01   -0.19101E-01  6442   0.774E-01    0.765E-01
RMM:   7    -0.322714050893E+03    0.25390E-02   -0.19517E-02  6267   0.252E-01    0.151E-01
RMM:   8    -0.322713641325E+03    0.40957E-03   -0.57811E-03  6441   0.123E-01    0.709E-02
RMM:   9    -0.322713557340E+03    0.83984E-04   -0.64902E-04  4857   0.336E-02
   3 F= -.32271356E+03 E0= -.32271548E+03  d E =-.380571E+02
 curvature:  -0.27 expect dE=-0.115E+01 dE for cont linesearch -0.201E+00
 ZBRENT: interpolating
 opt :   0.4385  next Energy=  -322.878858 (dE=-0.382E+02)
 bond charge predicted
       N       E                     dE             d eps       ncg     rms          rms(c)
DAV:   1    -0.323050096408E+03   -0.33646E+00   -0.35748E+00  7116   0.500E+00    0.244E+00
RMM:   2    -0.322954100679E+03    0.95996E-01   -0.51119E-01  6240   0.149E+00    0.772E-01
RMM:   3    -0.322943960809E+03    0.10140E-01   -0.41891E-02  6266   0.372E-01    0.292E-01
RMM:   4    -0.322941683343E+03    0.22775E-02   -0.31359E-03  6402   0.918E-02    0.155E-01
RMM:   5    -0.322941116791E+03    0.56655E-03   -0.12184E-03  6057   0.583E-02    0.678E-02
RMM:   6    -0.322941137579E+03   -0.20788E-04   -0.39700E-04  4536   0.378E-02
   4 F= -.32294114E+03 E0= -.32294313E+03  d E =-.382847E+02
 curvature:  -0.22 expect dE=-0.761E+00 dE for cont linesearch -0.117E-01
 ZBRENT: interpolating
 opt :   0.4284  next Energy=  -322.957003 (dE=-0.383E+02)
 bond charge predicted
       N       E                     dE             d eps       ncg     rms          rms(c)
DAV:   1    -0.322979218185E+03   -0.38101E-01   -0.45517E-01  6832   0.179E+00    0.869E-01
RMM:   2    -0.322966860671E+03    0.12358E-01   -0.66549E-02  6244   0.541E-01    0.279E-01
RMM:   3    -0.322965544269E+03    0.13164E-02   -0.54791E-03  6219   0.134E-01    0.104E-01
RMM:   4    -0.322965250746E+03    0.29352E-03   -0.38424E-04  4324   0.332E-02    0.537E-02
RMM:   5    -0.322965184346E+03    0.66400E-04   -0.18280E-04  3672   0.253E-02
   5 F= -.32296518E+03 E0= -.32296723E+03  d E =-.383088E+02
 curvature:  -0.30 expect dE=-0.997E+00 dE for cont linesearch -0.138E-04
 trial: gam= 0.01946 g(F)=  0.233E+01 g(S)=  0.101E+01 ort =-0.904E-01 (trialstep = 0.886E+00)
 search vector abs. value=  0.341E+01
 bond charge predicted
       N       E                     dE             d eps       ncg     rms          rms(c)
DAV:   1    -0.324583498602E+03   -0.16182E+01   -0.52455E+01  6408   0.189E+01    0.843E+00
RMM:   2    -0.323666352093E+03    0.91715E+00   -0.62888E+00  6240   0.547E+00    0.339E+00
RMM:   3    -0.323557021079E+03    0.10933E+00   -0.45213E-01  6438   0.112E+00    0.155E+00
RMM:   4    -0.323517962994E+03    0.39058E-01   -0.85063E-02  6370   0.438E-01    0.597E-01
RMM:   5    -0.323512088077E+03    0.58749E-02   -0.14616E-02  6394   0.226E-01    0.251E-01
RMM:   6    -0.323512536787E+03   -0.44871E-03   -0.91713E-03  6401   0.151E-01    0.159E-01
RMM:   7    -0.323511749530E+03    0.78726E-03   -0.24146E-03  6256   0.806E-02    0.488E-02
RMM:   8    -0.323511732452E+03    0.17079E-04   -0.66452E-04  5408   0.410E-02
   6 F= -.32351173E+03 E0= -.32351236E+03  d E =-.546548E+00
 trial-energy change:   -0.546548  1 .order   -0.654127   -2.958283    1.650029
 step:   0.5390(harm=  0.5686)  dis= 0.01670  next Energy=  -323.841111 (dE=-0.876E+00)
 bond charge predicted
       N       E                     dE             d eps       ncg     rms          rms(c)
DAV:   1    -0.323996136994E+03   -0.48439E+00   -0.80306E+00  6412   0.753E+00    0.336E+00
RMM:   2    -0.323864278497E+03    0.13186E+00   -0.97381E-01  6240   0.225E+00    0.128E+00
RMM:   3    -0.323847636531E+03    0.16642E-01   -0.74235E-02  6411   0.459E-01    0.539E-01
RMM:   4    -0.323841658865E+03    0.59777E-02   -0.11851E-02  6343   0.167E-01    0.232E-01
RMM:   5    -0.323840706240E+03    0.95263E-03   -0.21842E-03  6399   0.879E-02    0.103E-01
RMM:   6    -0.323840858995E+03   -0.15275E-03   -0.16737E-03  6365   0.668E-02    0.704E-02
RMM:   7    -0.323840702733E+03    0.15626E-03   -0.24913E-04  3952   0.287E-02    0.289E-02
RMM:   8    -0.323840687685E+03    0.15048E-04   -0.25469E-04  4025   0.285E-02
   7 F= -.32384069E+03 E0= -.32384240E+03  d E =-.875503E+00
 curvature:  -0.29 expect dE=-0.111E-01 dE for cont linesearch -0.355E-04
 trial: gam= 0.00255 g(F)=  0.148E-01 g(S)=  0.238E-01 ort =-0.205E-01 (trialstep = 0.816E+00)
 search vector abs. value=  0.386E-01
 bond charge predicted
       N       E                     dE             d eps       ncg     rms          rms(c)
DAV:   1    -0.323868329472E+03   -0.27627E-01   -0.65322E-01  6808   0.214E+00    0.104E+00
RMM:   2    -0.323850339391E+03    0.17990E-01   -0.10113E-01  6240   0.661E-01    0.343E-01
RMM:   3    -0.323848444120E+03    0.18953E-02   -0.81516E-03  6299   0.160E-01    0.131E-01
RMM:   4    -0.323847987923E+03    0.45620E-03   -0.65797E-04  5372   0.415E-02    0.668E-02
RMM:   5    -0.323847885696E+03    0.10223E-03   -0.24564E-04  3896   0.285E-02    0.265E-02
RMM:   6    -0.323847890570E+03   -0.48741E-05   -0.47382E-05  3596   0.142E-02
   8 F= -.32384789E+03 E0= -.32384973E+03  d E =-.720288E-02
 trial-energy change:   -0.007203  1 .order   -0.007125   -0.031517    0.017266
 step:   0.5274(harm=  0.5274)  dis= 0.00148  next Energy=  -323.850869 (dE=-0.102E-01)
 bond charge predicted
       N       E                     dE             d eps       ncg     rms          rms(c)
DAV:   1    -0.323853489449E+03   -0.56038E-02   -0.81894E-02  6768   0.756E-01    0.370E-01
RMM:   2    -0.323851199133E+03    0.22903E-02   -0.12846E-02  6241   0.235E-01    0.123E-01
RMM:   3    -0.323850952382E+03    0.24675E-03   -0.98696E-04  5557   0.560E-02    0.483E-02
RMM:   4    -0.323850894324E+03    0.58058E-04   -0.64996E-05  3454   0.155E-02
   9 F= -.32385089E+03 E0= -.32385269E+03  d E =-.102066E-01
 curvature:  -0.26 expect dE=-0.635E-06 dE for cont linesearch -0.578E-06
 trial: gam= 0.00000 g(F)=  0.170E-05 g(S)=  0.712E-06 ort =-0.291E-03 (trialstep = 0.759E+00)
 search vector abs. value=  0.241E-05
 reached required accuracy - stopping structural energy minimisation
