 vasp.5.4.4.18Apr17-6-g9f103f2a35 (build Nov 01 2019 12:17:22) complex          
  
 executed on             LinuxIFC date 2023.05.19  11:27:23
 running on   16 total cores
 distrk:  each k-point on   16 cores,    1 groups
 distr:  one band on NCORES_PER_BAND=   4 cores,    4 groups


--------------------------------------------------------------------------------------------------------


 INCAR:
 POTCAR:    PAW_PBE N 08Apr2002                   
 POTCAR:    PAW_PBE Si 05Jan2001                  
 POTCAR:    PAW_PBE N 08Apr2002                   
   VRHFIN =N: s2p3                                                              
   LEXCH  = PE                                                                  
   EATOM  =   264.5486 eV,   19.4438 Ry                                         
                                                                                
   TITEL  = PAW_PBE N 08Apr2002                                                 
   LULTRA =        F    use ultrasoft PP ?                                      
   IUNSCR =        1    unscreen: 0-lin 1-nonlin 2-no                           
   RPACOR =    1.200    partial core radius                                     
   POMASS =   14.001; ZVAL   =    5.000    mass and valenz                      
   RCORE  =    1.500    outmost cutoff radius                                   
   RWIGS  =    1.400; RWIGS  =    0.741    wigner-seitz radius (au A)           
   ENMAX  =  400.000; ENMIN  =  300.000 eV                                      
   ICORE  =        2    local potential                                         
   LCOR   =        T    correct aug charges                                     
   LPAW   =        T    paw PP                                                  
   EAUG   =  627.112                                                            
   DEXC   =    0.000                                                            
   RMAX   =    1.529    core radius for proj-oper                               
   RAUG   =    1.300    factor for augmentation sphere                          
   RDEP   =    1.514    radius for radial grids                                 
   RDEPT  =    1.338    core radius for aug-charge                              
                                                                                
   Atomic configuration                                                         
    4 entries                                                                   
     n  l   j            E        occ.                                          
     1  0  0.50      -384.7179   2.0000                                         
     2  0  0.50       -18.5828   2.0000                                         
     2  1  0.50        -7.0898   3.0000                                         
     3  2  1.50        -6.8029   0.0000                                         
   Description                                                                  
     l       E           TYP  RCUT    TYP  RCUT                                 
     0    -18.5828119     23  1.200                                             
     0    -13.5018863     23  1.200                                             
     1     -7.0897853     23  1.500                                             
     1      9.5240782     23  1.500                                             
     2     -6.8029130      7  1.500                                             
  local pseudopotential read in
  partial core-charges read in
  partial kinetic energy density read in
  atomic valenz-charges read in
  non local Contribution for L=           0  read in
    real space projection operators read in
  non local Contribution for L=           0  read in
    real space projection operators read in
  non local Contribution for L=           1  read in
    real space projection operators read in
  non local Contribution for L=           1  read in
    real space projection operators read in
    PAW grid and wavefunctions read in
 
   number of l-projection  operators is LMAX  =           4
   number of lm-projection operators is LMMAX =           8
 
 POTCAR:    PAW_PBE Si 05Jan2001                  
   VRHFIN =Si: s2p2                                                             
   LEXCH  = PE                                                                  
   EATOM  =   103.0669 eV,    7.5752 Ry                                         
                                                                                
   TITEL  = PAW_PBE Si 05Jan2001                                                
   LULTRA =        F    use ultrasoft PP ?                                      
   IUNSCR =        1    unscreen: 0-lin 1-nonlin 2-no                           
   RPACOR =    1.500    partial core radius                                     
   POMASS =   28.085; ZVAL   =    4.000    mass and valenz                      
   RCORE  =    1.900    outmost cutoff radius                                   
   RWIGS  =    2.480; RWIGS  =    1.312    wigner-seitz radius (au A)           
   ENMAX  =  245.345; ENMIN  =  184.009 eV                                      
   ICORE  =        2    local potential                                         
   LCOR   =        T    correct aug charges                                     
   LPAW   =        T    paw PP                                                  
   EAUG   =  322.069                                                            
   DEXC   =    0.000                                                            
   RMAX   =    1.950    core radius for proj-oper                               
   RAUG   =    1.300    factor for augmentation sphere                          
   RDEP   =    1.993    radius for radial grids                                 
   RDEPT  =    1.837    core radius for aug-charge                              
                                                                                
   Atomic configuration                                                         
    6 entries                                                                   
     n  l   j            E        occ.                                          
     1  0  0.50     -1785.8828   2.0000                                         
     2  0  0.50      -139.4969   2.0000                                         
     2  1  1.50       -95.5546   6.0000                                         
     3  0  0.50       -10.8127   2.0000                                         
     3  1  0.50        -4.0811   2.0000                                         
     3  2  1.50        -4.0817   0.0000                                         
   Description                                                                  
     l       E           TYP  RCUT    TYP  RCUT                                 
     0    -10.8127223     23  1.900                                             
     0     -7.6451159     23  1.900                                             
     1     -4.0811372     23  1.900                                             
     1      2.4879257     23  1.900                                             
     2     -4.0817478      7  1.900                                             
  local pseudopotential read in
  partial core-charges read in
  partial kinetic energy density read in
  atomic valenz-charges read in
  non local Contribution for L=           0  read in
    real space projection operators read in
  non local Contribution for L=           0  read in
    real space projection operators read in
  non local Contribution for L=           1  read in
    real space projection operators read in
  non local Contribution for L=           1  read in
    real space projection operators read in
    PAW grid and wavefunctions read in
 
   number of l-projection  operators is LMAX  =           4
   number of lm-projection operators is LMMAX =           8
 
 Optimization of the real space projectors (new method)

 maximal supplied QI-value         = 25.13
 optimisation between [QCUT,QGAM] = [ 10.05, 20.36] = [ 28.30,116.06] Ry 
 Optimized for a Real-space Cutoff    1.70 Angstroem

   l    n(q)    QCUT    max X(q) W(low)/X(q) W(high)/X(q)  e(spline) 
   0     10    10.053    79.467    0.61E-04    0.98E-04    0.61E-06
   0     10    10.053    66.151    0.60E-04    0.98E-04    0.61E-06
   1     10    10.053     8.350    0.17E-03    0.71E-03    0.45E-05
   1     10    10.053     5.531    0.18E-03    0.77E-03    0.49E-05
 Optimization of the real space projectors (new method)

 maximal supplied QI-value         = 19.84
 optimisation between [QCUT,QGAM] = [ 10.12, 20.44] = [ 28.68,116.96] Ry 
 Optimized for a Real-space Cutoff    1.38 Angstroem

   l    n(q)    QCUT    max X(q) W(low)/X(q) W(high)/X(q)  e(spline) 
   0      8    10.119   159.560    0.58E-04    0.11E-03    0.54E-07
   0      8    10.119   115.863    0.56E-04    0.11E-03    0.54E-07
   1      8    10.119    88.339    0.22E-03    0.17E-03    0.19E-06
   1      8    10.119    48.592    0.22E-03    0.17E-03    0.18E-06
  PAW_PBE N 08Apr2002                   :
 energy of atom  1       EATOM= -264.5486
 kinetic energy error for atom=    0.0736 (will be added to EATOM!!)
  PAW_PBE Si 05Jan2001                  :
 energy of atom  2       EATOM= -103.0669
 kinetic energy error for atom=    0.0012 (will be added to EATOM!!)
 
 
 POSCAR: Si24 N32                                
  positions in direct lattice
  No initial velocities read in
 exchange correlation table for  LEXCH =        8
   RHO(1)=    0.500       N(1)  =     2000
   RHO(2)=  100.500       N(2)  =     4000
 


--------------------------------------------------------------------------------------------------------


 ion  position               nearest neighbor table
   1  0.875  0.875  0.125-  26 1.89  28 1.89  47 1.89  49 1.89  54 1.89  56 1.89
   2  0.375  0.125  0.375-  25 1.89  27 1.89  29 1.89  31 1.89  32 1.89  42 1.89
   3  0.625  0.875  0.375-  27 1.89  31 1.89  44 1.89  49 1.89  53 1.89  54 1.89
   4  0.125  0.125  0.125-  26 1.89  28 1.89  29 1.89  30 1.89  32 1.89  43 1.89
   5  0.250  0.750  0.250-  28 1.79  50 1.79  51 1.79  31 1.79
   6  0.000  0.000  0.500-  38 1.79  48 1.79  29 1.79  49 1.79
   7  0.875  0.375  0.625-  34 1.89  36 1.89  41 1.89  46 1.89  48 1.89  55 1.89
   8  0.375  0.625  0.875-  33 1.89  35 1.89  37 1.89  39 1.89  40 1.89  50 1.89
   9  0.625  0.375  0.875-  35 1.89  39 1.89  41 1.89  45 1.89  46 1.89  52 1.89
  10  0.125  0.625  0.625-  34 1.89  36 1.89  37 1.89  38 1.89  40 1.89  51 1.89
  11  0.250  0.250  0.750-  36 1.79  42 1.79  43 1.79  39 1.79
  12  0.000  0.500  0.000-  30 1.79  56 1.79  37 1.79  41 1.79
  13  0.375  0.875  0.625-  31 1.89  33 1.89  38 1.89  40 1.89  42 1.89  44 1.89
  14  0.875  0.125  0.875-  26 1.89  41 1.89  43 1.89  45 1.89  47 1.89  48 1.89
  15  0.125  0.875  0.875-  28 1.89  33 1.89  37 1.89  38 1.89  43 1.89  47 1.89
  16  0.625  0.125  0.625-  27 1.89  42 1.89  44 1.89  45 1.89  46 1.89  48 1.89
  17  0.750  0.750  0.750-  34 1.79  44 1.79  35 1.79  47 1.79
  18  0.500  0.000  0.000-  32 1.79  54 1.79  45 1.79  33 1.79
  19  0.375  0.375  0.125-  25 1.89  30 1.89  32 1.89  39 1.89  50 1.89  52 1.89
  20  0.875  0.625  0.375-  34 1.89  49 1.89  51 1.89  53 1.89  55 1.89  56 1.89
  21  0.125  0.375  0.375-  25 1.89  29 1.89  30 1.89  36 1.89  51 1.89  55 1.89
  22  0.625  0.625  0.125-  35 1.89  50 1.89  52 1.89  53 1.89  54 1.89  56 1.89
  23  0.750  0.250  0.250-  26 1.79  52 1.79  27 1.79  55 1.79
  24  0.500  0.500  0.500-  40 1.79  46 1.79  53 1.79  25 1.79
  25  0.368  0.368  0.368-  24 1.79  19 1.89  21 1.89   2 1.89  29 2.59  30 2.59  32 2.59  27 2.76
                            36 2.76  42 2.76  50 2.76  51 2.76  52 2.76  46 2.92  40 2.92  53 2.92
  26  0.882  0.118  0.118-  23 1.79   4 1.89  14 1.89   1 1.89  28 2.59  43 2.59  47 2.59  41 2.76
                            49 2.76  54 2.76  29 2.76  30 2.76  45 2.76  52 2.92  27 2.92  55 2.92
  27  0.618  0.118  0.382-  23 1.79   3 1.89  16 1.89   2 1.89  31 2.59  42 2.59  44 2.59  25 2.76
                            49 2.76  46 2.76  48 2.76  32 2.76  54 2.76  52 2.92  26 2.92  55 2.92
  28  0.118  0.882  0.118-   5 1.79   4 1.89   1 1.89  15 1.89  26 2.59  43 2.59  47 2.59  33 2.76
                            49 2.76  56 2.76  29 2.76  37 2.76  32 2.76  50 2.92  51 2.92  31 2.92
  29  0.132  0.132  0.368-   6 1.79   4 1.89   2 1.89  21 1.89  25 2.59  30 2.59  32 2.59  31 2.76
                            55 2.76  26 2.76  36 2.76  42 2.76  28 2.76  48 2.92  38 2.92  49 2.92
  30  0.132  0.368  0.132-  12 1.79   4 1.89  19 1.89  21 1.89  25 2.59  29 2.59  32 2.59  39 2.76
                            50 2.76  55 2.76  26 2.76  51 2.76  43 2.76  56 2.92  41 2.92  37 2.92
  31  0.382  0.882  0.382-   5 1.79   3 1.89   2 1.89  13 1.89  27 2.59  42 2.59  44 2.59  38 2.76
                            40 2.76  29 2.76  32 2.76  53 2.76  54 2.76  28 2.92  50 2.92  51 2.92
  32  0.368  0.132  0.132-  18 1.79   4 1.89   2 1.89  19 1.89  25 2.59  29 2.59  30 2.59  31 2.76
                            39 2.76  52 2.76  28 2.76  43 2.76  27 2.76  54 2.92  33 2.92  45 2.92
  33  0.368  0.868  0.868-  18 1.79  13 1.89  15 1.89   8 1.89  37 2.59  38 2.59  40 2.59  35 2.76
                            28 2.76  42 2.76  43 2.76  44 2.76  50 2.76  32 2.92  54 2.92  45 2.92
  34  0.882  0.618  0.618-  17 1.79  10 1.89   7 1.89  20 1.89  36 2.59  51 2.59  55 2.59  49 2.76
                            41 2.76  46 2.76  38 2.76  53 2.76  37 2.76  44 2.92  35 2.92  47 2.92
  35  0.618  0.618  0.882-  17 1.79   9 1.89   8 1.89  22 1.89  39 2.59  50 2.59  52 2.59  33 2.76
                            41 2.76  40 2.76  46 2.76  54 2.76  56 2.76  44 2.92  34 2.92  47 2.92
  36  0.118  0.382  0.618-  11 1.79  10 1.89   7 1.89  21 1.89  34 2.59  51 2.59  55 2.59  48 2.76
                            25 2.76  41 2.76  37 2.76  40 2.76  29 2.76  42 2.92  43 2.92  39 2.92
  37  0.132  0.632  0.868-  12 1.79  10 1.89   8 1.89  15 1.89  33 2.59  38 2.59  40 2.59  39 2.76
                            47 2.76  34 2.76  36 2.76  28 2.76  50 2.76  30 2.92  56 2.92  41 2.92
  38  0.132  0.868  0.632-   6 1.79  10 1.89  13 1.89  15 1.89  33 2.59  37 2.59  40 2.59  31 2.76
                            42 2.76  47 2.76  43 2.76  34 2.76  51 2.76  48 2.92  49 2.92  29 2.92
  39  0.382  0.382  0.882-  11 1.79   9 1.89   8 1.89  19 1.89  35 2.59  50 2.59  52 2.59  37 2.76
                            40 2.76  45 2.76  46 2.76  32 2.76  30 2.76  36 2.92  42 2.92  43 2.92
  40  0.368  0.632  0.632-  24 1.79  10 1.89  13 1.89   8 1.89  33 2.59  37 2.59  38 2.59  31 2.76
                            39 2.76  44 2.76  35 2.76  36 2.76  51 2.76  46 2.92  25 2.92  53 2.92
  41  0.868  0.368  0.868-  12 1.79   9 1.89   7 1.89  14 1.89  45 2.59  46 2.59  48 2.59  36 2.76
                            43 2.76  26 2.76  34 2.76  35 2.76  52 2.76  30 2.92  56 2.92  37 2.92
  42  0.382  0.118  0.618-  11 1.79   2 1.89  13 1.89  16 1.89  27 2.59  31 2.59  44 2.59  33 2.76
                            38 2.76  25 2.76  29 2.76  45 2.76  46 2.76  36 2.92  43 2.92  39 2.92
  43  0.118  0.118  0.882-  11 1.79   4 1.89  14 1.89  15 1.89  26 2.59  28 2.59  47 2.59  41 2.76
                            33 2.76  38 2.76  32 2.76  30 2.76  48 2.76  36 2.92  42 2.92  39 2.92
  44  0.618  0.882  0.618-  17 1.79  13 1.89  16 1.89   3 1.89  27 2.59  31 2.59  42 2.59  40 2.76
                            33 2.76  49 2.76  48 2.76  45 2.76  53 2.76  34 2.92  47 2.92  35 2.92
  45  0.632  0.132  0.868-  18 1.79  14 1.89  16 1.89   9 1.89  41 2.59  46 2.59  48 2.59  47 2.76
                            39 2.76  26 2.76  42 2.76  44 2.76  52 2.76  32 2.92  54 2.92  33 2.92
  46  0.632  0.368  0.632-  24 1.79   9 1.89  16 1.89   7 1.89  41 2.59  45 2.59  48 2.59  39 2.76
                            34 2.76  55 2.76  27 2.76  35 2.76  42 2.76  40 2.92  53 2.92  25 2.92
  47  0.882  0.882  0.882-  17 1.79  14 1.89  15 1.89   1 1.89  26 2.59  28 2.59  43 2.59  38 2.76
                            37 2.76  45 2.76  48 2.76  54 2.76  56 2.76  34 2.92  44 2.92  35 2.92
  48  0.868  0.132  0.632-   6 1.79   7 1.89  14 1.89  16 1.89  41 2.59  45 2.59  46 2.59  36 2.76
                            47 2.76  55 2.76  43 2.76  44 2.76  27 2.76  38 2.92  49 2.92  29 2.92
  49  0.868  0.868  0.368-   6 1.79   3 1.89   1 1.89  20 1.89  53 2.59  54 2.59  56 2.59  34 2.76
                            44 2.76  51 2.76  26 2.76  27 2.76  28 2.76  38 2.92  48 2.92  29 2.92
  50  0.382  0.618  0.118-   5 1.79   8 1.89  19 1.89  22 1.89  35 2.59  39 2.59  52 2.59  25 2.76
                            30 2.76  33 2.76  37 2.76  53 2.76  54 2.76  28 2.92  51 2.92  31 2.92
  51  0.118  0.618  0.382-   5 1.79  10 1.89  20 1.89  21 1.89  34 2.59  36 2.59  55 2.59  49 2.76
                            25 2.76  40 2.76  30 2.76  38 2.76  56 2.76  28 2.92  50 2.92  31 2.92
  52  0.618  0.382  0.118-  23 1.79  19 1.89  22 1.89   9 1.89  35 2.59  39 2.59  50 2.59  32 2.76
                            41 2.76  25 2.76  45 2.76  53 2.76  56 2.76  26 2.92  55 2.92  27 2.92
  53  0.632  0.632  0.368-  24 1.79  20 1.89  22 1.89   3 1.89  49 2.59  54 2.59  56 2.59  55 2.76
                            31 2.76  52 2.76  44 2.76  34 2.76  50 2.76  40 2.92  46 2.92  25 2.92
  54  0.632  0.868  0.132-  18 1.79   3 1.89   1 1.89  22 1.89  49 2.59  53 2.59  56 2.59  26 2.76
                            31 2.76  47 2.76  50 2.76  27 2.76  35 2.76  32 2.92  45 2.92  33 2.92
  55  0.882  0.382  0.382-  23 1.79  20 1.89  21 1.89   7 1.89  34 2.59  36 2.59  51 2.59  30 2.76
                            46 2.76  48 2.76  29 2.76  53 2.76  56 2.76  26 2.92  52 2.92  27 2.92
  56  0.868  0.632  0.132-  12 1.79   1 1.89  20 1.89  22 1.89  49 2.59  53 2.59  54 2.59  47 2.76
                            28 2.76  55 2.76  35 2.76  51 2.76  52 2.76  30 2.92  41 2.92  37 2.92
 
  LATTYP: Found a simple cubic cell.
 ALAT       =     7.7874360000
  
  Lattice vectors:
  
 A1 = (   7.7874360000,   0.0000000000,   0.0000000000)
 A2 = (   0.0000000000,   7.7874360000,   0.0000000000)
 A3 = (   0.0000000000,   0.0000000000,   7.7874360000)


Analysis of symmetry for initial positions (statically):
=====================================================================
 Subroutine PRICEL returns following result:
 
  LATTYP: Found a face centered cubic cell.
 ALAT       =     7.7874360000
  
  Lattice vectors:
  
 A1 = (   3.8937180000,   3.8937180000,   0.0000000000)
 A2 = (   3.8937180000,   0.0000000000,  -3.8937180000)
 A3 = (   0.0000000000,   3.8937180000,  -3.8937180000)
 
   4 primitive cells build up your supercell.
 

 Routine SETGRP: Setting up the symmetry group for a 
 simple cubic supercell.


 Subroutine GETGRP returns: Found 48 space group operations
 (whereof 24 operations were pure point group operations)
 out of a pool of 48 trial point group operations.


The static configuration has the point symmetry T_d .
 The point group associated with its full space group is O_h .


Analysis of symmetry for dynamics (positions and initial velocities):
=====================================================================
 Subroutine PRICEL returns following result:
 
  LATTYP: Found a face centered cubic cell.
 ALAT       =     7.7874360000
  
  Lattice vectors:
  
 A1 = (   3.8937180000,   3.8937180000,   0.0000000000)
 A2 = (   3.8937180000,   0.0000000000,  -3.8937180000)
 A3 = (   0.0000000000,   3.8937180000,  -3.8937180000)
 
   4 primitive cells build up your supercell.
 

 Routine SETGRP: Setting up the symmetry group for a 
 simple cubic supercell.


 Subroutine GETGRP returns: Found 48 space group operations
 (whereof 24 operations were pure point group operations)
 out of a pool of 48 trial point group operations.


The dynamic configuration has the point symmetry T_d .
 The point group associated with its full space group is O_h .


 Subroutine INISYM returns: Found 48 space group operations
 (whereof 24 operations are pure point group operations),
 and found     4 'primitive' translations

 
 
 KPOINTS: Automatic mesh                          

Automatic generation of k-mesh.
 generate k-points for:    6    6    6
Space group operators:
 irot       det(A)        alpha          n_x          n_y          n_z        tau_x        tau_y        tau_z
    1     1.000000     0.000000     1.000000     0.000000     0.000000     0.000000     0.000000    -0.000000
    2     1.000000   120.000000    -0.577350    -0.577350    -0.577350     0.000000     0.000000    -0.000000
    3     1.000000   120.000000     0.577350     0.577350     0.577350     0.000000     0.000000    -0.000000
    4    -1.000000    90.000000     0.000000     0.000000    -1.000000     0.000000     0.000000    -0.000000
    5    -1.000000   180.000000     0.000000    -0.707107    -0.707107     0.000000     0.000000    -0.000000
    6    -1.000000    90.000000     0.000000     1.000000     0.000000     0.000000     0.000000    -0.000000
    7     1.000000   180.000000    -0.000000    -0.000000     1.000000     0.000000     0.000000    -0.000000
    8     1.000000   120.000000    -0.577350     0.577350     0.577350     0.000000     0.000000    -0.000000
    9     1.000000   120.000000    -0.577350     0.577350    -0.577350     0.000000     0.000000    -0.000000
   10    -1.000000    90.000000    -0.000000    -0.000000     1.000000     0.000000     0.000000    -0.000000
   11    -1.000000    90.000000    -1.000000     0.000000    -0.000000     0.000000     0.000000    -0.000000
   12    -1.000000   180.000000    -0.707107     0.000000    -0.707107     0.000000     0.000000    -0.000000
   13     1.000000   120.000000     0.577350    -0.577350     0.577350     0.000000     0.000000    -0.000000
   14     1.000000   120.000000    -0.577350    -0.577350     0.577350     0.000000     0.000000    -0.000000
   15     1.000000   180.000000     1.000000    -0.000000     0.000000     0.000000     0.000000    -0.000000
   16    -1.000000    90.000000    -0.000000    -1.000000     0.000000     0.000000     0.000000    -0.000000
   17    -1.000000   180.000000     0.707107     0.707107     0.000000     0.000000     0.000000    -0.000000
   18    -1.000000    90.000000     1.000000    -0.000000    -0.000000     0.000000     0.000000    -0.000000
   19     1.000000   120.000000     0.577350    -0.577350    -0.577350     0.000000     0.000000    -0.000000
   20     1.000000   180.000000     0.000000     1.000000     0.000000     0.000000     0.000000    -0.000000
   21     1.000000   120.000000     0.577350     0.577350    -0.577350     0.000000     0.000000    -0.000000
   22    -1.000000   180.000000    -0.000000    -0.707107     0.707107     0.000000     0.000000    -0.000000
   23    -1.000000   180.000000     0.707107    -0.707107     0.000000     0.000000     0.000000    -0.000000
   24    -1.000000   180.000000     0.707107    -0.000000    -0.707107     0.000000     0.000000    -0.000000
   25    -1.000000     0.000000     1.000000     0.000000     0.000000     0.750000     0.750000    -0.750000
   26    -1.000000   120.000000    -0.577350    -0.577350    -0.577350     0.750000     0.750000    -0.750000
   27    -1.000000   120.000000     0.577350     0.577350     0.577350     0.750000     0.750000    -0.750000
   28     1.000000    90.000000     0.000000     0.000000    -1.000000     0.750000     0.750000    -0.750000
   29     1.000000   180.000000     0.000000    -0.707107    -0.707107     0.750000     0.750000    -0.750000
   30     1.000000    90.000000     0.000000     1.000000     0.000000     0.750000     0.750000    -0.750000
   31    -1.000000   180.000000    -0.000000    -0.000000     1.000000     0.750000     0.750000    -0.750000
   32    -1.000000   120.000000    -0.577350     0.577350     0.577350     0.750000     0.750000    -0.750000
   33    -1.000000   120.000000    -0.577350     0.577350    -0.577350     0.750000     0.750000    -0.750000
   34     1.000000    90.000000    -0.000000    -0.000000     1.000000     0.750000     0.750000    -0.750000
   35     1.000000    90.000000    -1.000000     0.000000    -0.000000     0.750000     0.750000    -0.750000
   36     1.000000   180.000000    -0.707107     0.000000    -0.707107     0.750000     0.750000    -0.750000
   37    -1.000000   120.000000     0.577350    -0.577350     0.577350     0.750000     0.750000    -0.750000
   38    -1.000000   120.000000    -0.577350    -0.577350     0.577350     0.750000     0.750000    -0.750000
   39    -1.000000   180.000000     1.000000    -0.000000     0.000000     0.750000     0.750000    -0.750000
   40     1.000000    90.000000    -0.000000    -1.000000     0.000000     0.750000     0.750000    -0.750000
   41     1.000000   180.000000     0.707107     0.707107     0.000000     0.750000     0.750000    -0.750000
   42     1.000000    90.000000     1.000000    -0.000000    -0.000000     0.750000     0.750000    -0.750000
   43    -1.000000   120.000000     0.577350    -0.577350    -0.577350     0.750000     0.750000    -0.750000
   44    -1.000000   180.000000     0.000000     1.000000     0.000000     0.750000     0.750000    -0.750000
   45    -1.000000   120.000000     0.577350     0.577350    -0.577350     0.750000     0.750000    -0.750000
   46     1.000000   180.000000    -0.000000    -0.707107     0.707107     0.750000     0.750000    -0.750000
   47     1.000000   180.000000     0.707107    -0.707107     0.000000     0.750000     0.750000    -0.750000
   48     1.000000   180.000000     0.707107    -0.000000    -0.707107     0.750000     0.750000    -0.750000
 
 Subroutine IBZKPT returns following result:
 ===========================================
 
 Found     20 irreducible k-points:
 
 Following reciprocal coordinates:
            Coordinates               Weight
  0.000000  0.000000  0.000000      1.000000
  0.166667  0.000000  0.000000      6.000000
  0.333333  0.000000  0.000000      6.000000
  0.500000  0.000000  0.000000      3.000000
  0.166667  0.166667  0.000000     12.000000
  0.333333  0.166667  0.000000     24.000000
  0.500000  0.166667  0.000000     12.000000
  0.333333  0.333333  0.000000     12.000000
  0.500000  0.333333  0.000000     12.000000
  0.500000  0.500000  0.000000      3.000000
  0.166667  0.166667  0.166667      8.000000
  0.333333  0.166667  0.166667     24.000000
  0.500000  0.166667  0.166667     12.000000
  0.333333  0.333333  0.166667     24.000000
  0.500000  0.333333  0.166667     24.000000
  0.500000  0.500000  0.166667      6.000000
  0.333333  0.333333  0.333333      8.000000
  0.500000  0.333333  0.333333     12.000000
  0.500000  0.500000  0.333333      6.000000
  0.500000  0.500000  0.500000      1.000000
 
 Following cartesian coordinates:
            Coordinates               Weight
  0.000000  0.000000  0.000000      1.000000
  0.021402  0.000000  0.000000      6.000000
  0.042804  0.000000  0.000000      6.000000
  0.064206  0.000000  0.000000      3.000000
  0.021402  0.021402  0.000000     12.000000
  0.042804  0.021402  0.000000     24.000000
  0.064206  0.021402  0.000000     12.000000
  0.042804  0.042804  0.000000     12.000000
  0.064206  0.042804  0.000000     12.000000
  0.064206  0.064206  0.000000      3.000000
  0.021402  0.021402  0.021402      8.000000
  0.042804  0.021402  0.021402     24.000000
  0.064206  0.021402  0.021402     12.000000
  0.042804  0.042804  0.021402     24.000000
  0.064206  0.042804  0.021402     24.000000
  0.064206  0.064206  0.021402      6.000000
  0.042804  0.042804  0.042804      8.000000
  0.064206  0.042804  0.042804     12.000000
  0.064206  0.064206  0.042804      6.000000
  0.064206  0.064206  0.064206      1.000000
 


--------------------------------------------------------------------------------------------------------




 Dimension of arrays:
   k-points           NKPTS =     20   k-points in BZ     NKDIM =     20   number of bands    NBANDS=    156
   number of dos      NEDOS =    301   number of ions     NIONS =     56
   non local maximal  LDIM  =      4   non local SUM 2l+1 LMDIM =      8
   total plane-waves  NPLWV = 157464
   max r-space proj   IRMAX =   6886   max aug-charges    IRDMAX=  11346
   dimension x,y,z NGX =    54 NGY =   54 NGZ =   54
   dimension x,y,z NGXF=   108 NGYF=  108 NGZF=  108
   support grid    NGXF=   108 NGYF=  108 NGZF=  108
   ions per type =              24  32
   NGX,Y,Z   is equivalent  to a cutoff of  11.53, 11.53, 11.53 a.u.
   NGXF,Y,Z  is equivalent  to a cutoff of  23.06, 23.06, 23.06 a.u.

 SYSTEM =  unknown system                          
 POSCAR =  Si24 N32                                

 Startparameter for this run:
   NWRITE =      2    write-flag & timer
   PREC   = accura    normal or accurate (medium, high low for compatibility)
   ISTART =      0    job   : 0-new  1-cont  2-samecut
   ICHARG =      2    charge: 1-file 2-atom 10-const
   ISPIN  =      1    spin polarized calculation?
   LNONCOLLINEAR =      F non collinear calculations
   LSORBIT =      F    spin-orbit coupling
   INIWAV =      1    electr: 0-lowe 1-rand  2-diag
   LASPH  =      F    aspherical Exc in radial PAW
   METAGGA=      F    non-selfconsistent MetaGGA calc.

 Electronic Relaxation 1
   ENCUT  =  400.0 eV  29.40 Ry    5.42 a.u.  12.70 12.70 12.70*2*pi/ulx,y,z
   ENINI  =  400.0     initial cutoff
   ENAUG  =  627.1 eV  augmentation charge cutoff
   NELM   =     60;   NELMIN=  2; NELMDL= -5     # of ELM steps 
   EDIFF  = 0.1E-03   stopping-criterion for ELM
   LREAL  =      T    real-space projection
   NLSPLINE    = F    spline interpolate recip. space projectors
   LCOMPAT=      F    compatible to vasp.4.4
   GGA_COMPAT  = T    GGA compatible to vasp.4.4-vasp.4.6
   LMAXPAW     = -100 max onsite density
   LMAXMIX     =    2 max onsite mixed and CHGCAR
   VOSKOWN=      0    Vosko Wilk Nusair interpolation
   ROPT   =   -0.00025  -0.00025
 Ionic relaxation
   EDIFFG = 0.1E-02   stopping-criterion for IOM
   NSW    =    100    number of steps for IOM
   NBLOCK =      1;   KBLOCK =    100    inner block; outer block 
   IBRION =      2    ionic relax: 0-MD 1-quasi-New 2-CG
   NFREE  =      1    steps in history (QN), initial steepest desc. (CG)
   ISIF   =      3    stress and relaxation
   IWAVPR =     11    prediction:  0-non 1-charg 2-wave 3-comb
   ISYM   =      2    0-nonsym 1-usesym 2-fastsym
   LCORR  =      T    Harris-Foulkes like correction to forces

   POTIM  = 0.5000    time-step for ionic-motion
   TEIN   =    0.0    initial temperature
   TEBEG  =    0.0;   TEEND  =   0.0 temperature during run
   SMASS  =  -3.00    Nose mass-parameter (am)
   estimated Nose-frequenzy (Omega)   =  0.10E-29 period in steps =****** mass=  -0.139E-26a.u.
   SCALEE = 1.0000    scale energy and forces
   NPACO  =    256;   APACO  = 16.0  distance and # of slots for P.C.
   PSTRESS=    0.0 pullay stress

  Mass of Ions in am
   POMASS =  14.00 28.09
  Ionic Valenz
   ZVAL   =   5.00  4.00
  Atomic Wigner-Seitz radii
   RWIGS  =  -1.00 -1.00
  virtual crystal weights 
   VCA    =   1.00  1.00
   NELECT =     248.0000    total number of electrons
   NUPDOWN=      -1.0000    fix difference up-down

 DOS related values:
   EMIN   =  10.00;   EMAX   =-10.00  energy-range for DOS
   EFERMI =   0.00
   ISMEAR =     2;   SIGMA  =   0.10  broadening in eV -4-tet -1-fermi 0-gaus

 Electronic relaxation 2 (details)
   IALGO  =     68    algorithm
   LDIAG  =      T    sub-space diagonalisation (order eigenvalues)
   LSUBROT=      F    optimize rotation matrix (better conditioning)
   TURBO    =      0    0=normal 1=particle mesh
   IRESTART =      0    0=no restart 2=restart with 2 vectors
   NREBOOT  =      0    no. of reboots
   NMIN     =      0    reboot dimension
   EREF     =   0.00    reference energy to select bands
   IMIX   =      4    mixing-type and parameters
     AMIX     =   0.40;   BMIX     =  1.00
     AMIX_MAG =   1.60;   BMIX_MAG =  1.00
     AMIN     =   0.10
     WC   =   100.;   INIMIX=   1;  MIXPRE=   1;  MAXMIX= -45

 Intra band minimization:
   WEIMIN = 0.0010     energy-eigenvalue tresh-hold
   EBREAK =  0.16E-06  absolut break condition
   DEPER  =   0.30     relativ break condition  

   TIME   =   0.40     timestep for ELM

  volume/ion in A,a.u.               =       8.43        56.91
  Fermi-wavevector in a.u.,A,eV,Ry     =   1.320781  2.495915 23.734862  1.744463
  Thomas-Fermi vector in A             =   2.450583
 
 Write flags
   LWAVE        =      F    write WAVECAR
   LDOWNSAMPLE  =      F    k-point downsampling of WAVECAR
   LCHARG       =      F    write CHGCAR
   LVTOT        =      F    write LOCPOT, total local potential
   LVHAR        =      F    write LOCPOT, Hartree potential only
   LELF         =      F    write electronic localiz. function (ELF)
   LORBIT       =      0    0 simple, 1 ext, 2 COOP (PROOUT), +10 PAW based schemes


 Dipole corrections
   LMONO  =      F    monopole corrections only (constant potential shift)
   LDIPOL =      F    correct potential (dipole corrections)
   IDIPOL =      0    1-x, 2-y, 3-z, 4-all directions 
   EPSILON=  1.0000000 bulk dielectric constant

 Exchange correlation treatment:
   GGA     =    --    GGA type
   LEXCH   =     8    internal setting for exchange type
   VOSKOWN=      0    Vosko Wilk Nusair interpolation
   LHFCALC =     F    Hartree Fock is set to
   LHFONE  =     F    Hartree Fock one center treatment
   AEXX    =    0.0000 exact exchange contribution

 Linear response parameters
   LEPSILON=     F    determine dielectric tensor
   LRPA    =     F    only Hartree local field effects (RPA)
   LNABLA  =     F    use nabla operator in PAW spheres
   LVEL    =     F    velocity operator in full k-point grid
   LINTERFAST=   F  fast interpolation
   KINTER  =     0    interpolate to denser k-point grid
   CSHIFT  =0.1000    complex shift for real part using Kramers Kronig
   OMEGAMAX=  -1.0    maximum frequency
   DEG_THRESHOLD= 0.2000000E-02 threshold for treating states as degnerate
   RTIME   =   -0.100 relaxation time in fs
  (WPLASMAI=    0.000 imaginary part of plasma frequency in eV, 0.658/RTIME)
   DFIELD  = 0.0000000 0.0000000 0.0000000 field for delta impulse in time
 
 Orbital magnetization related:
   ORBITALMAG=     F  switch on orbital magnetization
   LCHIMAG   =     F  perturbation theory with respect to B field
   DQ        =  0.001000  dq finite difference perturbation B field
   LLRAUG    =     F  two centre corrections for induced B field



--------------------------------------------------------------------------------------------------------


 conjugate gradient relaxation of ions
 charge density and potential will be updated during run
 non-spin polarized calculation
 RMM-DIIS sequential band-by-band and
  variant of blocked Davidson during initial phase
 perform sub-space diagonalisation
    before iterative eigenvector-optimisation
 modified Broyden-mixing scheme, WC =      100.0
 initial mixing is a Kerker type mixing with AMIX =  0.4000 and BMIX =      1.0000
 Hartree-type preconditioning will be used
 using additional bands           32
 real space projection scheme for non local part
 use partial core corrections
 calculate Harris-corrections to forces 
   (improved forces if not selfconsistent)
 use gradient corrections 
 use of overlap-Matrix (Vanderbilt PP)
 Methfessel and Paxton  Order N= 2 SIGMA  =   0.10


--------------------------------------------------------------------------------------------------------


  energy-cutoff  :      400.00
  volume of cell :      472.26
      direct lattice vectors                 reciprocal lattice vectors
     7.787436000  0.000000000  0.000000000     0.128411970 -0.000000000  0.000000000
     0.000000000  7.787436000  0.000000000     0.000000000  0.128411970  0.000000000
     0.000000000  0.000000000  7.787436000    -0.000000000 -0.000000000  0.128411970

  length of vectors
     7.787436000  7.787436000  7.787436000     0.128411970  0.128411970  0.128411970


 
 k-points in units of 2pi/SCALE and weight: Automatic mesh                          
   0.00000000  0.00000000  0.00000000       0.005
   0.02140200  0.00000000  0.00000000       0.028
   0.04280399  0.00000000  0.00000000       0.028
   0.06420599  0.00000000  0.00000000       0.014
   0.02140200  0.02140200  0.00000000       0.056
   0.04280399  0.02140200  0.00000000       0.111
   0.06420599  0.02140200  0.00000000       0.056
   0.04280399  0.04280399  0.00000000       0.056
   0.06420599  0.04280399  0.00000000       0.056
   0.06420599  0.06420599  0.00000000       0.014
   0.02140200  0.02140200  0.02140200       0.037
   0.04280399  0.02140200  0.02140200       0.111
   0.06420599  0.02140200  0.02140200       0.056
   0.04280399  0.04280399  0.02140200       0.111
   0.06420599  0.04280399  0.02140200       0.111
   0.06420599  0.06420599  0.02140200       0.028
   0.04280399  0.04280399  0.04280399       0.037
   0.06420599  0.04280399  0.04280399       0.056
   0.06420599  0.06420599  0.04280399       0.028
   0.06420599  0.06420599  0.06420599       0.005
 
 k-points in reciprocal lattice and weights: Automatic mesh                          
   0.00000000  0.00000000  0.00000000       0.005
   0.16666667  0.00000000  0.00000000       0.028
   0.33333333  0.00000000  0.00000000       0.028
   0.50000000  0.00000000  0.00000000       0.014
   0.16666667  0.16666667  0.00000000       0.056
   0.33333333  0.16666667  0.00000000       0.111
   0.50000000  0.16666667  0.00000000       0.056
   0.33333333  0.33333333  0.00000000       0.056
   0.50000000  0.33333333  0.00000000       0.056
   0.50000000  0.50000000  0.00000000       0.014
   0.16666667  0.16666667  0.16666667       0.037
   0.33333333  0.16666667  0.16666667       0.111
   0.50000000  0.16666667  0.16666667       0.056
   0.33333333  0.33333333  0.16666667       0.111
   0.50000000  0.33333333  0.16666667       0.111
   0.50000000  0.50000000  0.16666667       0.028
   0.33333333  0.33333333  0.33333333       0.037
   0.50000000  0.33333333  0.33333333       0.056
   0.50000000  0.50000000  0.33333333       0.028
   0.50000000  0.50000000  0.50000000       0.005
 
 position of ions in fractional coordinates (direct lattice) 
   0.87500000  0.87500000  0.12500000
   0.37500000  0.12500000  0.37500000
   0.62500000  0.87500000  0.37500000
   0.12500000  0.12500000  0.12500000
   0.25000000  0.75000000  0.25000000
   0.00000000  0.00000000  0.50000000
   0.87500000  0.37500000  0.62500000
   0.37500000  0.62500000  0.87500000
   0.62500000  0.37500000  0.87500000
   0.12500000  0.62500000  0.62500000
   0.25000000  0.25000000  0.75000000
   0.00000000  0.50000000  0.00000000
   0.37500000  0.87500000  0.62500000
   0.87500000  0.12500000  0.87500000
   0.12500000  0.87500000  0.87500000
   0.62500000  0.12500000  0.62500000
   0.75000000  0.75000000  0.75000000
   0.50000000  0.00000000  0.00000000
   0.37500000  0.37500000  0.12500000
   0.87500000  0.62500000  0.37500000
   0.12500000  0.37500000  0.37500000
   0.62500000  0.62500000  0.12500000
   0.75000000  0.25000000  0.25000000
   0.50000000  0.50000000  0.50000000
   0.36756300  0.36756300  0.36756300
   0.88243700  0.11756300  0.11756300
   0.61756300  0.11756300  0.38243700
   0.11756300  0.88243700  0.11756300
   0.13243700  0.13243700  0.36756300
   0.13243700  0.36756300  0.13243700
   0.38243700  0.88243700  0.38243700
   0.36756300  0.13243700  0.13243700
   0.36756300  0.86756300  0.86756300
   0.88243700  0.61756300  0.61756300
   0.61756300  0.61756300  0.88243700
   0.11756300  0.38243700  0.61756300
   0.13243700  0.63243700  0.86756300
   0.13243700  0.86756300  0.63243700
   0.38243700  0.38243700  0.88243700
   0.36756300  0.63243700  0.63243700
   0.86756300  0.36756300  0.86756300
   0.38243700  0.11756300  0.61756300
   0.11756300  0.11756300  0.88243700
   0.61756300  0.88243700  0.61756300
   0.63243700  0.13243700  0.86756300
   0.63243700  0.36756300  0.63243700
   0.88243700  0.88243700  0.88243700
   0.86756300  0.13243700  0.63243700
   0.86756300  0.86756300  0.36756300
   0.38243700  0.61756300  0.11756300
   0.11756300  0.61756300  0.38243700
   0.61756300  0.38243700  0.11756300
   0.63243700  0.63243700  0.36756300
   0.63243700  0.86756300  0.13243700
   0.88243700  0.38243700  0.38243700
   0.86756300  0.63243700  0.13243700
 
 position of ions in cartesian coordinates  (Angst):
   6.81400650  6.81400650  0.97342950
   2.92028850  0.97342950  2.92028850
   4.86714750  6.81400650  2.92028850
   0.97342950  0.97342950  0.97342950
   1.94685900  5.84057700  1.94685900
   0.00000000  0.00000000  3.89371800
   6.81400650  2.92028850  4.86714750
   2.92028850  4.86714750  6.81400650
   4.86714750  2.92028850  6.81400650
   0.97342950  4.86714750  4.86714750
   1.94685900  1.94685900  5.84057700
   0.00000000  3.89371800  0.00000000
   2.92028850  6.81400650  4.86714750
   6.81400650  0.97342950  6.81400650
   0.97342950  6.81400650  6.81400650
   4.86714750  0.97342950  4.86714750
   5.84057700  5.84057700  5.84057700
   3.89371800  0.00000000  0.00000000
   2.92028850  2.92028850  0.97342950
   6.81400650  4.86714750  2.92028850
   0.97342950  2.92028850  2.92028850
   4.86714750  4.86714750  0.97342950
   5.84057700  1.94685900  1.94685900
   3.89371800  3.89371800  3.89371800
   2.86237334  2.86237334  2.86237334
   6.87192166  0.91551434  0.91551434
   4.80923234  0.91551434  2.97820366
   0.91551434  6.87192166  0.91551434
   1.03134466  1.03134466  2.86237334
   1.03134466  2.86237334  1.03134466
   2.97820366  6.87192166  2.97820366
   2.86237334  1.03134466  1.03134466
   2.86237334  6.75609134  6.75609134
   6.87192166  4.80923234  4.80923234
   4.80923234  4.80923234  6.87192166
   0.91551434  2.97820366  4.80923234
   1.03134466  4.92506266  6.75609134
   1.03134466  6.75609134  4.92506266
   2.97820366  2.97820366  6.87192166
   2.86237334  4.92506266  4.92506266
   6.75609134  2.86237334  6.75609134
   2.97820366  0.91551434  4.80923234
   0.91551434  0.91551434  6.87192166
   4.80923234  6.87192166  4.80923234
   4.92506266  1.03134466  6.75609134
   4.92506266  2.86237334  4.92506266
   6.87192166  6.87192166  6.87192166
   6.75609134  1.03134466  4.92506266
   6.75609134  6.75609134  2.86237334
   2.97820366  4.80923234  0.91551434
   0.91551434  4.80923234  2.97820366
   4.80923234  2.97820366  0.91551434
   4.92506266  4.92506266  2.86237334
   4.92506266  6.75609134  1.03134466
   6.87192166  2.97820366  2.97820366
   6.75609134  4.92506266  1.03134466
 


--------------------------------------------------------------------------------------------------------


 k-point  1 :   0.0000 0.0000 0.0000  plane waves:    8601
 k-point  2 :   0.1667 0.0000 0.0000  plane waves:    8553
 k-point  3 :   0.3333 0.0000 0.0000  plane waves:    8594
 k-point  4 :   0.5000 0.0000 0.0000  plane waves:    8642
 k-point  5 :   0.1667 0.1667 0.0000  plane waves:    8560
 k-point  6 :   0.3333 0.1667 0.0000  plane waves:    8590
 k-point  7 :   0.5000 0.1667 0.0000  plane waves:    8596
 k-point  8 :   0.3333 0.3333 0.0000  plane waves:    8562
 k-point  9 :   0.5000 0.3333 0.0000  plane waves:    8576
 k-point 10 :   0.5000 0.5000 0.0000  plane waves:    8540
 k-point 11 :   0.1667 0.1667 0.1667  plane waves:    8562
 k-point 12 :   0.3333 0.1667 0.1667  plane waves:    8569
 k-point 13 :   0.5000 0.1667 0.1667  plane waves:    8608
 k-point 14 :   0.3333 0.3333 0.1667  plane waves:    8589
 k-point 15 :   0.5000 0.3333 0.1667  plane waves:    8574
 k-point 16 :   0.5000 0.5000 0.1667  plane waves:    8580
 k-point 17 :   0.3333 0.3333 0.3333  plane waves:    8594
 k-point 18 :   0.5000 0.3333 0.3333  plane waves:    8574
 k-point 19 :   0.5000 0.5000 0.3333  plane waves:    8548
 k-point 20 :   0.5000 0.5000 0.5000  plane waves:    8552

 maximum and minimum number of plane-waves per node :      2184     2118

 maximum number of plane-waves:      8642
 maximum index in each direction: 
   IXMAX=   12   IYMAX=   12   IZMAX=   12
   IXMIN=  -13   IYMIN=  -13   IZMIN=  -13


 real space projection operators:
  total allocation   :      17129.75 KBytes
  max/ min on nodes  :       4456.00       4108.88


 parallel 3D FFT for wavefunctions:
    minimum data exchange during FFTs selected (reduces bandwidth)
 parallel 3D FFT for charge:
    minimum data exchange during FFTs selected (reduces bandwidth)


 total amount of memory used by VASP MPI-rank0    81025. kBytes
=======================================================================

   base      :      30000. kBytes
   nonlr-proj:      12073. kBytes
   fftplans  :       3978. kBytes
   grid      :       6277. kBytes
   one-center:         43. kBytes
   wavefun   :      28654. kBytes
 
     INWAV:  cpu time    0.0001: real time    0.0001
 Broyden mixing: mesh for mixing (old mesh)
   NGX = 25   NGY = 25   NGZ = 25
  (NGX  =108   NGY  =108   NGZ  =108)
  gives a total of  15625 points

 initial charge density was supplied:
 charge density of overlapping atoms calculated
 number of electron     248.0000000 magnetization 
 keeping initial charge density in first step


--------------------------------------------------------------------------------------------------------


 Maximum index for non-local projection operator         1850
 Maximum index for augmentation-charges          782 (set IRDMAX)


--------------------------------------------------------------------------------------------------------


 First call to EWALD:  gamma=   0.228
 Maximum number of real-space cells 3x 3x 3
 Maximum number of reciprocal cells 3x 3x 3

    FEWALD:  cpu time    0.0024: real time    0.0025


--------------------------------------- Iteration      1(   1)  ---------------------------------------


    POTLOK:  cpu time    0.0456: real time    0.0476
    SETDIJ:  cpu time    0.0051: real time    0.0051
     EDDAV:  cpu time   10.1236: real time   10.1243
       DOS:  cpu time    0.0027: real time    0.0027
    --------------------------------------------
      LOOP:  cpu time   10.1770: real time   10.1797

 eigenvalue-minimisations  :  6240
 total energy-change (2. order) : 0.9597740E+03  (-0.1045157E+05)
 number of electron     248.0000000 magnetization 
 augmentation part      248.0000000 magnetization 

 Free energy of the ion-electron system (eV)
  ---------------------------------------------------
  alpha Z        PSCENC =       413.00857416
  Ewald energy   TEWEN  =    -10583.77695345
  -Hartree energ DENC   =     -1396.62412738
  -exchange      EXHF   =         0.00000000
  -V(xc)+E(xc)   XCENC  =       244.33402210
  PAW double counting   =      7738.34714636    -7203.94574617
  entropy T*S    EENTRO =         0.00025730
  eigenvalues    EBANDS =      2102.92686685
  atomic energy  EATOM  =      9645.50393724
  Solvation  Ediel_sol  =         0.00000000
  ---------------------------------------------------
  free energy    TOTEN  =       959.77397701 eV

  energy without entropy =      959.77371971  energy(sigma->0) =      959.77391268


--------------------------------------------------------------------------------------------------------




--------------------------------------- Iteration      1(   2)  ---------------------------------------


     EDDAV:  cpu time   12.1387: real time   12.1397
       DOS:  cpu time    0.0030: real time    0.0030
    --------------------------------------------
      LOOP:  cpu time   12.1417: real time   12.1427

 eigenvalue-minimisations  :  7872
 total energy-change (2. order) :-0.1180990E+04  (-0.1140209E+04)
 number of electron     248.0000000 magnetization 
 augmentation part      248.0000000 magnetization 

 Free energy of the ion-electron system (eV)
  ---------------------------------------------------
  alpha Z        PSCENC =       413.00857416
  Ewald energy   TEWEN  =    -10583.77695345
  -Hartree energ DENC   =     -1396.62412738
  -exchange      EXHF   =         0.00000000
  -V(xc)+E(xc)   XCENC  =       244.33402210
  PAW double counting   =      7738.34714636    -7203.94574617
  entropy T*S    EENTRO =        -0.00446692
  eigenvalues    EBANDS =       921.94129425
  atomic energy  EATOM  =      9645.50393724
  Solvation  Ediel_sol  =         0.00000000
  ---------------------------------------------------
  free energy    TOTEN  =      -221.21631981 eV

  energy without entropy =     -221.21185289  energy(sigma->0) =     -221.21520308


--------------------------------------------------------------------------------------------------------




--------------------------------------- Iteration      1(   3)  ---------------------------------------


     EDDAV:  cpu time   12.0791: real time   12.0820
       DOS:  cpu time    0.0027: real time    0.0027
    --------------------------------------------
      LOOP:  cpu time   12.0818: real time   12.0847

 eigenvalue-minimisations  :  7808
 total energy-change (2. order) :-0.8925473E+02  (-0.8451483E+02)
 number of electron     248.0000000 magnetization 
 augmentation part      248.0000000 magnetization 

 Free energy of the ion-electron system (eV)
  ---------------------------------------------------
  alpha Z        PSCENC =       413.00857416
  Ewald energy   TEWEN  =    -10583.77695345
  -Hartree energ DENC   =     -1396.62412738
  -exchange      EXHF   =         0.00000000
  -V(xc)+E(xc)   XCENC  =       244.33402210
  PAW double counting   =      7738.34714636    -7203.94574617
  entropy T*S    EENTRO =        -0.01011001
  eigenvalues    EBANDS =       832.69221184
  atomic energy  EATOM  =      9645.50393724
  Solvation  Ediel_sol  =         0.00000000
  ---------------------------------------------------
  free energy    TOTEN  =      -310.47104532 eV

  energy without entropy =     -310.46093531  energy(sigma->0) =     -310.46851781


--------------------------------------------------------------------------------------------------------




--------------------------------------- Iteration      1(   4)  ---------------------------------------


     EDDAV:  cpu time   12.3870: real time   12.3902
       DOS:  cpu time    0.0029: real time    0.0029
    --------------------------------------------
      LOOP:  cpu time   12.3899: real time   12.3931

 eigenvalue-minimisations  :  8040
 total energy-change (2. order) :-0.3521080E+01  (-0.3314361E+01)
 number of electron     248.0000000 magnetization 
 augmentation part      248.0000000 magnetization 

 Free energy of the ion-electron system (eV)
  ---------------------------------------------------
  alpha Z        PSCENC =       413.00857416
  Ewald energy   TEWEN  =    -10583.77695345
  -Hartree energ DENC   =     -1396.62412738
  -exchange      EXHF   =         0.00000000
  -V(xc)+E(xc)   XCENC  =       244.33402210
  PAW double counting   =      7738.34714636    -7203.94574617
  entropy T*S    EENTRO =        -0.00525150
  eigenvalues    EBANDS =       829.16627309
  atomic energy  EATOM  =      9645.50393724
  Solvation  Ediel_sol  =         0.00000000
  ---------------------------------------------------
  free energy    TOTEN  =      -313.99212555 eV

  energy without entropy =     -313.98687405  energy(sigma->0) =     -313.99081267


--------------------------------------------------------------------------------------------------------




--------------------------------------- Iteration      1(   5)  ---------------------------------------


     EDDAV:  cpu time   12.0311: real time   12.0335
       DOS:  cpu time    0.0029: real time    0.0029
    CHARGE:  cpu time    0.3851: real time    0.3852
    MIXING:  cpu time    0.0011: real time    0.0011
    --------------------------------------------
      LOOP:  cpu time   12.4202: real time   12.4226

 eigenvalue-minimisations  :  7752
 total energy-change (2. order) :-0.1331564E+00  (-0.1305892E+00)
 number of electron     247.9999987 magnetization 
 augmentation part       -0.3035331 magnetization 

 Broyden mixing:
  rms(total) = 0.48759E+01    rms(broyden)= 0.48752E+01
  rms(prec ) = 0.61538E+01
  weight for this iteration     100.00

 Free energy of the ion-electron system (eV)
  ---------------------------------------------------
  alpha Z        PSCENC =       413.00857416
  Ewald energy   TEWEN  =    -10583.77695345
  -Hartree energ DENC   =     -1396.62412738
  -exchange      EXHF   =         0.00000000
  -V(xc)+E(xc)   XCENC  =       244.33402210
  PAW double counting   =      7738.34714636    -7203.94574617
  entropy T*S    EENTRO =        -0.00530518
  eigenvalues    EBANDS =       829.03317041
  atomic energy  EATOM  =      9645.50393724
  Solvation  Ediel_sol  =         0.00000000
  ---------------------------------------------------
  free energy    TOTEN  =      -314.12528191 eV

  energy without entropy =     -314.11997673  energy(sigma->0) =     -314.12395561


--------------------------------------------------------------------------------------------------------




--------------------------------------- Iteration      1(   6)  ---------------------------------------


    POTLOK:  cpu time    0.0427: real time    0.0448
    SETDIJ:  cpu time    0.0056: real time    0.0057
    EDDIAG:  cpu time    1.3603: real time    1.3603
  RMM-DIIS:  cpu time    6.0124: real time    6.0127
    ORTHCH:  cpu time    0.3393: real time    0.3393
       DOS:  cpu time    0.0030: real time    0.0030
    CHARGE:  cpu time    0.3753: real time    0.3757
    MIXING:  cpu time    0.0012: real time    0.0012
    --------------------------------------------
      LOOP:  cpu time    8.1398: real time    8.1428

 eigenvalue-minimisations  :  6244
 total energy-change (2. order) : 0.2859634E+02  (-0.1252600E+02)
 number of electron     248.0000001 magnetization 
 augmentation part       -2.8717925 magnetization 

 Broyden mixing:
  rms(total) = 0.24340E+01    rms(broyden)= 0.24333E+01
  rms(prec ) = 0.25465E+01
  weight for this iteration     100.00

 eigenvalues of (default mixing * dielectric matrix)
  average eigenvalue GAMMA=   1.2059
  1.2059

 Free energy of the ion-electron system (eV)
  ---------------------------------------------------
  alpha Z        PSCENC =       413.00857416
  Ewald energy   TEWEN  =    -10583.77695345
  -Hartree energ DENC   =     -1632.37735880
  -exchange      EXHF   =         0.00000000
  -V(xc)+E(xc)   XCENC  =       262.16351703
  PAW double counting   =     17387.09328326   -16855.72061598
  entropy T*S    EENTRO =        -0.00843306
  eigenvalues    EBANDS =      1078.58510293
  atomic energy  EATOM  =      9645.50393724
  Solvation  Ediel_sol  =         0.00000000
  ---------------------------------------------------
  free energy    TOTEN  =      -285.52894668 eV

  energy without entropy =     -285.52051362  energy(sigma->0) =     -285.52683841


--------------------------------------------------------------------------------------------------------




--------------------------------------- Iteration      1(   7)  ---------------------------------------


    POTLOK:  cpu time    0.0422: real time    0.0447
    SETDIJ:  cpu time    0.0056: real time    0.0057
    EDDIAG:  cpu time    1.3524: real time    1.3526
  RMM-DIIS:  cpu time    6.3564: real time    6.3567
    ORTHCH:  cpu time    0.3375: real time    0.3375
       DOS:  cpu time    0.0026: real time    0.0026
    CHARGE:  cpu time    0.3769: real time    0.3769
    MIXING:  cpu time    0.0010: real time    0.0010
    --------------------------------------------
      LOOP:  cpu time    8.4746: real time    8.4777

 eigenvalue-minimisations  :  6539
 total energy-change (2. order) : 0.5623652E+00  (-0.6517910E+00)
 number of electron     247.9999992 magnetization 
 augmentation part       -2.9742047 magnetization 

 Broyden mixing:
  rms(total) = 0.13104E+01    rms(broyden)= 0.13103E+01
  rms(prec ) = 0.13752E+01
  weight for this iteration     100.00

 eigenvalues of (default mixing * dielectric matrix)
  average eigenvalue GAMMA=   1.4819
  0.9688  1.9950

 Free energy of the ion-electron system (eV)
  ---------------------------------------------------
  alpha Z        PSCENC =       413.00857416
  Ewald energy   TEWEN  =    -10583.77695345
  -Hartree energ DENC   =     -1641.71984357
  -exchange      EXHF   =         0.00000000
  -V(xc)+E(xc)   XCENC  =       263.50913313
  PAW double counting   =     26205.29452683   -25675.32280972
  entropy T*S    EENTRO =        -0.00173987
  eigenvalues    EBANDS =      1088.53859376
  atomic energy  EATOM  =      9645.50393724
  Solvation  Ediel_sol  =         0.00000000
  ---------------------------------------------------
  free energy    TOTEN  =      -284.96658150 eV

  energy without entropy =     -284.96484162  energy(sigma->0) =     -284.96614653


--------------------------------------------------------------------------------------------------------




--------------------------------------- Iteration      1(   8)  ---------------------------------------


    POTLOK:  cpu time    0.0430: real time    0.0444
    SETDIJ:  cpu time    0.0054: real time    0.0055
    EDDIAG:  cpu time    1.3590: real time    1.3594
  RMM-DIIS:  cpu time    6.2028: real time    6.2031
    ORTHCH:  cpu time    0.3434: real time    0.3435
       DOS:  cpu time    0.0029: real time    0.0029
    CHARGE:  cpu time    0.3785: real time    0.3785
    MIXING:  cpu time    0.0011: real time    0.0011
    --------------------------------------------
      LOOP:  cpu time    8.3361: real time    8.3383

 eigenvalue-minimisations  :  6321
 total energy-change (2. order) : 0.2553823E+00  (-0.1233451E+00)
 number of electron     247.9999996 magnetization 
 augmentation part       -3.0037213 magnetization 

 Broyden mixing:
  rms(total) = 0.41701E+00    rms(broyden)= 0.41699E+00
  rms(prec ) = 0.46045E+00
  weight for this iteration     100.00

 eigenvalues of (default mixing * dielectric matrix)
  average eigenvalue GAMMA=   1.3794
  2.3287  1.0284  0.7812

 Free energy of the ion-electron system (eV)
  ---------------------------------------------------
  alpha Z        PSCENC =       413.00857416
  Ewald energy   TEWEN  =    -10583.77695345
  -Hartree energ DENC   =     -1631.96053816
  -exchange      EXHF   =         0.00000000
  -V(xc)+E(xc)   XCENC  =       263.94291641
  PAW double counting   =     34937.71498776   -34408.99225955
  entropy T*S    EENTRO =         0.00269621
  eigenvalues    EBANDS =      1079.84544017
  atomic energy  EATOM  =      9645.50393724
  Solvation  Ediel_sol  =         0.00000000
  ---------------------------------------------------
  free energy    TOTEN  =      -284.71119920 eV

  energy without entropy =     -284.71389541  energy(sigma->0) =     -284.71187325


--------------------------------------------------------------------------------------------------------




--------------------------------------- Iteration      1(   9)  ---------------------------------------


    POTLOK:  cpu time    0.0428: real time    0.0450
    SETDIJ:  cpu time    0.0052: real time    0.0052
    EDDIAG:  cpu time    1.3526: real time    1.3526
  RMM-DIIS:  cpu time    6.5037: real time    6.5040
    ORTHCH:  cpu time    0.3386: real time    0.3387
       DOS:  cpu time    0.0030: real time    0.0030
    CHARGE:  cpu time    0.3786: real time    0.3786
    MIXING:  cpu time    0.0014: real time    0.0014
    --------------------------------------------
      LOOP:  cpu time    8.6259: real time    8.6285

 eigenvalue-minimisations  :  6588
 total energy-change (2. order) : 0.5330074E-01  (-0.1808413E-01)
 number of electron     247.9999994 magnetization 
 augmentation part       -2.9644874 magnetization 

 Broyden mixing:
  rms(total) = 0.45766E-01    rms(broyden)= 0.45746E-01
  rms(prec ) = 0.66659E-01
  weight for this iteration     100.00

 eigenvalues of (default mixing * dielectric matrix)
  average eigenvalue GAMMA=   1.3118
  2.3573  1.0616  1.0616  0.7665

 Free energy of the ion-electron system (eV)
  ---------------------------------------------------
  alpha Z        PSCENC =       413.00857416
  Ewald energy   TEWEN  =    -10583.77695345
  -Hartree energ DENC   =     -1633.27784709
  -exchange      EXHF   =         0.00000000
  -V(xc)+E(xc)   XCENC  =       264.39237604
  PAW double counting   =     39187.52885076   -38659.39252377
  entropy T*S    EENTRO =         0.00262774
  eigenvalues    EBANDS =      1081.35305992
  atomic energy  EATOM  =      9645.50393724
  Solvation  Ediel_sol  =         0.00000000
  ---------------------------------------------------
  free energy    TOTEN  =      -284.65789846 eV

  energy without entropy =     -284.66052620  energy(sigma->0) =     -284.65855539


--------------------------------------------------------------------------------------------------------




--------------------------------------- Iteration      1(  10)  ---------------------------------------


    POTLOK:  cpu time    0.0449: real time    0.0450
    SETDIJ:  cpu time    0.0052: real time    0.0052
    EDDIAG:  cpu time    1.3534: real time    1.3535
  RMM-DIIS:  cpu time    6.7366: real time    6.7370
    ORTHCH:  cpu time    0.3396: real time    0.3397
       DOS:  cpu time    0.0029: real time    0.0029
    CHARGE:  cpu time    0.3770: real time    0.3771
    MIXING:  cpu time    0.0011: real time    0.0011
    --------------------------------------------
      LOOP:  cpu time    8.8608: real time    8.8615

 eigenvalue-minimisations  :  6873
 total energy-change (2. order) : 0.1598804E-02  (-0.5384058E-02)
 number of electron     247.9999994 magnetization 
 augmentation part       -2.9849938 magnetization 

 Broyden mixing:
  rms(total) = 0.23888E-01    rms(broyden)= 0.23873E-01
  rms(prec ) = 0.27766E-01
  weight for this iteration     100.00

 eigenvalues of (default mixing * dielectric matrix)
  average eigenvalue GAMMA=   1.5722
  2.4961  2.4961  0.7816  1.0436  1.0436

 Free energy of the ion-electron system (eV)
  ---------------------------------------------------
  alpha Z        PSCENC =       413.00857416
  Ewald energy   TEWEN  =    -10583.77695345
  -Hartree energ DENC   =     -1637.05116572
  -exchange      EXHF   =         0.00000000
  -V(xc)+E(xc)   XCENC  =       264.68244071
  PAW double counting   =     39342.74208319   -38814.67103845
  entropy T*S    EENTRO =         0.00152878
  eigenvalues    EBANDS =      1084.90429390
  atomic energy  EATOM  =      9645.50393724
  Solvation  Ediel_sol  =         0.00000000
  ---------------------------------------------------
  free energy    TOTEN  =      -284.65629965 eV

  energy without entropy =     -284.65782843  energy(sigma->0) =     -284.65668185


--------------------------------------------------------------------------------------------------------




--------------------------------------- Iteration      1(  11)  ---------------------------------------


    POTLOK:  cpu time    0.0445: real time    0.0447
    SETDIJ:  cpu time    0.0051: real time    0.0051
    EDDIAG:  cpu time    1.3460: real time    1.3461
  RMM-DIIS:  cpu time    6.7037: real time    6.7040
    ORTHCH:  cpu time    0.3458: real time    0.3458
       DOS:  cpu time    0.0028: real time    0.0028
    CHARGE:  cpu time    0.3775: real time    0.3775
    MIXING:  cpu time    0.0012: real time    0.0012
    --------------------------------------------
      LOOP:  cpu time    8.8267: real time    8.8273

 eigenvalue-minimisations  :  6825
 total energy-change (2. order) :-0.2142092E-03  (-0.5920638E-03)
 number of electron     247.9999994 magnetization 
 augmentation part       -2.9861026 magnetization 

 Broyden mixing:
  rms(total) = 0.84976E-02    rms(broyden)= 0.84950E-02
  rms(prec ) = 0.13502E-01
  weight for this iteration     100.00

 eigenvalues of (default mixing * dielectric matrix)
  average eigenvalue GAMMA=   1.4705
  2.5139  2.5139  0.8096  0.9229  1.0314  1.0314

 Free energy of the ion-electron system (eV)
  ---------------------------------------------------
  alpha Z        PSCENC =       413.00857416
  Ewald energy   TEWEN  =    -10583.77695345
  -Hartree energ DENC   =     -1636.59477968
  -exchange      EXHF   =         0.00000000
  -V(xc)+E(xc)   XCENC  =       264.70888088
  PAW double counting   =     39235.48356075   -38707.44378216
  entropy T*S    EENTRO =         0.00184968
  eigenvalues    EBANDS =      1084.45219872
  atomic energy  EATOM  =      9645.50393724
  Solvation  Ediel_sol  =         0.00000000
  ---------------------------------------------------
  free energy    TOTEN  =      -284.65651386 eV

  energy without entropy =     -284.65836354  energy(sigma->0) =     -284.65697628


--------------------------------------------------------------------------------------------------------




--------------------------------------- Iteration      1(  12)  ---------------------------------------


    POTLOK:  cpu time    0.0444: real time    0.0460
    SETDIJ:  cpu time    0.0057: real time    0.0058
    EDDIAG:  cpu time    1.3419: real time    1.3420
  RMM-DIIS:  cpu time    5.4572: real time    5.4575
    ORTHCH:  cpu time    0.3458: real time    0.3458
       DOS:  cpu time    0.0031: real time    0.0031
    CHARGE:  cpu time    0.3872: real time    0.3872
    MIXING:  cpu time    0.0014: real time    0.0014
    --------------------------------------------
      LOOP:  cpu time    7.5866: real time    7.5888

 eigenvalue-minimisations  :  5337
 total energy-change (2. order) : 0.1176343E-03  (-0.1251708E-03)
 number of electron     247.9999994 magnetization 
 augmentation part       -2.9844393 magnetization 

 Broyden mixing:
  rms(total) = 0.16987E-02    rms(broyden)= 0.16960E-02
  rms(prec ) = 0.21856E-02
  weight for this iteration     100.00

 eigenvalues of (default mixing * dielectric matrix)
  average eigenvalue GAMMA=   1.4882
  2.5133  2.5133  1.4776  0.7952  1.0829  1.0175  1.0175

 Free energy of the ion-electron system (eV)
  ---------------------------------------------------
  alpha Z        PSCENC =       413.00857416
  Ewald energy   TEWEN  =    -10583.77695345
  -Hartree energ DENC   =     -1636.62883667
  -exchange      EXHF   =         0.00000000
  -V(xc)+E(xc)   XCENC  =       264.71328918
  PAW double counting   =     39261.23801227   -38733.20235303
  entropy T*S    EENTRO =         0.00173638
  eigenvalues    EBANDS =      1084.48619770
  atomic energy  EATOM  =      9645.50393724
  Solvation  Ediel_sol  =         0.00000000
  ---------------------------------------------------
  free energy    TOTEN  =      -284.65639623 eV

  energy without entropy =     -284.65813261  energy(sigma->0) =     -284.65683032


--------------------------------------------------------------------------------------------------------




--------------------------------------- Iteration      1(  13)  ---------------------------------------


    POTLOK:  cpu time    0.0433: real time    0.0448
    SETDIJ:  cpu time    0.0055: real time    0.0057
    EDDIAG:  cpu time    1.3442: real time    1.3443
  RMM-DIIS:  cpu time    4.3235: real time    4.3237
    ORTHCH:  cpu time    0.3404: real time    0.3404
       DOS:  cpu time    0.0028: real time    0.0028
    --------------------------------------------
      LOOP:  cpu time    6.0597: real time    6.0617

 eigenvalue-minimisations  :  4127
 total energy-change (2. order) :-0.1453987E-04  (-0.2380271E-04)
 number of electron     247.9999994 magnetization 
 augmentation part       -2.9844393 magnetization 

 Free energy of the ion-electron system (eV)
  ---------------------------------------------------
  alpha Z        PSCENC =       413.00857416
  Ewald energy   TEWEN  =    -10583.77695345
  -Hartree energ DENC   =     -1636.63417522
  -exchange      EXHF   =         0.00000000
  -V(xc)+E(xc)   XCENC  =       264.71544264
  PAW double counting   =     39260.14720320   -38732.11185099
  entropy T*S    EENTRO =         0.00174364
  eigenvalues    EBANDS =      1084.48966802
  atomic energy  EATOM  =      9645.50393724
  Solvation  Ediel_sol  =         0.00000000
  ---------------------------------------------------
  free energy    TOTEN  =      -284.65641077 eV

  energy without entropy =     -284.65815441  energy(sigma->0) =     -284.65684668


--------------------------------------------------------------------------------------------------------




 average (electrostatic) potential at core
  the test charge radii are     0.7089  0.9892
  (the norm of the test charge is              1.0000)
       1 -58.3952       2 -58.3952       3 -58.3952       4 -58.3952       5 -56.2781
       6 -56.2781       7 -58.3952       8 -58.3952       9 -58.3952      10 -58.3952
      11 -56.2781      12 -56.2781      13 -58.3952      14 -58.3952      15 -58.3952
      16 -58.3952      17 -56.2781      18 -56.2781      19 -58.3952      20 -58.3952
      21 -58.3952      22 -58.3952      23 -56.2781      24 -56.2781      25 -76.8255
      26 -76.8255      27 -76.8255      28 -76.8255      29 -76.8255      30 -76.8255
      31 -76.8255      32 -76.8255      33 -76.8255      34 -76.8255      35 -76.8255
      36 -76.8255      37 -76.8255      38 -76.8255      39 -76.8255      40 -76.8255
      41 -76.8255      42 -76.8255      43 -76.8255      44 -76.8255      45 -76.8255
      46 -76.8255      47 -76.8255      48 -76.8255      49 -76.8255      50 -76.8255
      51 -76.8255      52 -76.8255      53 -76.8255      54 -76.8255      55 -76.8255
      56 -76.8255
 
 
 
 E-fermi :  14.7649     XC(G=0): -12.7495     alpha+bet :-20.6671


 k-point     1 :       0.0000    0.0000    0.0000
  band No.  band energies     occupation 
      1      -9.2369      2.00000
      2      -7.8883      2.00000
      3      -7.8883      2.00000
      4      -7.8883      2.00000
      5      -7.8883      2.00000
      6      -7.8883      2.00000
      7      -7.8883      2.00000
      8      -6.0187      2.00000
      9      -6.0187      2.00000
     10      -6.0187      2.00000
     11      -6.0187      2.00000
     12      -6.0187      2.00000
     13      -6.0187      2.00000
     14      -5.8390      2.00000
     15      -5.8390      2.00000
     16      -5.8390      2.00000
     17      -4.5110      2.00000
     18      -4.5110      2.00000
     19      -4.5110      2.00000
     20      -4.5110      2.00000
     21      -4.5110      2.00000
     22      -4.5110      2.00000
     23      -4.4054      2.00000
     24      -3.9469      2.00000
     25      -1.5278      2.00000
     26       0.5545      2.00000
     27       0.5545      2.00000
     28       0.5545      2.00000
     29       0.9931      2.00000
     30       0.9931      2.00000
     31       0.9931      2.00000
     32       0.9931      2.00000
     33       0.9931      2.00000
     34       0.9931      2.00000
     35       1.9614      2.00000
     36       1.9614      2.00000
     37       1.9614      2.00000
     38       1.9614      2.00000
     39       1.9614      2.00000
     40       1.9614      2.00000
     41       2.3361      2.00000
     42       2.3361      2.00000
     43       3.0252      2.00000
     44       3.0252      2.00000
     45       3.0252      2.00000
     46       3.0252      2.00000
     47       3.0252      2.00000
     48       3.0252      2.00000
     49       3.5283      2.00000
     50       3.5283      2.00000
     51       3.5283      2.00000
     52       3.5283      2.00000
     53       3.5283      2.00000
     54       3.5283      2.00000
     55       3.9418      2.00000
     56       3.9418      2.00000
     57       3.9418      2.00000
     58       3.9418      2.00000
     59       3.9418      2.00000
     60       3.9418      2.00000
     61       4.5173      2.00000
     62       4.5173      2.00000
     63       4.5173      2.00000
     64       5.8996      2.00000
     65       5.8996      2.00000
     66       5.8996      2.00000
     67       5.8996      2.00000
     68       5.8996      2.00000
     69       5.8996      2.00000
     70       6.1199      2.00000
     71       6.1199      2.00000
     72       6.1199      2.00000
     73       6.2698      2.00000
     74       6.2698      2.00000
     75       6.2698      2.00000
     76       6.2698      2.00000
     77       6.2698      2.00000
     78       6.2698      2.00000
     79       6.3866      2.00000
     80       6.3866      2.00000
     81       6.3866      2.00000
     82       6.6135      2.00000
     83       6.6135      2.00000
     84       6.6135      2.00000
     85       6.6135      2.00000
     86       6.6135      2.00000
     87       6.6135      2.00000
     88       6.6859      2.00000
     89       6.6859      2.00000
     90       6.6859      2.00000
     91       6.6859      2.00000
     92       6.6859      2.00000
     93       6.6859      2.00000
     94       7.8984      2.00000
     95       7.8984      2.00000
     96       7.8984      2.00000
     97       9.9464      2.00000
     98      12.7519      2.00000
     99      12.7519      2.00000
    100      12.7519      2.00000
    101      12.7519      2.00000
    102      12.7519      2.00000
    103      12.7519      2.00000
    104      13.0376      2.00000
    105      13.0376      2.00000
    106      13.0376      2.00000
    107      13.4464      2.00000
    108      13.5781      2.00000
    109      13.5781      2.00000
    110      13.5781      2.00000
    111      13.5781      2.00000
    112      13.5781      2.00000
    113      13.5781      2.00000
    114      13.9504      2.00000
    115      13.9504      2.00000
    116      13.9504      2.00000
    117      13.9505      2.00000
    118      13.9505      2.00000
    119      13.9505      2.00000
    120      14.2802      2.00000
    121      14.2802      2.00000
    122      14.2802      2.00000
    123      14.4475      1.99975
    124      14.4475      1.99975
    125      14.4475      1.99975
    126      14.4475      1.99975
    127      14.4475      1.99975
    128      14.4475      1.99975
    129      15.4259      0.00000
    130      15.4259      0.00000
    131      15.4259      0.00000
    132      15.4259      0.00000
    133      15.4259      0.00000
    134      15.4259      0.00000
    135      15.4824      0.00000
    136      15.4824      0.00000
    137      15.4824      0.00000
    138      15.4825      0.00000
    139      15.4825      0.00000
    140      15.4825      0.00000
    141      15.5990      0.00000
    142      15.5990      0.00000
    143      15.7197      0.00000
    144      15.7197      0.00000
    145      16.7464      0.00000
    146      16.7464      0.00000
    147      16.7464      0.00000
    148      16.7464      0.00000
    149      16.7464      0.00000
    150      16.7465      0.00000
    151      17.9124      0.00000
    152      17.9135      0.00000
    153      17.9205      0.00000
    154      18.3837      0.00000
    155      18.4079      0.00000
    156      18.5033      0.00000

 k-point     2 :       0.1667    0.0000    0.0000
  band No.  band energies     occupation 
      1      -9.1952      2.00000
      2      -8.2679      2.00000
      3      -7.8830      2.00000
      4      -7.8830      2.00000
      5      -7.8830      2.00000
      6      -7.8830      2.00000
      7      -7.4751      2.00000
      8      -6.0468      2.00000
      9      -6.0468      2.00000
     10      -6.0468      2.00000
     11      -6.0468      2.00000
     12      -6.0073      2.00000
     13      -6.0073      2.00000
     14      -5.9510      2.00000
     15      -5.8518      2.00000
     16      -5.8518      2.00000
     17      -4.5776      2.00000
     18      -4.4748      2.00000
     19      -4.4748      2.00000
     20      -4.4748      2.00000
     21      -4.4748      2.00000
     22      -4.4287      2.00000
     23      -4.3917      2.00000
     24      -3.9514      2.00000
     25      -1.4026      2.00000
     26       0.5809      2.00000
     27       0.6136      2.00000
     28       0.6136      2.00000
     29       0.6368      2.00000
     30       0.9504      2.00000
     31       0.9504      2.00000
     32       0.9504      2.00000
     33       0.9504      2.00000
     34       1.2447      2.00000
     35       1.7758      2.00000
     36       1.7758      2.00000
     37       2.0081      2.00000
     38       2.0081      2.00000
     39       2.0081      2.00000
     40       2.0081      2.00000
     41       2.1830      2.00000
     42       2.3602      2.00000
     43       2.3836      2.00000
     44       2.9349      2.00000
     45       2.9349      2.00000
     46       2.9349      2.00000
     47       2.9349      2.00000
     48       3.3661      2.00000
     49       3.3661      2.00000
     50       3.3661      2.00000
     51       3.3661      2.00000
     52       3.4760      2.00000
     53       3.7788      2.00000
     54       3.7788      2.00000
     55       3.8349      2.00000
     56       4.2335      2.00000
     57       4.2335      2.00000
     58       4.2335      2.00000
     59       4.2335      2.00000
     60       4.4557      2.00000
     61       4.5876      2.00000
     62       4.5876      2.00000
     63       4.8158      2.00000
     64       5.5180      2.00000
     65       5.8548      2.00000
     66       5.8548      2.00000
     67       5.8548      2.00000
     68       5.8548      2.00000
     69       5.9521      2.00000
     70       5.9809      2.00000
     71       5.9809      2.00000
     72       6.0162      2.00000
     73       6.0162      2.00000
     74       6.2739      2.00000
     75       6.3334      2.00000
     76       6.3334      2.00000
     77       6.3379      2.00000
     78       6.3512      2.00000
     79       6.3512      2.00000
     80       6.3512      2.00000
     81       6.3512      2.00000
     82       6.5635      2.00000
     83       6.5635      2.00000
     84       6.5635      2.00000
     85       6.5635      2.00000
     86       6.6038      2.00000
     87       6.6038      2.00000
     88       6.6721      2.00000
     89       6.6721      2.00000
     90       6.6721      2.00000
     91       6.6721      2.00000
     92       6.9205      2.00000
     93       6.9205      2.00000
     94       7.5937      2.00000
     95       7.8569      2.00000
     96       7.8569      2.00000
     97      10.2474      2.00000
     98      11.9530      2.00000
     99      12.8338      2.00000
    100      12.8338      2.00000
    101      12.8338      2.00000
    102      12.8338      2.00000
    103      12.9467      2.00000
    104      13.1023      2.00000
    105      13.2487      2.00000
    106      13.2487      2.00000
    107      13.2487      2.00000
    108      13.2487      2.00000
    109      13.2562      2.00000
    110      13.2562      2.00000
    111      13.6230      2.00000
    112      13.6230      2.00000
    113      13.6519      2.00000
    114      13.8337      2.00000
    115      13.8337      2.00000
    116      13.8337      2.00000
    117      13.8337      2.00000
    118      13.9687      2.00000
    119      13.9747      2.00000
    120      14.2288      2.00000
    121      14.2392      2.00000
    122      14.2392      2.00000
    123      14.6131      2.01927
    124      14.6131      2.01927
    125      14.8378     -0.05609
    126      14.8378     -0.05609
    127      14.8378     -0.05612
    128      14.8378     -0.05612
    129      15.3342      0.00000
    130      15.3342      0.00000
    131      15.3342      0.00000
    132      15.3342      0.00000
    133      15.4434      0.00000
    134      15.4499      0.00000
    135      15.5093      0.00000
    136      15.5720      0.00000
    137      15.5993      0.00000
    138      15.5993      0.00000
    139      15.5993      0.00000
    140      15.5993      0.00000
    141      15.6543      0.00000
    142      15.6796      0.00000
    143      15.6895      0.00000
    144      15.9073      0.00000
    145      16.5630      0.00000
    146      16.5632      0.00000
[...]
    120      10.0906      1.65134
    121      10.0906      1.65134
    122      10.0906      1.65134
    123      10.0906      1.65134
    124      10.0906      1.65134
    125      10.6383      0.00000
    126      10.6383      0.00000
    127      10.6383      0.00000
    128      10.6383      0.00000
    129      10.6383      0.00000
    130      10.6383      0.00000
    131      10.6383      0.00000
    132      10.6383      0.00000
    133      11.9407      0.00000
    134      11.9407      0.00000
    135      11.9407      0.00000
    136      11.9407      0.00000
    137      11.9407      0.00000
    138      11.9407      0.00000
    139      11.9407      0.00000
    140      11.9407      0.00000
    141      12.0307      0.00000
    142      12.0307      0.00000
    143      12.0307      0.00000
    144      12.0307      0.00000
    145      12.5903      0.00000
    146      12.5903      0.00000
    147      12.5903      0.00000
    148      12.5920      0.00000
    149      12.7035      0.00000
    150      12.7035      0.00000
    151      12.7036      0.00000
    152      12.7036      0.00000
    153      12.7038      0.00000
    154      12.7040      0.00000
    155      12.7044      0.00000
    156      12.7049      0.00000


--------------------------------------------------------------------------------------------------------


 soft charge-density along one line, spin component           1
         0         1         2         3         4         5         6         7         8         9
 total charge-density along one line
 
 pseudopotential strength for first ion, spin component:           1
 12.347  14.798   0.000   0.000   0.000   0.000   0.000   0.000
 14.798  17.736   0.000   0.000   0.000   0.000   0.000   0.000
  0.000   0.000  -5.822  -0.003   0.003  -7.748  -0.005   0.005
  0.000   0.000  -0.003  -5.822  -0.003  -0.005  -7.748  -0.005
  0.000   0.000   0.003  -0.003  -5.822   0.005  -0.005  -7.748
  0.000   0.000  -7.748  -0.005   0.005  -9.593  -0.008   0.008
  0.000   0.000  -0.005  -7.748  -0.005  -0.008  -9.593  -0.008
  0.000   0.000   0.005  -0.005  -7.748   0.008  -0.008  -9.593
 total augmentation occupancy for first ion, spin component:           1
  6.411  -3.085   0.000   0.000  -0.000   0.000  -0.000  -0.000
 -3.085   2.024   0.000  -0.000   0.000   0.000   0.000   0.000
  0.000   0.000   1.635  -0.037   0.037  -0.205   0.001  -0.001
  0.000  -0.000  -0.037   1.635  -0.037   0.001  -0.205   0.001
 -0.000   0.000   0.037  -0.037   1.635  -0.001   0.001  -0.205
  0.000   0.000  -0.205   0.001  -0.001   0.038   0.001  -0.001
  0.000   0.000   0.001  -0.205   0.001   0.001   0.038   0.001
 -0.000   0.000  -0.001   0.001  -0.205  -0.001   0.001   0.038


------------------------ aborting loop because EDIFF is reached ----------------------------------------


    CHARGE:  cpu time    0.3755: real time    0.3756
    FORLOC:  cpu time    0.0121: real time    0.0121
    FORNL :  cpu time    2.5013: real time    2.5015
    STRESS:  cpu time    7.4153: real time    7.4159
    FORCOR:  cpu time    0.0525: real time    0.0546
    FORHAR:  cpu time    0.0220: real time    0.0220
    MIXING:  cpu time    0.0009: real time    0.0009
    OFIELD:  cpu time    0.0000: real time    0.0000

  FORCE on cell =-STRESS in cart. coord.  units (eV):
  Direction    XX          YY          ZZ          XY          YZ          ZX
  --------------------------------------------------------------------------------------
  Alpha Z   318.18164   318.18164   318.18164
  Ewald   -3263.98326 -3263.98326 -3263.98326     0.00000    -0.00000    -0.00000
  Hartree   575.86582   575.86582   575.86582    -0.00000    -0.00000    -0.00000
  E(xc)    -924.69664  -924.69664  -924.69664     0.00000    -0.00000    -0.00000
  Local    -766.80896  -766.80896  -766.80896     0.00000    -0.00000    -0.00000
  n-local   971.33603   972.07138   972.85758     0.72315     2.11568     0.58318
  augment  -178.91731  -178.91731  -178.91731    -0.00000     0.00000     0.00000
  Kinetic  3255.02710  3268.22578  3281.60800    -3.14478    -3.85749    -1.24604
  Fock        0.00000     0.00000     0.00000     0.00000     0.00000     0.00000
  -------------------------------------------------------------------------------------
  Total       0.01660     0.01660     0.01660     0.00000     0.00000    -0.00000
  in kB       0.04338     0.04338     0.04338     0.00000     0.00000    -0.00000
  external pressure =        0.04 kB  Pullay stress =        0.00 kB


 VOLUME and BASIS-vectors are now :
 -----------------------------------------------------------------------------
  energy-cutoff  :      400.00
  volume of cell :      613.01
      direct lattice vectors                 reciprocal lattice vectors
     8.494851802  0.000000000  0.000000000     0.117718357 -0.000000000 -0.000000000
     0.000000000  8.494851802  0.000000000    -0.000000000  0.117718357 -0.000000000
     0.000000000  0.000000000  8.494851802    -0.000000000 -0.000000000  0.117718357

  length of vectors
     8.494851802  8.494851802  8.494851802     0.117718357  0.117718357  0.117718357


 FORCES acting on ions
    electron-ion (+dipol)            ewald-force                    non-local-force                 convergence-correction
 -----------------------------------------------------------------------------------------------
   0.296E-11 0.147E-11 0.976E-12   -.573E-13 -.284E-13 0.179E-13   0.421E-20 -.148E-20 0.609E-21   0.259E-14 0.405E-12 -.711E-12
   -.494E-12 -.162E-12 -.348E-12   -.836E-14 -.851E-14 -.280E-13   -.141E-20 0.417E-20 0.265E-20   0.455E-13 0.828E-12 -.218E-12
   0.191E-12 0.675E-12 0.324E-13   -.426E-13 0.320E-13 0.888E-14   -.523E-20 0.229E-20 -.615E-20   -.297E-13 0.141E-11 0.736E-12
   0.163E-13 -.402E-12 0.467E-12   -.888E-15 0.423E-14 -.289E-13   -.376E-21 -.159E-21 -.344E-21   -.228E-12 0.817E-12 0.158E-11
   -.184E-12 0.285E-12 0.236E-12   -.888E-14 0.888E-15 0.222E-13   0.151E-17 0.185E-17 0.304E-17   0.466E-12 -.149E-12 -.270E-12
   0.248E-12 0.246E-13 0.521E-13   -.417E-13 -.187E-13 -.382E-13   -.210E-18 -.710E-18 -.304E-17   -.122E-11 0.106E-11 -.838E-12
   -.182E-11 0.205E-11 0.950E-12   -.288E-13 -.222E-13 0.240E-13   0.643E-20 -.233E-20 -.424E-21   -.208E-12 0.484E-12 -.885E-12
   -.358E-12 -.498E-12 0.622E-12   -.284E-13 -.547E-14 -.169E-13   -.209E-20 0.363E-20 0.204E-20   0.104E-12 0.397E-12 -.441E-12
   0.810E-12 0.274E-12 0.266E-13   -.426E-13 0.355E-13 0.142E-13   -.498E-20 0.211E-20 -.175E-20   -.116E-12 0.158E-11 0.525E-12
   0.744E-14 0.220E-12 0.126E-11   -.213E-13 0.483E-14 -.226E-13   -.179E-20 0.204E-20 0.424E-21   0.390E-12 0.450E-12 0.138E-11
   -.171E-12 0.833E-13 0.389E-12   -.124E-13 0.533E-14 0.240E-13   0.154E-17 0.120E-17 0.282E-17   0.786E-12 0.251E-12 -.404E-12
   0.258E-12 0.170E-12 -.764E-13   -.639E-13 -.711E-14 -.213E-13   -.127E-17 -.548E-17 -.304E-17   -.147E-11 0.104E-11 -.343E-12
   -.108E-12 0.129E-11 -.699E-12   -.255E-13 -.160E-13 -.465E-15   0.383E-20 -.234E-20 -.291E-21   0.118E-12 -.446E-12 0.518E-12
   0.262E-11 -.212E-12 0.251E-11   -.130E-13 -.705E-14 0.320E-13   -.275E-20 0.212E-20 0.715E-21   -.752E-13 -.518E-12 0.704E-12
   0.969E-13 0.347E-12 0.140E-11   -.160E-13 0.195E-13 -.160E-13   -.467E-20 0.218E-20 -.206E-20   -.186E-12 -.159E-11 -.368E-12
   -.325E-12 0.220E-12 -.110E-11   0.533E-13 -.412E-14 -.846E-14   -.148E-20 0.450E-21 0.132E-21   -.211E-12 -.451E-12 -.150E-11
   -.466E-13 0.280E-11 0.144E-11   0.000E+00 -.178E-14 0.213E-13   -.106E-17 -.753E-18 0.369E-17   0.606E-12 -.682E-12 0.153E-11
   0.385E-12 0.143E-13 0.125E-11   -.524E-13 -.187E-13 -.475E-13   -.354E-17 -.407E-17 -.304E-17   0.625E-13 -.297E-12 -.788E-13
   -.650E-12 -.509E-12 -.189E-12   0.694E-16 -.409E-13 0.137E-14   0.587E-20 -.384E-21 0.741E-21   -.599E-13 -.462E-12 0.689E-12
   -.628E-12 0.321E-11 0.209E-11   -.188E-13 -.500E-14 -.355E-13   -.118E-20 0.267E-20 0.304E-20   -.332E-13 -.898E-12 -.654E-13
   0.144E-12 -.248E-12 0.636E-12   -.355E-14 0.302E-13 0.160E-13   -.252E-20 0.252E-21 -.363E-20   0.108E-12 -.140E-11 -.668E-12
   -.192E-12 -.845E-12 -.419E-12   0.497E-13 0.114E-13 -.364E-13   -.128E-20 -.398E-21 -.212E-21   0.281E-12 -.700E-12 -.153E-11
   -.266E-13 0.592E-12 -.134E-11   -.222E-13 0.178E-14 0.195E-13   0.330E-17 0.402E-17 0.304E-17   0.952E-12 -.840E-12 0.744E-12
   0.368E-12 -.133E-11 -.571E-12   -.542E-13 -.160E-13 -.195E-13   -.281E-17 -.277E-18 -.304E-17   -.128E-12 -.411E-12 0.270E-12
   -.177E+01 -.177E+01 -.177E+01   0.293E+01 0.293E+01 0.293E+01   -.116E+01 -.116E+01 -.116E+01   0.172E-02 0.172E-02 0.172E-02
   0.177E+01 -.177E+01 -.177E+01   -.293E+01 0.293E+01 0.293E+01   0.116E+01 -.116E+01 -.116E+01   -.172E-02 0.172E-02 0.172E-02
   -.177E+01 -.177E+01 0.177E+01   0.293E+01 0.293E+01 -.293E+01   -.116E+01 -.116E+01 0.116E+01   0.172E-02 0.172E-02 -.172E-02
   -.177E+01 0.177E+01 -.177E+01   0.293E+01 -.293E+01 0.293E+01   -.116E+01 0.116E+01 -.116E+01   0.172E-02 -.172E-02 0.172E-02
   0.177E+01 0.177E+01 -.177E+01   -.293E+01 -.293E+01 0.293E+01   0.116E+01 0.116E+01 -.116E+01   -.172E-02 -.172E-02 0.172E-02
   0.177E+01 -.177E+01 0.177E+01   -.293E+01 0.293E+01 -.293E+01   0.116E+01 -.116E+01 0.116E+01   -.172E-02 0.172E-02 -.172E-02
   0.177E+01 0.177E+01 0.177E+01   -.293E+01 -.293E+01 -.293E+01   0.116E+01 0.116E+01 0.116E+01   -.172E-02 -.172E-02 -.172E-02
   -.177E+01 0.177E+01 0.177E+01   0.293E+01 -.293E+01 -.293E+01   -.116E+01 0.116E+01 0.116E+01   0.172E-02 -.172E-02 -.172E-02
   -.177E+01 -.177E+01 -.177E+01   0.293E+01 0.293E+01 0.293E+01   -.116E+01 -.116E+01 -.116E+01   0.172E-02 0.172E-02 0.172E-02
   0.177E+01 -.177E+01 -.177E+01   -.293E+01 0.293E+01 0.293E+01   0.116E+01 -.116E+01 -.116E+01   -.172E-02 0.172E-02 0.172E-02
   -.177E+01 -.177E+01 0.177E+01   0.293E+01 0.293E+01 -.293E+01   -.116E+01 -.116E+01 0.116E+01   0.172E-02 0.172E-02 -.172E-02
   -.177E+01 0.177E+01 -.177E+01   0.293E+01 -.293E+01 0.293E+01   -.116E+01 0.116E+01 -.116E+01   0.172E-02 -.172E-02 0.172E-02
   0.177E+01 0.177E+01 -.177E+01   -.293E+01 -.293E+01 0.293E+01   0.116E+01 0.116E+01 -.116E+01   -.172E-02 -.172E-02 0.172E-02
   0.177E+01 -.177E+01 0.177E+01   -.293E+01 0.293E+01 -.293E+01   0.116E+01 -.116E+01 0.116E+01   -.172E-02 0.172E-02 -.172E-02
   0.177E+01 0.177E+01 0.177E+01   -.293E+01 -.293E+01 -.293E+01   0.116E+01 0.116E+01 0.116E+01   -.172E-02 -.172E-02 -.172E-02
   -.177E+01 0.177E+01 0.177E+01   0.293E+01 -.293E+01 -.293E+01   -.116E+01 0.116E+01 0.116E+01   0.172E-02 -.172E-02 -.172E-02
   -.177E+01 -.177E+01 -.177E+01   0.293E+01 0.293E+01 0.293E+01   -.116E+01 -.116E+01 -.116E+01   0.172E-02 0.172E-02 0.172E-02
   0.177E+01 -.177E+01 -.177E+01   -.293E+01 0.293E+01 0.293E+01   0.116E+01 -.116E+01 -.116E+01   -.172E-02 0.172E-02 0.172E-02
   -.177E+01 -.177E+01 0.177E+01   0.293E+01 0.293E+01 -.293E+01   -.116E+01 -.116E+01 0.116E+01   0.172E-02 0.172E-02 -.172E-02
   -.177E+01 0.177E+01 -.177E+01   0.293E+01 -.293E+01 0.293E+01   -.116E+01 0.116E+01 -.116E+01   0.172E-02 -.172E-02 0.172E-02
   0.177E+01 0.177E+01 -.177E+01   -.293E+01 -.293E+01 0.293E+01   0.116E+01 0.116E+01 -.116E+01   -.172E-02 -.172E-02 0.172E-02
   0.177E+01 -.177E+01 0.177E+01   -.293E+01 0.293E+01 -.293E+01   0.116E+01 -.116E+01 0.116E+01   -.172E-02 0.172E-02 -.172E-02
   0.177E+01 0.177E+01 0.177E+01   -.293E+01 -.293E+01 -.293E+01   0.116E+01 0.116E+01 0.116E+01   -.172E-02 -.172E-02 -.172E-02
   -.177E+01 0.177E+01 0.177E+01   0.293E+01 -.293E+01 -.293E+01   -.116E+01 0.116E+01 0.116E+01   0.172E-02 -.172E-02 -.172E-02
   -.177E+01 -.177E+01 -.177E+01   0.293E+01 0.293E+01 0.293E+01   -.116E+01 -.116E+01 -.116E+01   0.172E-02 0.172E-02 0.172E-02
   0.177E+01 -.177E+01 -.177E+01   -.293E+01 0.293E+01 0.293E+01   0.116E+01 -.116E+01 -.116E+01   -.172E-02 0.172E-02 0.172E-02
   -.177E+01 -.177E+01 0.177E+01   0.293E+01 0.293E+01 -.293E+01   -.116E+01 -.116E+01 0.116E+01   0.172E-02 0.172E-02 -.172E-02
   -.177E+01 0.177E+01 -.177E+01   0.293E+01 -.293E+01 0.293E+01   -.116E+01 0.116E+01 -.116E+01   0.172E-02 -.172E-02 0.172E-02
   0.177E+01 0.177E+01 -.177E+01   -.293E+01 -.293E+01 0.293E+01   0.116E+01 0.116E+01 -.116E+01   -.172E-02 -.172E-02 0.172E-02
   0.177E+01 -.177E+01 0.177E+01   -.293E+01 0.293E+01 -.293E+01   0.116E+01 -.116E+01 0.116E+01   -.172E-02 0.172E-02 -.172E-02
   0.177E+01 0.177E+01 0.177E+01   -.293E+01 -.293E+01 -.293E+01   0.116E+01 0.116E+01 0.116E+01   -.172E-02 -.172E-02 -.172E-02
   -.177E+01 0.177E+01 0.177E+01   0.293E+01 -.293E+01 -.293E+01   -.116E+01 0.116E+01 0.116E+01   0.172E-02 -.172E-02 -.172E-02
 -----------------------------------------------------------------------------------------------
   0.284E-11 0.910E-11 0.821E-11   -.105E-12 0.162E-12 -.711E-14   -.444E-15 -.666E-15 0.000E+00   -.310E-13 -.136E-12 0.378E-12
 
 
 POSITION                                       TOTAL-FORCE (eV/Angst)
 -----------------------------------------------------------------------------------
      7.43300      7.43300      1.06186        -0.000000     -0.000000     -0.000000
      3.18557      1.06186      3.18557        -0.000000     -0.000000     -0.000000
      5.30928      7.43300      3.18557         0.000000     -0.000000     -0.000000
      1.06186      1.06186      1.06186        -0.000000     -0.000000     -0.000000
      2.12371      6.37114      2.12371         0.000000     -0.000000     -0.000000
      0.00000      0.00000      4.24743         0.000000     -0.000000     -0.000000
      7.43300      3.18557      5.30928        -0.000000     -0.000000     -0.000000
      3.18557      5.30928      7.43300        -0.000000     -0.000000     -0.000000
      5.30928      3.18557      7.43300         0.000000     -0.000000     -0.000000
      1.06186      5.30928      5.30928        -0.000000     -0.000000     -0.000000
      2.12371      2.12371      6.37114        -0.000000     -0.000000     -0.000000
      0.00000      4.24743      0.00000        -0.000000     -0.000000     -0.000000
      3.18557      7.43300      5.30928        -0.000000     -0.000000     -0.000000
      7.43300      1.06186      7.43300        -0.000000     -0.000000     -0.000000
      1.06186      7.43300      7.43300         0.000000     -0.000000     -0.000000
      5.30928      1.06186      5.30928        -0.000000     -0.000000     -0.000000
      6.37114      6.37114      6.37114        -0.000000     -0.000000     -0.000000
      4.24743      0.00000      0.00000        -0.000000     -0.000000     -0.000000
      3.18557      3.18557      1.06186        -0.000000     -0.000000     -0.000000
      7.43300      5.30928      3.18557        -0.000000     -0.000000     -0.000000
      1.06186      3.18557      3.18557         0.000000     -0.000000     -0.000000
      5.30928      5.30928      1.06186        -0.000000     -0.000000     -0.000000
      6.37114      2.12371      2.12371         0.000000     -0.000000     -0.000000
      4.24743      4.24743      4.24743         0.000000     -0.000000     -0.000000
      3.19664      3.19664      3.19664         0.000605      0.000605      0.000605
      7.42193      1.07292      1.07292        -0.000605      0.000605      0.000605
      5.32035      1.07292      3.17450         0.000605      0.000605     -0.000605
      1.07292      7.42193      1.07292         0.000605     -0.000605      0.000605
      1.05079      1.05079      3.19664        -0.000605     -0.000605      0.000605
      1.05079      3.19664      1.05079        -0.000605      0.000605     -0.000605
      3.17450      7.42193      3.17450        -0.000605     -0.000605     -0.000605
      3.19664      1.05079      1.05079         0.000605     -0.000605     -0.000605
      3.19664      7.44406      7.44406         0.000605      0.000605      0.000605
      7.42193      5.32035      5.32035        -0.000605      0.000605      0.000605
      5.32035      5.32035      7.42193         0.000605      0.000605     -0.000605
      1.07292      3.17450      5.32035         0.000605     -0.000605      0.000605
      1.05079      5.29821      7.44406        -0.000605     -0.000605      0.000605
      1.05079      7.44406      5.29821        -0.000605      0.000605     -0.000605
      3.17450      3.17450      7.42193        -0.000605     -0.000605     -0.000605
      3.19664      5.29821      5.29821         0.000605     -0.000605     -0.000605
      7.44406      3.19664      7.44406         0.000605      0.000605      0.000605
      3.17450      1.07292      5.32035        -0.000605      0.000605      0.000605
      1.07292      1.07292      7.42193         0.000605      0.000605     -0.000605
      5.32035      7.42193      5.32035         0.000605     -0.000605      0.000605
      5.29821      1.05079      7.44406        -0.000605     -0.000605      0.000605
      5.29821      3.19664      5.29821        -0.000605      0.000605     -0.000605
      7.42193      7.42193      7.42193        -0.000605     -0.000605     -0.000605
      7.44406      1.05079      5.29821         0.000605     -0.000605     -0.000605
      7.44406      7.44406      3.19664         0.000605      0.000605      0.000605
      3.17450      5.32035      1.07292        -0.000605      0.000605      0.000605
      1.07292      5.32035      3.17450         0.000605      0.000605     -0.000605
      5.32035      3.17450      1.07292         0.000605     -0.000605      0.000605
      5.29821      5.29821      3.19664        -0.000605     -0.000605      0.000605
      5.29821      7.44406      1.05079        -0.000605      0.000605     -0.000605
      7.42193      3.17450      3.17450        -0.000605     -0.000605     -0.000605
      7.44406      5.29821      1.05079         0.000605     -0.000605     -0.000605
 -----------------------------------------------------------------------------------
    total drift:                                0.000000      0.000000      0.000000


--------------------------------------------------------------------------------------------------------



  FREE ENERGIE OF THE ION-ELECTRON SYSTEM (eV)
  ---------------------------------------------------
  free  energy   TOTEN  =      -323.85089432 eV

  energy  without entropy=     -323.85808212  energy(sigma->0) =     -323.85269127
 
 d Force = 0.1328925E-02[ 0.472E-04, 0.261E-02]  d Energy = 0.3003754E-02-0.167E-02
 d Force = 0.2366517E+00[ 0.228E+00, 0.245E+00]  d Ewald  =-0.7032151E+01 0.727E+01


--------------------------------------------------------------------------------------------------------


    POTLOK:  cpu time    0.0485: real time    0.0507


--------------------------------------------------------------------------------------------------------




--------------------------------------------------------------------------------------------------------


  
 reached required accuracy - stopping structural energy minimisation
     LOOP+:  cpu time   40.5463: real time   40.5666
    4ORBIT:  cpu time    0.0000: real time    0.0000

 total amount of memory used by VASP MPI-rank0    81025. kBytes
=======================================================================

   base      :      30000. kBytes
   nonlr-proj:      12073. kBytes
   fftplans  :       3978. kBytes
   grid      :       6277. kBytes
   one-center:         43. kBytes
   wavefun   :      28654. kBytes
 
  
  
 General timing and accounting informations for this job:
 ========================================================
  
                  Total CPU time used (sec):      666.955
                            User time (sec):      664.216
                          System time (sec):        2.739
                         Elapsed time (sec):      667.495
  
                   Maximum memory used (kb):      213856.
                   Average memory used (kb):           0.
  
                          Minor page faults:       302862
                          Major page faults:           10
                 Voluntary context switches:         3973
