<?xml version="1.0" encoding="ISO-8859-1"?>
<modeling>
 <generator>
  <i name="program" type="string">vasp </i>
  <i name="version" type="string">5.4.4.18Apr17-6-g9f103f2a35  </i>
  <i name="subversion" type="string">(build Nov 01 2019 12:17:22) complex            parallel </i>
  <i name="platform" type="string">LinuxIFC </i>
  <i name="date" type="string">2023 05 19 </i>
  <i name="time" type="string">11:27:23 </i>
 </generator>
 <incar>
  <i type="string" name="PREC">accurate</i>
  <i type="string" name="ALGO"> Fast</i>
  <i type="int" name="IBRION">     2</i>
  <i type="int" name="NSW">   100</i>
  <i type="int" name="ISIF">     3</i>
  <i type="string" name="LREAL"> Auto</i>
  <i type="int" name="ISMEAR">     2</i>
  <i name="SIGMA">      0.10000000</i>
  <i type="logical" name="LWAVE"> F  </i>
  <i type="logical" name="LCHARG"> F  </i>
  <v type="int" name="KPOINT_BSE">    -1     0     0     0</v>
 </incar>
 <structure name="primitive_cell" >
  <crystal>
   <varray name="basis" >
    <v>       3.89371800       3.89371800       0.00000000 </v>
    <v>       3.89371800       0.00000000      -3.89371800 </v>
    <v>       0.00000000       3.89371800      -3.89371800 </v>
   </varray>
   <i name="volume">    118.06562763 </i>
   <varray name="rec_basis" >
    <v>       0.12841197       0.12841197       0.12841197 </v>
    <v>       0.12841197      -0.12841197      -0.12841197 </v>
    <v>      -0.12841197       0.12841197      -0.12841197 </v>
   </varray>
  </crystal>
  <varray name="positions" >
   <v>      -0.12500000      -0.12500000      -0.12500000 </v>
   <v>       0.11756300      -0.35268900       0.11756300 </v>
   <v>       0.11756300       0.11756300      -0.35268900 </v>
   <v>      -0.35268900       0.11756300       0.11756300 </v>
   <v>       0.10268900      -0.36756300      -0.36756300 </v>
   <v>      -0.36756300      -0.36756300       0.10268900 </v>
   <v>      -0.36756300       0.10268900      -0.36756300 </v>
   <v>      -0.12500000       0.37500000      -0.12500000 </v>
   <v>      -0.12500000      -0.12500000       0.37500000 </v>
   <v>       0.37500000      -0.12500000      -0.12500000 </v>
   <v>       0.25000000       0.25000000       0.25000000 </v>
   <v>      -0.50000000      -0.50000000      -0.50000000 </v>
   <v>       0.11756300       0.11756300       0.11756300 </v>
   <v>      -0.36756300      -0.36756300      -0.36756300 </v>
  </varray>
 </structure>
 <varray name="primitive_index" >
  <v type="int" >        1 </v>
  <v type="int" >       26 </v>
  <v type="int" >       28 </v>
  <v type="int" >       47 </v>
  <v type="int" >       49 </v>
  <v type="int" >       54 </v>
  <v type="int" >       56 </v>
  <v type="int" >        3 </v>
  <v type="int" >       14 </v>
  <v type="int" >        4 </v>
  <v type="int" >        5 </v>
  <v type="int" >        6 </v>
  <v type="int" >       43 </v>
  <v type="int" >       53 </v>
 </varray>
 <kpoints>
  <generation param="Auto">
   <i name="subdivisionlength">     45.00000000 </i>
   <v type="int" name="divisions">       6        6        6 </v>
   <v name="usershift">      0.00000000       0.00000000       0.00000000 </v>
   <v name="genvec1">      0.16666667       0.00000000       0.00000000 </v>
   <v name="genvec2">      0.00000000       0.16666667       0.00000000 </v>
   <v name="genvec3">     -0.00000000       0.00000000       0.16666667 </v>
   <v name="shift">      0.00000000       0.00000000       0.00000000 </v>
  </generation>
  <varray name="kpointlist" >
   <v>       0.00000000       0.00000000       0.00000000 </v>
   <v>       0.16666667       0.00000000       0.00000000 </v>
   <v>       0.33333333       0.00000000       0.00000000 </v>
   <v>       0.50000000       0.00000000       0.00000000 </v>
   <v>       0.16666667       0.16666667       0.00000000 </v>
   <v>       0.33333333       0.16666667       0.00000000 </v>
   <v>       0.50000000       0.16666667       0.00000000 </v>
   <v>       0.33333333       0.33333333       0.00000000 </v>
   <v>       0.50000000       0.33333333       0.00000000 </v>
   <v>       0.50000000       0.50000000       0.00000000 </v>
   <v>       0.16666667       0.16666667       0.16666667 </v>
   <v>       0.33333333       0.16666667       0.16666667 </v>
   <v>       0.50000000       0.16666667       0.16666667 </v>
   <v>       0.33333333       0.33333333       0.16666667 </v>
   <v>       0.50000000       0.33333333       0.16666667 </v>
   <v>       0.50000000       0.50000000       0.16666667 </v>
   <v>       0.33333333       0.33333333       0.33333333 </v>
   <v>       0.50000000       0.33333333       0.33333333 </v>
   <v>       0.50000000       0.50000000       0.33333333 </v>
   <v>       0.50000000       0.50000000       0.50000000 </v>
  </varray>
  <varray name="weights" >
   <v>       0.00462963 </v>
   <v>       0.02777778 </v>
   <v>       0.02777778 </v>
   <v>       0.01388889 </v>
   <v>       0.05555556 </v>
   <v>       0.11111111 </v>
   <v>       0.05555556 </v>
   <v>       0.05555556 </v>
   <v>       0.05555556 </v>
   <v>       0.01388889 </v>
   <v>       0.03703704 </v>
   <v>       0.11111111 </v>
   <v>       0.05555556 </v>
   <v>       0.11111111 </v>
   <v>       0.11111111 </v>
   <v>       0.02777778 </v>
   <v>       0.03703704 </v>
   <v>       0.05555556 </v>
   <v>       0.02777778 </v>
   <v>       0.00462963 </v>
  </varray>
 </kpoints>
 <parameters>
  <separator name="general" >
   <i type="string" name="SYSTEM">unknown system</i>
   <i type="logical" name="LCOMPAT"> F  </i>
  </separator>
  <separator name="electronic" >
   <i type="string" name="PREC">accura</i>
   <i name="ENMAX">    400.00000000</i>
   <i name="ENAUG">    627.11200000</i>
   <i name="EDIFF">      0.00010000</i>
   <i type="int" name="IALGO">    68</i>
   <i type="int" name="IWAVPR">    11</i>
   <i type="int" name="NBANDS">   156</i>
   <i name="NELECT">    248.00000000</i>
   <i type="int" name="TURBO">     0</i>
   <i type="int" name="IRESTART">     0</i>
   <i type="int" name="NREBOOT">     0</i>
   <i type="int" name="NMIN">     0</i>
   <i name="EREF">      0.00000000</i>
   <separator name="electronic smearing" >
    <i type="int" name="ISMEAR">     2</i>
    <i name="SIGMA">      0.10000000</i>
    <i name="KSPACING">      0.50000000</i>
    <i type="logical" name="KGAMMA"> T  </i>
   </separator>
   <separator name="electronic projectors" >
    <i type="logical" name="LREAL"> T  </i>
    <v name="ROPT">     -0.00025000     -0.00025000</v>
    <i type="int" name="LMAXPAW">  -100</i>
    <i type="int" name="LMAXMIX">     2</i>
    <i type="logical" name="NLSPLINE"> F  </i>
   </separator>
   <separator name="electronic startup" >
    <i type="int" name="ISTART">     0</i>
    <i type="int" name="ICHARG">     2</i>
    <i type="int" name="INIWAV">     1</i>
   </separator>
   <separator name="electronic spin" >
    <i type="int" name="ISPIN">     1</i>
    <i type="logical" name="LNONCOLLINEAR"> F  </i>
    <v name="MAGMOM">      1.00000000      1.00000000      1.00000000      1.00000000      1.00000000      1.00000000      1.00000000      1.00000000      1.00000000      1.00000000      1.00000000      1.00000000      1.00000000      1.00000000      1.00000000      1.00000000      1.00000000      1.00000000      1.00000000      1.00000000
      1.00000000      1.00000000      1.00000000      1.00000000      1.00000000      1.00000000      1.00000000      1.00000000      1.00000000      1.00000000      1.00000000      1.00000000      1.00000000      1.00000000      1.00000000      1.00000000      1.00000000      1.00000000      1.00000000      1.00000000
      1.00000000      1.00000000      1.00000000      1.00000000      1.00000000      1.00000000      1.00000000      1.00000000      1.00000000      1.00000000      1.00000000      1.00000000      1.00000000      1.00000000      1.00000000      1.00000000</v>
    <i name="NUPDOWN">     -1.00000000</i>
    <i type="logical" name="LSORBIT"> F  </i>
    <v name="SAXIS">      0.00000000      0.00000000      1.00000000</v>
    <i type="logical" name="LSPIRAL"> F  </i>
    <v name="QSPIRAL">      0.00000000      0.00000000      0.00000000</v>
    <i type="logical" name="LZEROZ"> F  </i>
   </separator>
   <separator name="electronic exchange-correlation" >
    <i type="logical" name="LASPH"> F  </i>
    <i type="logical" name="LMETAGGA"> F  </i>
   </separator>
   <separator name="electronic convergence" >
    <i type="int" name="NELM">    60</i>
    <i type="int" name="NELMDL">    -5</i>
    <i type="int" name="NELMIN">     2</i>
    <i name="ENINI">    400.00000000</i>
    <separator name="electronic convergence detail" >
     <i type="logical" name="LDIAG"> T  </i>
     <i type="logical" name="LSUBROT"> F  </i>
     <i name="WEIMIN">      0.00100000</i>
     <i name="EBREAK">      0.00000016</i>
     <i name="DEPER">      0.30000000</i>
     <i type="int" name="NRMM">     4</i>
     <i name="TIME">      0.40000000</i>
    </separator>
   </separator>
   <separator name="electronic mixer" >
    <i name="AMIX">      0.40000000</i>
    <i name="BMIX">      1.00000000</i>
    <i name="AMIN">      0.10000000</i>
    <i name="AMIX_MAG">      1.60000000</i>
    <i name="BMIX_MAG">      1.00000000</i>
    <separator name="electronic mixer details" >
     <i type="int" name="IMIX">     4</i>
     <i type="logical" name="MIXFIRST"> F  </i>
     <i type="int" name="MAXMIX">   -45</i>
     <i name="WC">    100.00000000</i>
     <i type="int" name="INIMIX">     1</i>
     <i type="int" name="MIXPRE">     1</i>
     <i type="int" name="MREMOVE">     5</i>
    </separator>
   </separator>
   <separator name="electronic dipolcorrection" >
    <i type="logical" name="LDIPOL"> F  </i>
    <i type="logical" name="LMONO"> F  </i>
    <i type="int" name="IDIPOL">     0</i>
    <i name="EPSILON">      1.00000000</i>
    <v name="DIPOL">   -100.00000000   -100.00000000   -100.00000000</v>
    <i name="EFIELD">      0.00000000</i>
   </separator>
  </separator>
  <separator name="grids" >
   <i type="int" name="NGX">    54</i>
   <i type="int" name="NGY">    54</i>
   <i type="int" name="NGZ">    54</i>
   <i type="int" name="NGXF">   108</i>
   <i type="int" name="NGYF">   108</i>
   <i type="int" name="NGZF">   108</i>
   <i type="logical" name="ADDGRID"> F  </i>
  </separator>
  <separator name="ionic" >
   <i type="int" name="NSW">   100</i>
   <i type="int" name="IBRION">     2</i>
   <i type="int" name="MDALGO">     0</i>
   <i type="int" name="ISIF">     3</i>
   <i name="PSTRESS">      0.00000000</i>
   <i name="EDIFFG">      0.00100000</i>
   <i type="int" name="NFREE">     1</i>
   <i name="POTIM">      0.50000000</i>
   <i name="SMASS">     -3.00000000</i>
   <i name="SCALEE">      1.00000000</i>
  </separator>
  <separator name="ionic md" >
   <i name="TEBEG">      0.00010000</i>
   <i name="TEEND">      0.00010000</i>
   <i type="int" name="NBLOCK">     1</i>
   <i type="int" name="KBLOCK">   100</i>
   <i type="int" name="NPACO">   256</i>
   <i name="APACO">     16.00000000</i>
  </separator>
  <separator name="symmetry" >
   <i type="int" name="ISYM">     2</i>
   <i name="SYMPREC">      0.00001000</i>
  </separator>
  <separator name="dos" >
   <i type="int" name="LORBIT">     0</i>
   <v name="RWIGS">     -1.00000000     -1.00000000</v>
   <i type="int" name="NEDOS">   301</i>
   <i name="EMIN">     10.00000000</i>
   <i name="EMAX">    -10.00000000</i>
   <i name="EFERMI">      0.00000000</i>
  </separator>
  <separator name="writing" >
   <i type="int" name="NWRITE">     2</i>
   <i type="logical" name="LWAVE"> F  </i>
   <i type="logical" name="LDOWNSAMPLE"> F  </i>
   <i type="logical" name="LCHARG"> F  </i>
   <i type="logical" name="LPARD"> F  </i>
   <i type="logical" name="LVTOT"> F  </i>
   <i type="logical" name="LVHAR"> F  </i>
   <i type="logical" name="LELF"> F  </i>
   <i type="logical" name="LOPTICS"> F  </i>
   <v name="STM">      0.00000000      0.00000000      0.00000000      0.00000000      0.00000000      0.00000000      0.00000000</v>
  </separator>
  <separator name="performance" >
   <i type="int" name="NPAR">     4</i>
   <i type="int" name="NSIM">     4</i>
   <i type="int" name="NBLK">    -1</i>
   <i type="logical" name="LPLANE"> T  </i>
   <i type="logical" name="LSCALAPACK"> F  </i>
   <i type="logical" name="LSCAAWARE"> F  </i>
   <i type="logical" name="LSCALU"> F  </i>
   <i type="logical" name="LASYNC"> F  </i>
   <i type="logical" name="LORBITALREAL"> F  </i>
  </separator>
  <separator name="miscellaneous" >
   <i type="int" name="IDIOT">     3</i>
   <i type="int" name="ISPECIAL">     0</i>
   <i type="logical" name="LMUSIC"> F  </i>
   <v name="POMASS">     14.00100000     28.08500000</v>
   <v name="DARWINR">      0.00000000      0.00000000</v>
   <v name="DARWINV">      1.00000000      1.00000000</v>
   <i type="logical" name="LCORR"> T  </i>
  </separator>
  <i type="logical" name="GGA_COMPAT"> T  </i>
  <i type="logical" name="LBERRY"> F  </i>
  <i type="int" name="ICORELEVEL">     0</i>
  <i type="logical" name="LDAU"> F  </i>
  <i type="int" name="I_CONSTRAINED_M">     0</i>
  <separator name="electronic exchange-correlation" >
   <i type="string" name="GGA">--</i>
   <i type="int" name="VOSKOWN">     0</i>
   <i type="logical" name="LHFCALC"> F  </i>
   <i type="string" name="PRECFOCK"></i>
   <i type="logical" name="LSYMGRAD"> F  </i>
   <i type="logical" name="LHFONE"> F  </i>
   <i type="logical" name="LRHFCALC"> F  </i>
   <i type="logical" name="LTHOMAS"> F  </i>
   <i type="logical" name="LMODELHF"> F  </i>
   <i name="ENCUT4O">     -1.00000000</i>
   <i type="int" name="EXXOEP">     0</i>
   <i type="int" name="FOURORBIT">     0</i>
   <i name="AEXX">      0.00000000</i>
   <i name="HFALPHA">      0.00000000</i>
   <i name="MCALPHA">      0.00000000</i>
   <i name="ALDAX">      1.00000000</i>
   <i name="AGGAX">      1.00000000</i>
   <i name="ALDAC">      1.00000000</i>
   <i name="AGGAC">      1.00000000</i>
   <i type="int" name="NKREDX">     1</i>
   <i type="int" name="NKREDY">     1</i>
   <i type="int" name="NKREDZ">     1</i>
   <i type="logical" name="SHIFTRED"> F  </i>
   <i type="logical" name="ODDONLY"> F  </i>
   <i type="logical" name="EVENONLY"> F  </i>
   <i type="int" name="LMAXFOCK">     0</i>
   <i type="int" name="NMAXFOCKAE">     0</i>
   <i type="logical" name="LFOCKAEDFT"> F  </i>
   <i name="HFSCREEN">      0.00000000</i>
   <i name="HFSCREENC">      0.00000000</i>
   <i type="int" name="NBANDSGWLOW">     0</i>
  </separator>
  <separator name="vdW DFT" >
   <i type="logical" name="LUSE_VDW"> F  </i>
   <i name="Zab_VDW">     -0.84910000</i>
   <i name="PARAM1">      0.12340000</i>
   <i name="PARAM2">      1.00000000</i>
   <i name="PARAM3">      0.00000000</i>
  </separator>
  <separator name="model GW" >
   <i type="int" name="MODEL_GW">     0</i>
   <i name="MODEL_EPS0">      5.05995547</i>
   <i name="MODEL_ALPHA">      1.00000000</i>
  </separator>
  <separator name="linear response parameters" >
   <i type="logical" name="LEPSILON"> F  </i>
   <i type="logical" name="LRPA"> F  </i>
   <i type="logical" name="LNABLA"> F  </i>
   <i type="logical" name="LVEL"> F  </i>
   <i type="int" name="KINTER">     0</i>
   <i name="CSHIFT">      0.10000000</i>
   <i name="OMEGAMAX">     -1.00000000</i>
   <i name="DEG_THRESHOLD">      0.00200000</i>
   <i name="RTIME">     -0.10000000</i>
   <i name="WPLASMAI">      0.00000000</i>
   <v name="DFIELD">      0.00000000      0.00000000      0.00000000</v>
   <v name="WPLASMA">      0.00000000      0.00000000      0.00000000      0.00000000      0.00000000      0.00000000      0.00000000      0.00000000      0.00000000</v>
  </separator>
  <separator name="orbital magnetization" >
   <i type="logical" name="NUCIND"> F  </i>
   <v name="MAGPOS">      0.00000000      0.00000000      0.00000000</v>
   <i type="logical" name="LNICSALL"> T  </i>
   <i type="logical" name="ORBITALMAG"> F  </i>
   <i type="logical" name="LMAGBLOCH"> F  </i>
   <i type="logical" name="LCHIMAG"> F  </i>
   <i type="logical" name="LGAUGE"> T  </i>
   <i type="int" name="MAGATOM">     0</i>
   <v name="MAGDIPOL">      0.00000000      0.00000000      0.00000000</v>
   <v name="AVECCONST">      0.00000000      0.00000000      0.00000000</v>
  </separator>
  <separator name="response functions" >
   <i type="logical" name="LADDER"> F  </i>
   <i type="logical" name="LRPAFORCE"> F  </i>
   <i type="logical" name="LFXC"> F  </i>
   <i type="logical" name="LHARTREE"> T  </i>
   <i type="int" name="IBSE">     0</i>
   <v type="int" name="KPOINT">    -1     0     0     0</v>
   <i type="logical" name="LTCTE"> F  </i>
   <i type="logical" name="LTETE"> F  </i>
   <i type="logical" name="LTRIPLET"> F  </i>
   <i type="logical" name="LFXCEPS"> F  </i>
   <i type="logical" name="LFXHEG"> F  </i>
   <i type="int" name="NATURALO">     2</i>
   <i type="logical" name="L2ORDER"> F  </i>
   <i type="logical" name="LMP2LT"> F  </i>
   <i type="logical" name="LUSEW"> F  </i>
   <i name="ENCUTGW">     -2.00000000</i>
   <i name="ENCUTGWSOFT">     -2.00000000</i>
   <i name="ENCUTLF">     -1.00000000</i>
   <i type="int" name="LMAXMP2">    -1</i>
   <i name="SCISSOR">      0.00000000</i>
   <i type="int" name="NOMEGA">     0</i>
   <i type="int" name="NOMEGAR">     0</i>
   <i type="int" name="NBANDSGW">    -1</i>
   <i type="int" name="NBANDSO">    -1</i>
   <i type="int" name="NBANDSV">    -1</i>
   <i type="int" name="NELM">     1</i>
   <i type="int" name="NELMHF">     1</i>
   <i type="int" name="DIM">     3</i>
   <i type="int" name="ANTIRES">     0</i>
   <i name="OMEGAMAX">    -30.00000000</i>
   <i name="OMEGAMIN">    -30.00000000</i>
   <i name="OMEGATL">   -200.00000000</i>
   <i type="int" name="OMEGAGRID">   140</i>
   <i name="CSHIFT">     -0.10000000</i>
   <i type="logical" name="SELFENERGY"> F  </i>
   <i type="logical" name="LSPECTRAL"> F  </i>
   <i type="logical" name="LSPECTRALGW"> F  </i>
   <i type="logical" name="LSINGLES"> F  </i>
   <i type="logical" name="LFERMIGW"> F  </i>
   <i type="logical" name="ODDONLYGW"> F  </i>
   <i type="logical" name="EVENONLYGW"> F  </i>
   <i type="int" name="NKREDLFX">     1</i>
   <i type="int" name="NKREDLFY">     1</i>
   <i type="int" name="NKREDLFZ">     1</i>
   <i type="int" name="MAXMEM">  2800</i>
   <i type="int" name="TELESCOPE">     0</i>
   <i type="int" name="TAUPAR">     1</i>
   <i type="int" name="OMEGAPAR">    -1</i>
   <i name="LAMBDA">      1.00000000</i>
  </separator>
  <separator name="External order field" >
   <i name="OFIELD_KAPPA">      0.00000000</i>
   <v name="OFIELD_K">      0.00000000      0.00000000      0.00000000</v>
   <i name="OFIELD_Q6_NEAR">      0.00000000</i>
   <i name="OFIELD_Q6_FAR">      0.00000000</i>
   <i name="OFIELD_A">      0.00000000</i>
  </separator>
 </parameters>
 <atominfo>
  <atoms>      56 </atoms>
  <types>       2 </types>
  <array name="atoms" >
   <dimension dim="1">ion</dimension>
   <field type="string">element</field>
   <field type="int">atomtype</field>
   <set>
    <rc><c>N </c><c>   1</c></rc>
    <rc><c>N </c><c>   1</c></rc>
    <rc><c>N </c><c>   1</c></rc>
    <rc><c>N </c><c>   1</c></rc>
    <rc><c>N </c><c>   1</c></rc>
    <rc><c>N </c><c>   1</c></rc>
    <rc><c>N </c><c>   1</c></rc>
    <rc><c>N </c><c>   1</c></rc>
    <rc><c>N </c><c>   1</c></rc>
    <rc><c>N </c><c>   1</c></rc>
    <rc><c>N </c><c>   1</c></rc>
    <rc><c>N </c><c>   1</c></rc>
    <rc><c>N </c><c>   1</c></rc>
    <rc><c>N </c><c>   1</c></rc>
    <rc><c>N </c><c>   1</c></rc>
    <rc><c>N </c><c>   1</c></rc>
    <rc><c>N </c><c>   1</c></rc>
    <rc><c>N </c><c>   1</c></rc>
    <rc><c>N </c><c>   1</c></rc>
    <rc><c>N </c><c>   1</c></rc>
    <rc><c>N </c><c>   1</c></rc>
    <rc><c>N </c><c>   1</c></rc>
    <rc><c>N </c><c>   1</c></rc>
    <rc><c>N </c><c>   1</c></rc>
    <rc><c>Si</c><c>   2</c></rc>
    <rc><c>Si</c><c>   2</c></rc>
    <rc><c>Si</c><c>   2</c></rc>
    <rc><c>Si</c><c>   2</c></rc>
    <rc><c>Si</c><c>   2</c></rc>
    <rc><c>Si</c><c>   2</c></rc>
    <rc><c>Si</c><c>   2</c></rc>
    <rc><c>Si</c><c>   2</c></rc>
    <rc><c>Si</c><c>   2</c></rc>
    <rc><c>Si</c><c>   2</c></rc>
    <rc><c>Si</c><c>   2</c></rc>
    <rc><c>Si</c><c>   2</c></rc>
    <rc><c>Si</c><c>   2</c></rc>
    <rc><c>Si</c><c>   2</c></rc>
    <rc><c>Si</c><c>   2</c></rc>
    <rc><c>Si</c><c>   2</c></rc>
    <rc><c>Si</c><c>   2</c></rc>
    <rc><c>Si</c><c>   2</c></rc>
    <rc><c>Si</c><c>   2</c></rc>
    <rc><c>Si</c><c>   2</c></rc>
    <rc><c>Si</c><c>   2</c></rc>
    <rc><c>Si</c><c>   2</c></rc>
    <rc><c>Si</c><c>   2</c></rc>
    <rc><c>Si</c><c>   2</c></rc>
    <rc><c>Si</c><c>   2</c></rc>
    <rc><c>Si</c><c>   2</c></rc>
    <rc><c>Si</c><c>   2</c></rc>
    <rc><c>Si</c><c>   2</c></rc>
    <rc><c>Si</c><c>   2</c></rc>
    <rc><c>Si</c><c>   2</c></rc>
    <rc><c>Si</c><c>   2</c></rc>
    <rc><c>Si</c><c>   2</c></rc>
   </set>
  </array>
  <array name="atomtypes" >
   <dimension dim="1">type</dimension>
   <field type="int">atomspertype</field>
   <field type="string">element</field>
   <field>mass</field>
   <field>valence</field>
   <field type="string">pseudopotential</field>
   <set>
    <rc><c>  24</c><c>N </c><c>     14.00100000</c><c>      5.00000000</c><c>  PAW_PBE N 08Apr2002                   </c></rc>
    <rc><c>  32</c><c>Si</c><c>     28.08500000</c><c>      4.00000000</c><c>  PAW_PBE Si 05Jan2001                  </c></rc>
   </set>
  </array>
 </atominfo>
 <structure name="initialpos" >
  <crystal>
   <varray name="basis" >
    <v>       7.78743600       0.00000000       0.00000000 </v>
    <v>       0.00000000       7.78743600       0.00000000 </v>
    <v>       0.00000000       0.00000000       7.78743600 </v>
   </varray>
   <i name="volume">    472.26251052 </i>
   <varray name="rec_basis" >
    <v>       0.12841197      -0.00000000       0.00000000 </v>
    <v>       0.00000000       0.12841197       0.00000000 </v>
    <v>      -0.00000000      -0.00000000       0.12841197 </v>
   </varray>
  </crystal>
  <varray name="positions" >
   <v>       0.87500000       0.87500000       0.12500000 </v>
   <v>       0.37500000       0.12500000       0.37500000 </v>
   <v>       0.62500000       0.87500000       0.37500000 </v>
   <v>       0.12500000       0.12500000       0.12500000 </v>
   <v>       0.25000000       0.75000000       0.25000000 </v>
   <v>       0.00000000       0.00000000       0.50000000 </v>
   <v>       0.87500000       0.37500000       0.62500000 </v>
   <v>       0.37500000       0.62500000       0.87500000 </v>
   <v>       0.62500000       0.37500000       0.87500000 </v>
   <v>       0.12500000       0.62500000       0.62500000 </v>
   <v>       0.25000000       0.25000000       0.75000000 </v>
   <v>       0.00000000       0.50000000       0.00000000 </v>
   <v>       0.37500000       0.87500000       0.62500000 </v>
   <v>       0.87500000       0.12500000       0.87500000 </v>
   <v>       0.12500000       0.87500000       0.87500000 </v>
   <v>       0.62500000       0.12500000       0.62500000 </v>
   <v>       0.75000000       0.75000000       0.75000000 </v>
   <v>       0.50000000       0.00000000       0.00000000 </v>
   <v>       0.37500000       0.37500000       0.12500000 </v>
   <v>       0.87500000       0.62500000       0.37500000 </v>
   <v>       0.12500000       0.37500000       0.37500000 </v>
   <v>       0.62500000       0.62500000       0.12500000 </v>
   <v>       0.75000000       0.25000000       0.25000000 </v>
   <v>       0.50000000       0.50000000       0.50000000 </v>
   <v>       0.36756300       0.36756300       0.36756300 </v>
   <v>       0.88243700       0.11756300       0.11756300 </v>
   <v>       0.61756300       0.11756300       0.38243700 </v>
   <v>       0.11756300       0.88243700       0.11756300 </v>
   <v>       0.13243700       0.13243700       0.36756300 </v>
   <v>       0.13243700       0.36756300       0.13243700 </v>
   <v>       0.38243700       0.88243700       0.38243700 </v>
   <v>       0.36756300       0.13243700       0.13243700 </v>
   <v>       0.36756300       0.86756300       0.86756300 </v>
   <v>       0.88243700       0.61756300       0.61756300 </v>
   <v>       0.61756300       0.61756300       0.88243700 </v>
   <v>       0.11756300       0.38243700       0.61756300 </v>
   <v>       0.13243700       0.63243700       0.86756300 </v>
   <v>       0.13243700       0.86756300       0.63243700 </v>
   <v>       0.38243700       0.38243700       0.88243700 </v>
   <v>       0.36756300       0.63243700       0.63243700 </v>
   <v>       0.86756300       0.36756300       0.86756300 </v>
   <v>       0.38243700       0.11756300       0.61756300 </v>
   <v>       0.11756300       0.11756300       0.88243700 </v>
   <v>       0.61756300       0.88243700       0.61756300 </v>
   <v>       0.63243700       0.13243700       0.86756300 </v>
   <v>       0.63243700       0.36756300       0.63243700 </v>
   <v>       0.88243700       0.88243700       0.88243700 </v>
   <v>       0.86756300       0.13243700       0.63243700 </v>
   <v>       0.86756300       0.86756300       0.36756300 </v>
   <v>       0.38243700       0.61756300       0.11756300 </v>
   <v>       0.11756300       0.61756300       0.38243700 </v>
   <v>       0.61756300       0.38243700       0.11756300 </v>
   <v>       0.63243700       0.63243700       0.36756300 </v>
   <v>       0.63243700       0.86756300       0.13243700 </v>
   <v>       0.88243700       0.38243700       0.38243700 </v>
   <v>       0.86756300       0.63243700       0.13243700 </v>
  </varray>
 </structure>
 <calculation>
  <scstep>
   <time name="dav">   10.12   10.12</time>
   <time name="total">   10.18   10.18</time>
   <energy>
    <i name="alphaZ">    413.00857416 </i>
    <i name="ewald"> -10583.77695345 </i>
    <i name="hartreedc">  -1396.62412738 </i>
    <i name="XCdc">    244.33402210 </i>
    <i name="pawpsdc">   7738.34714636 </i>
    <i name="pawaedc">  -7203.94574617 </i>
    <i name="eentropy">      0.00025730 </i>
    <i name="bandstr">   2102.92686685 </i>
    <i name="atom">   9645.50393724 </i>
    <i name="e_fr_energy">    959.77397701 </i>
    <i name="e_wo_entrp">    959.77371971 </i>
    <i name="e_0_energy">    959.77391268 </i>
   </energy>
  </scstep>
  <scstep>
   <time name="dav">   12.14   12.14</time>
   <time name="total">   12.14   12.14</time>
   <energy>
    <i name="e_fr_energy">   -221.21631981 </i>
    <i name="e_wo_entrp">   -221.21185289 </i>
    <i name="e_0_energy">   -221.21520308 </i>
   </energy>
  </scstep>
  <scstep>
   <time name="dav">   12.08   12.08</time>
   <time name="total">   12.08   12.08</time>
   <energy>
    <i name="e_fr_energy">   -310.47104532 </i>
    <i name="e_wo_entrp">   -310.46093531 </i>
    <i name="e_0_energy">   -310.46851781 </i>
   </energy>
  </scstep>
  <scstep>
   <time name="dav">   12.39   12.39</time>
   <time name="total">   12.39   12.39</time>
   <energy>
    <i name="e_fr_energy">   -313.99212555 </i>
    <i name="e_wo_entrp">   -313.98687405 </i>
    <i name="e_0_energy">   -313.99081267 </i>
   </energy>
  </scstep>
  <scstep>
   <time name="dav">   12.03   12.03</time>
   <time name="total">   12.42   12.42</time>
   <energy>
    <i name="e_fr_energy">   -314.12528191 </i>
    <i name="e_wo_entrp">   -314.11997673 </i>
    <i name="e_0_energy">   -314.12395561 </i>
   </energy>
  </scstep>
  <scstep>
   <time name="diag">    1.36    1.36</time>
   <time name="diis">    6.01    6.01</time>
   <time name="orth">    0.34    0.34</time>
   <time name="total">    8.14    8.14</time>
   <energy>
    <i name="e_fr_energy">   -285.52894668 </i>
    <i name="e_wo_entrp">   -285.52051362 </i>
    <i name="e_0_energy">   -285.52683841 </i>
   </energy>
  </scstep>
  <scstep>
   <time name="diag">    1.35    1.35</time>
   <time name="diis">    6.36    6.36</time>
   <time name="orth">    0.34    0.34</time>
   <time name="total">    8.47    8.48</time>
   <energy>
    <i name="e_fr_energy">   -284.96658150 </i>
    <i name="e_wo_entrp">   -284.96484162 </i>
    <i name="e_0_energy">   -284.96614653 </i>
   </energy>
  </scstep>
  <scstep>
   <time name="diag">    1.36    1.36</time>
   <time name="diis">    6.20    6.20</time>
   <time name="orth">    0.34    0.34</time>
   <time name="total">    8.34    8.34</time>
   <energy>
    <i name="e_fr_energy">   -284.71119920 </i>
    <i name="e_wo_entrp">   -284.71389541 </i>
    <i name="e_0_energy">   -284.71187325 </i>
   </energy>
  </scstep>
  <scstep>
   <time name="diag">    1.35    1.35</time>
   <time name="diis">    6.50    6.50</time>
   <time name="orth">    0.34    0.34</time>
   <time name="total">    8.63    8.63</time>
   <energy>
    <i name="e_fr_energy">   -284.65789846 </i>
    <i name="e_wo_entrp">   -284.66052620 </i>
    <i name="e_0_energy">   -284.65855539 </i>
   </energy>
  </scstep>
  <scstep>
   <time name="diag">    1.35    1.35</time>
   <time name="diis">    6.74    6.74</time>
   <time name="orth">    0.34    0.34</time>
   <time name="total">    8.86    8.86</time>
   <energy>
    <i name="e_fr_energy">   -284.65629965 </i>
    <i name="e_wo_entrp">   -284.65782843 </i>
    <i name="e_0_energy">   -284.65668185 </i>
   </energy>
  </scstep>
  <scstep>
   <time name="diag">    1.35    1.35</time>
   <time name="diis">    6.70    6.70</time>
   <time name="orth">    0.35    0.35</time>
   <time name="total">    8.83    8.83</time>
   <energy>
    <i name="e_fr_energy">   -284.65651386 </i>
    <i name="e_wo_entrp">   -284.65836354 </i>
    <i name="e_0_energy">   -284.65697628 </i>
   </energy>
  </scstep>
  <scstep>
   <time name="diag">    1.34    1.34</time>
   <time name="diis">    5.46    5.46</time>
   <time name="orth">    0.35    0.35</time>
   <time name="total">    7.59    7.59</time>
   <energy>
    <i name="e_fr_energy">   -284.65639623 </i>
    <i name="e_wo_entrp">   -284.65813261 </i>
    <i name="e_0_energy">   -284.65683032 </i>
   </energy>
  </scstep>
  <scstep>
   <time name="diag">    1.34    1.34</time>
   <time name="diis">    4.32    4.32</time>
   <time name="orth">    0.34    0.34</time>
   <time name="total">    6.06    6.06</time>
   <energy>
    <i name="alphaZ">    413.00857416 </i>
    <i name="ewald"> -10583.77695345 </i>
    <i name="hartreedc">  -1636.63417522 </i>
    <i name="XCdc">    264.71544264 </i>
    <i name="pawpsdc">  39260.14720320 </i>
    <i name="pawaedc"> -38732.11185099 </i>
    <i name="eentropy">      0.00174364 </i>
    <i name="bandstr">   1084.48966802 </i>
    <i name="atom">   9645.50393724 </i>
    <i name="e_fr_energy">   -284.65641077 </i>
    <i name="e_wo_entrp">   -284.65815441 </i>
    <i name="e_0_energy">   -284.65684668 </i>
   </energy>
  </scstep>
  <structure>
   <crystal>
    <varray name="basis" >
     <v>       7.78743600       0.00000000       0.00000000 </v>
     <v>       0.00000000       7.78743600       0.00000000 </v>
     <v>       0.00000000       0.00000000       7.78743600 </v>
    </varray>
    <i name="volume">    472.26251052 </i>
    <varray name="rec_basis" >
     <v>       0.12841197      -0.00000000       0.00000000 </v>
     <v>       0.00000000       0.12841197       0.00000000 </v>
     <v>      -0.00000000      -0.00000000       0.12841197 </v>
    </varray>
   </crystal>
   <varray name="positions" >
    <v>       0.87500000       0.87500000       0.12500000 </v>
    <v>       0.37500000       0.12500000       0.37500000 </v>
    <v>       0.62500000       0.87500000       0.37500000 </v>
    <v>       0.12500000       0.12500000       0.12500000 </v>
    <v>       0.25000000       0.75000000       0.25000000 </v>
    <v>       0.00000000       0.00000000       0.50000000 </v>
    <v>       0.87500000       0.37500000       0.62500000 </v>
    <v>       0.37500000       0.62500000       0.87500000 </v>
    <v>       0.62500000       0.37500000       0.87500000 </v>
    <v>       0.12500000       0.62500000       0.62500000 </v>
    <v>       0.25000000       0.25000000       0.75000000 </v>
    <v>       0.00000000       0.50000000       0.00000000 </v>
    <v>       0.37500000       0.87500000       0.62500000 </v>
    <v>       0.87500000       0.12500000       0.87500000 </v>
    <v>       0.12500000       0.87500000       0.87500000 </v>
    <v>       0.62500000       0.12500000       0.62500000 </v>
    <v>       0.75000000       0.75000000       0.75000000 </v>
    <v>       0.50000000       0.00000000       0.00000000 </v>
    <v>       0.37500000       0.37500000       0.12500000 </v>
    <v>       0.87500000       0.62500000       0.37500000 </v>
    <v>       0.12500000       0.37500000       0.37500000 </v>
    <v>       0.62500000       0.62500000       0.12500000 </v>
    <v>       0.75000000       0.25000000       0.25000000 </v>
    <v>       0.50000000       0.50000000       0.50000000 </v>
    <v>       0.36756300       0.36756300       0.36756300 </v>
    <v>       0.88243700       0.11756300       0.11756300 </v>
    <v>       0.61756300       0.11756300       0.38243700 </v>
    <v>       0.11756300       0.88243700       0.11756300 </v>
    <v>       0.13243700       0.13243700       0.36756300 </v>
    <v>       0.13243700       0.36756300       0.13243700 </v>
    <v>       0.38243700       0.88243700       0.38243700 </v>
    <v>       0.36756300       0.13243700       0.13243700 </v>
    <v>       0.36756300       0.86756300       0.86756300 </v>
    <v>       0.88243700       0.61756300       0.61756300 </v>
    <v>       0.61756300       0.61756300       0.88243700 </v>
    <v>       0.11756300       0.38243700       0.61756300 </v>
    <v>       0.13243700       0.63243700       0.86756300 </v>
    <v>       0.13243700       0.86756300       0.63243700 </v>
    <v>       0.38243700       0.38243700       0.88243700 </v>
    <v>       0.36756300       0.63243700       0.63243700 </v>
    <v>       0.86756300       0.36756300       0.86756300 </v>
    <v>       0.38243700       0.11756300       0.61756300 </v>
    <v>       0.11756300       0.11756300       0.88243700 </v>
    <v>       0.61756300       0.88243700       0.61756300 </v>
    <v>       0.63243700       0.13243700       0.86756300 </v>
    <v>       0.63243700       0.36756300       0.63243700 </v>
    <v>       0.88243700       0.88243700       0.88243700 </v>
    <v>       0.86756300       0.13243700       0.63243700 </v>
    <v>       0.86756300       0.86756300       0.36756300 </v>
    <v>       0.38243700       0.61756300       0.11756300 </v>
    <v>       0.11756300       0.61756300       0.38243700 </v>
    <v>       0.61756300       0.38243700       0.11756300 </v>
    <v>       0.63243700       0.63243700       0.36756300 </v>
    <v>       0.63243700       0.86756300       0.13243700 </v>
    <v>       0.88243700       0.38243700       0.38243700 </v>
    <v>       0.86756300       0.63243700       0.13243700 </v>
   </varray>
  </structure>
  <varray name="forces" >
   <v>       0.00000000       0.00000000      -0.00000000 </v>
   <v>       0.00000000       0.00000000      -0.00000000 </v>
   <v>       0.00000000       0.00000000      -0.00000000 </v>
   <v>       0.00000000       0.00000000      -0.00000000 </v>
   <v>       0.00000000       0.00000000      -0.00000000 </v>
   <v>       0.00000000       0.00000000      -0.00000000 </v>
   <v>       0.00000000       0.00000000      -0.00000000 </v>
   <v>       0.00000000       0.00000000      -0.00000000 </v>
   <v>       0.00000000       0.00000000      -0.00000000 </v>
   <v>       0.00000000       0.00000000      -0.00000000 </v>
   <v>       0.00000000       0.00000000      -0.00000000 </v>
   <v>       0.00000000       0.00000000      -0.00000000 </v>
   <v>       0.00000000       0.00000000      -0.00000000 </v>
   <v>       0.00000000       0.00000000      -0.00000000 </v>
   <v>       0.00000000       0.00000000      -0.00000000 </v>
   <v>       0.00000000       0.00000000      -0.00000000 </v>
   <v>       0.00000000       0.00000000      -0.00000000 </v>
   <v>       0.00000000       0.00000000      -0.00000000 </v>
   <v>       0.00000000       0.00000000      -0.00000000 </v>
   <v>       0.00000000       0.00000000      -0.00000000 </v>
   <v>       0.00000000       0.00000000      -0.00000000 </v>
   <v>       0.00000000       0.00000000      -0.00000000 </v>
   <v>       0.00000000       0.00000000      -0.00000000 </v>
   <v>       0.00000000       0.00000000      -0.00000000 </v>
   <v>       3.42007968       3.42007968       3.42007968 </v>
   <v>      -3.42007968       3.42007968       3.42007968 </v>
   <v>       3.42007968       3.42007968      -3.42007968 </v>
   <v>       3.42007968      -3.42007968       3.42007968 </v>
   <v>      -3.42007968      -3.42007968       3.42007968 </v>
   <v>      -3.42007968       3.42007968      -3.42007968 </v>
   <v>      -3.42007968      -3.42007968      -3.42007968 </v>
   <v>       3.42007968      -3.42007968      -3.42007968 </v>
   <v>       3.42007968       3.42007968       3.42007968 </v>
   <v>      -3.42007968       3.42007968       3.42007968 </v>
   <v>       3.42007968       3.42007968      -3.42007968 </v>
   <v>       3.42007968      -3.42007968       3.42007968 </v>
   <v>      -3.42007968      -3.42007968       3.42007968 </v>
   <v>      -3.42007968       3.42007968      -3.42007968 </v>
   <v>      -3.42007968      -3.42007968      -3.42007968 </v>
   <v>       3.42007968      -3.42007968      -3.42007968 </v>
   <v>       3.42007968       3.42007968       3.42007968 </v>
   <v>      -3.42007968       3.42007968       3.42007968 </v>
   <v>       3.42007968       3.42007968      -3.42007968 </v>
   <v>       3.42007968      -3.42007968       3.42007968 </v>
   <v>      -3.42007968      -3.42007968       3.42007968 </v>
   <v>      -3.42007968       3.42007968      -3.42007968 </v>
   <v>      -3.42007968      -3.42007968      -3.42007968 </v>
   <v>       3.42007968      -3.42007968      -3.42007968 </v>
   <v>       3.42007968       3.42007968       3.42007968 </v>
   <v>      -3.42007968       3.42007968       3.42007968 </v>
   <v>       3.42007968       3.42007968      -3.42007968 </v>
   <v>       3.42007968      -3.42007968       3.42007968 </v>
   <v>      -3.42007968      -3.42007968       3.42007968 </v>
   <v>      -3.42007968       3.42007968      -3.42007968 </v>
   <v>      -3.42007968      -3.42007968      -3.42007968 </v>
   <v>       3.42007968      -3.42007968      -3.42007968 </v>
  </varray>
  <varray name="stress" >
   <v>     737.81797950       0.00000000       0.00000000 </v>
   <v>       0.00000000     737.81797950       0.00000000 </v>
   <v>       0.00000000       0.00000000     737.81797950 </v>
  </varray>
  <energy>
   <i name="e_fr_energy">   -284.65641077 </i>
   <i name="e_wo_entrp">   -284.65684668 </i>
   <i name="e_0_energy">      0.00174364 </i>
  </energy>
  <time name="totalsc">  137.54  137.71</time>
 </calculation>
 <calculation>
  <scstep>
   <time name="dav">    8.97    8.97</time>
   <time name="total">    9.39    9.39</time>
   <energy>
    <i name="alphaZ">    246.72735952 </i>
    <i name="ewald">  -8882.45030606 </i>
    <i name="hartreedc">  -1358.98047125 </i>
    <i name="XCdc">    144.53905612 </i>
    <i name="pawpsdc">  39261.15614571 </i>
    <i name="pawaedc"> -38733.12141996 </i>
    <i name="eentropy">     -0.00177767 </i>
    <i name="bandstr">   -766.79112900 </i>
    <i name="atom">   9645.50393724 </i>
    <i name="e_fr_energy">   -443.41860535 </i>
    <i name="e_wo_entrp">   -443.41682768 </i>
    <i name="e_0_energy">   -443.41816093 </i>
   </energy>
  </scstep>
  <scstep>
   <time name="diag">    1.37    1.37</time>
   <time name="diis">    5.34    5.34</time>
   <time name="orth">    0.33    0.33</time>
   <time name="total">    7.46    7.47</time>
   <energy>
    <i name="e_fr_energy">   -323.26929643 </i>
    <i name="e_wo_entrp">   -323.26995876 </i>
    <i name="e_0_energy">   -323.26946201 </i>
   </energy>
  </scstep>
  <scstep>
   <time name="diag">    1.36    1.36</time>
   <time name="diis">    5.12    5.12</time>
   <time name="orth">    0.34    0.34</time>
   <time name="total">    7.24    7.25</time>
   <energy>
    <i name="e_fr_energy">   -292.01845917 </i>
    <i name="e_wo_entrp">   -292.03816592 </i>
    <i name="e_0_energy">   -292.02338586 </i>
   </energy>
  </scstep>
  <scstep>
   <time name="diag">    1.36    1.36</time>
   <time name="diis">    5.34    5.34</time>
   <time name="orth">    0.33    0.33</time>
   <time name="total">    7.46    7.46</time>
   <energy>
    <i name="e_fr_energy">   -288.87841498 </i>
    <i name="e_wo_entrp">   -288.89736663 </i>
    <i name="e_0_energy">   -288.88315289 </i>
   </energy>
  </scstep>
  <scstep>
   <time name="diag">    1.36    1.36</time>
   <time name="diis">    5.27    5.27</time>
   <time name="orth">    0.33    0.34</time>
   <time name="total">    7.39    7.39</time>
   <energy>
    <i name="e_fr_energy">   -288.17010033 </i>
    <i name="e_wo_entrp">   -288.18095765 </i>
    <i name="e_0_energy">   -288.17281466 </i>
   </energy>
  </scstep>
  <scstep>
   <time name="diag">    1.36    1.36</time>
   <time name="diis">    5.44    5.44</time>
   <time name="orth">    0.34    0.34</time>
   <time name="total">    7.57    7.58</time>
   <energy>
    <i name="e_fr_energy">   -288.12292133 </i>
    <i name="e_wo_entrp">   -288.13747886 </i>
    <i name="e_0_energy">   -288.12656071 </i>
   </energy>
  </scstep>
  <scstep>
   <time name="diag">    1.36    1.36</time>
   <time name="diis">    5.36    5.36</time>
   <time name="orth">    0.34    0.34</time>
   <time name="total">    7.49    7.50</time>
   <energy>
    <i name="e_fr_energy">   -288.10087177 </i>
    <i name="e_wo_entrp">   -288.11579483 </i>
    <i name="e_0_energy">   -288.10460253 </i>
   </energy>
  </scstep>
  <scstep>
   <time name="diag">    1.36    1.36</time>
   <time name="diis">    5.60    5.60</time>
   <time name="orth">    0.34    0.34</time>
   <time name="total">    7.73    7.73</time>
   <energy>
    <i name="e_fr_energy">   -288.09920040 </i>
    <i name="e_wo_entrp">   -288.11388145 </i>
    <i name="e_0_energy">   -288.10287067 </i>
   </energy>
  </scstep>
  <scstep>
   <time name="diag">    1.35    1.35</time>
   <time name="diis">    5.54    5.54</time>
   <time name="orth">    0.34    0.34</time>
   <time name="total">    7.66    7.66</time>
   <energy>
    <i name="e_fr_energy">   -288.09943441 </i>
    <i name="e_wo_entrp">   -288.11393565 </i>
    <i name="e_0_energy">   -288.10305972 </i>
   </energy>
  </scstep>
  <scstep>
   <time name="diag">    1.34    1.34</time>
   <time name="diis">    4.25    4.25</time>
   <time name="orth">    0.34    0.34</time>
   <time name="total">    6.35    6.36</time>
   <energy>
    <i name="e_fr_energy">   -288.09923067 </i>
    <i name="e_wo_entrp">   -288.11383142 </i>
    <i name="e_0_energy">   -288.10288086 </i>
   </energy>
  </scstep>
  <scstep>
   <time name="diag">    1.33    1.33</time>
   <time name="diis">    3.39    3.40</time>
   <time name="orth">    0.34    0.34</time>
   <time name="total">    5.11    5.11</time>
   <energy>
    <i name="alphaZ">    246.72735952 </i>
    <i name="ewald">  -8882.45030606 </i>
    <i name="hartreedc">  -1908.17856977 </i>
    <i name="XCdc">    178.64383749 </i>
    <i name="pawpsdc">  19096.34064244 </i>
    <i name="pawaedc"> -18563.06357677 </i>
    <i name="eentropy">      0.01460857 </i>
    <i name="bandstr">   -101.63717157 </i>
    <i name="atom">   9645.50393724 </i>
    <i name="e_fr_energy">   -288.09923892 </i>
    <i name="e_wo_entrp">   -288.11384749 </i>
    <i name="e_0_energy">   -288.10289106 </i>
   </energy>
  </scstep>
  <structure>
   <crystal>
    <varray name="basis" >
     <v>       9.24645108       0.00000000       0.00000000 </v>
     <v>       0.00000000       9.24645108       0.00000000 </v>
     <v>       0.00000000       0.00000000       9.24645108 </v>
    </varray>
    <i name="volume">    790.54251006 </i>
    <varray name="rec_basis" >
     <v>       0.10814960      -0.00000000      -0.00000000 </v>
     <v>      -0.00000000       0.10814960      -0.00000000 </v>
     <v>      -0.00000000      -0.00000000       0.10814960 </v>
    </varray>
   </crystal>
   <varray name="positions" >
    <v>       0.87500000       0.87500000       0.12500000 </v>
    <v>       0.37500000       0.12500000       0.37500000 </v>
    <v>       0.62500000       0.87500000       0.37500000 </v>
    <v>       0.12500000       0.12500000       0.12500000 </v>
    <v>       0.25000000       0.75000000       0.25000000 </v>
    <v>       0.00000000       0.00000000       0.50000000 </v>
    <v>       0.87500000       0.37500000       0.62500000 </v>
    <v>       0.37500000       0.62500000       0.87500000 </v>
    <v>       0.62500000       0.37500000       0.87500000 </v>
    <v>       0.12500000       0.62500000       0.62500000 </v>
    <v>       0.25000000       0.25000000       0.75000000 </v>
    <v>       0.00000000       0.50000000      -0.00000000 </v>
    <v>       0.37500000       0.87500000       0.62500000 </v>
    <v>       0.87500000       0.12500000       0.87500000 </v>
    <v>       0.12500000       0.87500000       0.87500000 </v>
    <v>       0.62500000       0.12500000       0.62500000 </v>
    <v>       0.75000000       0.75000000       0.75000000 </v>
    <v>       0.50000000       0.00000000      -0.00000000 </v>
    <v>       0.37500000       0.37500000       0.12500000 </v>
    <v>       0.87500000       0.62500000       0.37500000 </v>
    <v>       0.12500000       0.37500000       0.37500000 </v>
    <v>       0.62500000       0.62500000       0.12500000 </v>
    <v>       0.75000000       0.25000000       0.25000000 </v>
    <v>       0.50000000       0.50000000       0.50000000 </v>
    <v>       0.38875017       0.38875017       0.38875017 </v>
    <v>       0.86124983       0.13875017       0.13875017 </v>
    <v>       0.63875017       0.13875017       0.36124983 </v>
    <v>       0.13875017       0.86124983       0.13875017 </v>
    <v>       0.11124983       0.11124983       0.38875017 </v>
    <v>       0.11124983       0.38875017       0.11124983 </v>
    <v>       0.36124983       0.86124983       0.36124983 </v>
    <v>       0.38875017       0.11124983       0.11124983 </v>
    <v>       0.38875017       0.88875017       0.88875017 </v>
    <v>       0.86124983       0.63875017       0.63875017 </v>
    <v>       0.63875017       0.63875017       0.86124983 </v>
    <v>       0.13875017       0.36124983       0.63875017 </v>
    <v>       0.11124983       0.61124983       0.88875017 </v>
    <v>       0.11124983       0.88875017       0.61124983 </v>
    <v>       0.36124983       0.36124983       0.86124983 </v>
    <v>       0.38875017       0.61124983       0.61124983 </v>
    <v>       0.88875017       0.38875017       0.88875017 </v>
    <v>       0.36124983       0.13875017       0.63875017 </v>
    <v>       0.13875017       0.13875017       0.86124983 </v>
    <v>       0.63875017       0.86124983       0.63875017 </v>
    <v>       0.61124983       0.11124983       0.88875017 </v>
    <v>       0.61124983       0.38875017       0.61124983 </v>
    <v>       0.86124983       0.86124983       0.86124983 </v>
    <v>       0.88875017       0.11124983       0.61124983 </v>
    <v>       0.88875017       0.88875017       0.38875017 </v>
    <v>       0.36124983       0.63875017       0.13875017 </v>
    <v>       0.13875017       0.63875017       0.36124983 </v>
    <v>       0.63875017       0.36124983       0.13875017 </v>
    <v>       0.61124983       0.61124983       0.38875017 </v>
    <v>       0.61124983       0.88875017       0.11124983 </v>
    <v>       0.86124983       0.36124983       0.36124983 </v>
    <v>       0.88875017       0.61124983       0.11124983 </v>
   </varray>
  </structure>
  <varray name="forces" >
   <v>       0.00000000       0.00000000      -0.00000000 </v>
   <v>       0.00000000       0.00000000      -0.00000000 </v>
   <v>       0.00000000       0.00000000      -0.00000000 </v>
   <v>       0.00000000       0.00000000      -0.00000000 </v>
   <v>       0.00000000       0.00000000      -0.00000000 </v>
   <v>       0.00000000       0.00000000      -0.00000000 </v>
   <v>       0.00000000       0.00000000      -0.00000000 </v>
   <v>       0.00000000       0.00000000      -0.00000000 </v>
   <v>       0.00000000       0.00000000      -0.00000000 </v>
   <v>       0.00000000       0.00000000      -0.00000000 </v>
   <v>       0.00000000       0.00000000      -0.00000000 </v>
   <v>       0.00000000       0.00000000      -0.00000000 </v>
   <v>       0.00000000       0.00000000      -0.00000000 </v>
   <v>       0.00000000       0.00000000      -0.00000000 </v>
   <v>       0.00000000       0.00000000      -0.00000000 </v>
   <v>       0.00000000       0.00000000      -0.00000000 </v>
   <v>       0.00000000       0.00000000      -0.00000000 </v>
   <v>       0.00000000       0.00000000      -0.00000000 </v>
   <v>       0.00000000       0.00000000      -0.00000000 </v>
   <v>       0.00000000       0.00000000      -0.00000000 </v>
   <v>       0.00000000       0.00000000      -0.00000000 </v>
   <v>       0.00000000       0.00000000      -0.00000000 </v>
   <v>       0.00000000       0.00000000      -0.00000000 </v>
   <v>       0.00000000       0.00000000      -0.00000000 </v>
   <v>      -2.73400327      -2.73400327      -2.73400327 </v>
   <v>       2.73400327      -2.73400327      -2.73400327 </v>
   <v>      -2.73400327      -2.73400327       2.73400327 </v>
   <v>      -2.73400327       2.73400327      -2.73400327 </v>
   <v>       2.73400327       2.73400327      -2.73400327 </v>
   <v>       2.73400327      -2.73400327       2.73400327 </v>
   <v>       2.73400327       2.73400327       2.73400327 </v>
   <v>      -2.73400327       2.73400327       2.73400327 </v>
   <v>      -2.73400327      -2.73400327      -2.73400327 </v>
   <v>       2.73400327      -2.73400327      -2.73400327 </v>
   <v>      -2.73400327      -2.73400327       2.73400327 </v>
   <v>      -2.73400327       2.73400327      -2.73400327 </v>
   <v>       2.73400327       2.73400327      -2.73400327 </v>
   <v>       2.73400327      -2.73400327       2.73400327 </v>
   <v>       2.73400327       2.73400327       2.73400327 </v>
   <v>      -2.73400327       2.73400327       2.73400327 </v>
   <v>      -2.73400327      -2.73400327      -2.73400327 </v>
   <v>       2.73400327      -2.73400327      -2.73400327 </v>
   <v>      -2.73400327      -2.73400327       2.73400327 </v>
   <v>      -2.73400327       2.73400327      -2.73400327 </v>
   <v>       2.73400327       2.73400327      -2.73400327 </v>
   <v>       2.73400327      -2.73400327       2.73400327 </v>
   <v>       2.73400327       2.73400327       2.73400327 </v>
   <v>      -2.73400327       2.73400327       2.73400327 </v>
   <v>      -2.73400327      -2.73400327      -2.73400327 </v>
   <v>       2.73400327      -2.73400327      -2.73400327 </v>
   <v>      -2.73400327      -2.73400327       2.73400327 </v>
   <v>      -2.73400327       2.73400327      -2.73400327 </v>
   <v>       2.73400327       2.73400327      -2.73400327 </v>
   <v>       2.73400327      -2.73400327       2.73400327 </v>
   <v>       2.73400327       2.73400327       2.73400327 </v>
   <v>      -2.73400327       2.73400327       2.73400327 </v>
  </varray>
  <varray name="stress" >
   <v>    -264.44516049      -0.00000000      -0.00000000 </v>
   <v>      -0.00000000    -264.44516049      -0.00000000 </v>
   <v>      -0.00000000      -0.00000000    -264.44516049 </v>
  </varray>
  <energy>
   <i name="e_fr_energy">   -288.09923892 </i>
   <i name="e_wo_entrp">   -288.10289106 </i>
   <i name="e_0_energy">      0.01460857 </i>
  </energy>
  <time name="totalsc">   91.17   91.21</time>
 </calculation>
 <calculation>
  <scstep>
   <time name="dav">    9.67    9.67</time>
   <time name="total">   10.09   10.09</time>
   <energy>
    <i name="alphaZ">    321.09130646 </i>
    <i name="ewald">  -9820.50505154 </i>
    <i name="hartreedc">  -2061.14552723 </i>
    <i name="XCdc">    237.93005989 </i>
    <i name="pawpsdc">  19098.24766931 </i>
    <i name="pawaedc"> -18564.97237910 </i>
    <i name="eentropy">      0.00564512 </i>
    <i name="bandstr">    786.54308454 </i>
    <i name="atom">   9645.50393724 </i>
    <i name="e_fr_energy">   -357.30125532 </i>
    <i name="e_wo_entrp">   -357.30690044 </i>
    <i name="e_0_energy">   -357.30266660 </i>
   </energy>
  </scstep>
  <scstep>
   <time name="diag">    1.36    1.36</time>
   <time name="diis">    5.57    5.57</time>
   <time name="orth">    0.34    0.34</time>
   <time name="total">    7.70    7.70</time>
   <energy>
    <i name="e_fr_energy">   -325.91034762 </i>
    <i name="e_wo_entrp">   -325.91771606 </i>
    <i name="e_0_energy">   -325.91218973 </i>
   </energy>
  </scstep>
  <scstep>
   <time name="diag">    1.36    1.36</time>
   <time name="diis">    5.59    5.59</time>
   <time name="orth">    0.34    0.34</time>
   <time name="total">    7.71    7.71</time>
   <energy>
    <i name="e_fr_energy">   -323.86798504 </i>
    <i name="e_wo_entrp">   -323.87124401 </i>
    <i name="e_0_energy">   -323.86879978 </i>
   </energy>
  </scstep>
  <scstep>
   <time name="diag">    1.35    1.35</time>
   <time name="diis">    5.60    5.60</time>
   <time name="orth">    0.34    0.34</time>
   <time name="total">    7.72    7.72</time>
   <energy>
    <i name="e_fr_energy">   -322.90771690 </i>
    <i name="e_wo_entrp">   -322.91517267 </i>
    <i name="e_0_energy">   -322.90958085 </i>
   </energy>
  </scstep>
  <scstep>
   <time name="diag">    1.35    1.35</time>
   <time name="diis">    5.71    5.71</time>
   <time name="orth">    0.34    0.34</time>
   <time name="total">    7.83    7.83</time>
   <energy>
    <i name="e_fr_energy">   -322.73457495 </i>
    <i name="e_wo_entrp">   -322.74225461 </i>
    <i name="e_0_energy">   -322.73649486 </i>
   </energy>
  </scstep>
  <scstep>
   <time name="diag">    1.35    1.35</time>
   <time name="diis">    5.78    5.78</time>
   <time name="orth">    0.34    0.34</time>
   <time name="total">    7.90    7.90</time>
   <energy>
    <i name="e_fr_energy">   -322.71658992 </i>
    <i name="e_wo_entrp">   -322.72436081 </i>
    <i name="e_0_energy">   -322.71853264 </i>
   </energy>
  </scstep>
  <scstep>
   <time name="diag">    1.35    1.35</time>
   <time name="diis">    5.63    5.63</time>
   <time name="orth">    0.34    0.34</time>
   <time name="total">    7.74    7.75</time>
   <energy>
    <i name="e_fr_energy">   -322.71405089 </i>
    <i name="e_wo_entrp">   -322.72173308 </i>
    <i name="e_0_energy">   -322.71597144 </i>
   </energy>
  </scstep>
  <scstep>
   <time name="diag">    1.35    1.35</time>
   <time name="diis">    5.76    5.76</time>
   <time name="orth">    0.33    0.33</time>
   <time name="total">    7.87    7.88</time>
   <energy>
    <i name="e_fr_energy">   -322.71364132 </i>
    <i name="e_wo_entrp">   -322.72128419 </i>
    <i name="e_0_energy">   -322.71555204 </i>
   </energy>
  </scstep>
  <scstep>
   <time name="diag">    1.34    1.34</time>
   <time name="diis">    4.49    4.49</time>
   <time name="orth">    0.34    0.34</time>
   <time name="total">    6.22    6.22</time>
   <energy>
    <i name="alphaZ">    321.09130646 </i>
    <i name="ewald">  -9820.50505154 </i>
    <i name="hartreedc">  -1715.31794994 </i>
    <i name="XCdc">    218.20592210 </i>
    <i name="pawpsdc">  23681.61694957 </i>
    <i name="pawaedc"> -23150.30851436 </i>
    <i name="eentropy">      0.00769872 </i>
    <i name="bandstr">    496.99214440 </i>
    <i name="atom">   9645.50393724 </i>
    <i name="e_fr_energy">   -322.71355734 </i>
    <i name="e_wo_entrp">   -322.72125606 </i>
    <i name="e_0_energy">   -322.71548202 </i>
   </energy>
  </scstep>
  <structure>
   <crystal>
    <varray name="basis" >
     <v>       8.46911436       0.00000000       0.00000000 </v>
     <v>       0.00000000       8.46911436       0.00000000 </v>
     <v>       0.00000000       0.00000000       8.46911436 </v>
    </varray>
    <i name="volume">    607.45483348 </i>
    <varray name="rec_basis" >
     <v>       0.11807610      -0.00000000      -0.00000000 </v>
     <v>      -0.00000000       0.11807610      -0.00000000 </v>
     <v>      -0.00000000      -0.00000000       0.11807610 </v>
    </varray>
   </crystal>
   <varray name="positions" >
    <v>       0.87500000       0.87500000       0.12500000 </v>
    <v>       0.37500000       0.12500000       0.37500000 </v>
    <v>       0.62500000       0.87500000       0.37500000 </v>
    <v>       0.12500000       0.12500000       0.12500000 </v>
    <v>       0.25000000       0.75000000       0.25000000 </v>
    <v>       0.00000000       0.00000000       0.50000000 </v>
    <v>       0.87500000       0.37500000       0.62500000 </v>
    <v>       0.37500000       0.62500000       0.87500000 </v>
    <v>       0.62500000       0.37500000       0.87500000 </v>
    <v>       0.12500000       0.62500000       0.62500000 </v>
    <v>       0.25000000       0.25000000       0.75000000 </v>
    <v>       0.00000000       0.50000000      -0.00000000 </v>
    <v>       0.37500000       0.87500000       0.62500000 </v>
    <v>       0.87500000       0.12500000       0.87500000 </v>
    <v>       0.12500000       0.87500000       0.87500000 </v>
    <v>       0.62500000       0.12500000       0.62500000 </v>
    <v>       0.75000000       0.75000000       0.75000000 </v>
    <v>       0.50000000       0.00000000      -0.00000000 </v>
    <v>       0.37500000       0.37500000       0.12500000 </v>
    <v>       0.87500000       0.62500000       0.37500000 </v>
    <v>       0.12500000       0.37500000       0.37500000 </v>
    <v>       0.62500000       0.62500000       0.12500000 </v>
    <v>       0.75000000       0.25000000       0.25000000 </v>
    <v>       0.50000000       0.50000000       0.50000000 </v>
    <v>       0.37924321       0.37924321       0.37924321 </v>
    <v>       0.87075679       0.12924321       0.12924321 </v>
    <v>       0.62924321       0.12924321       0.37075679 </v>
    <v>       0.12924321       0.87075679       0.12924321 </v>
    <v>       0.12075679       0.12075679       0.37924321 </v>
    <v>       0.12075679       0.37924321       0.12075679 </v>
    <v>       0.37075679       0.87075679       0.37075679 </v>
    <v>       0.37924321       0.12075679       0.12075679 </v>
    <v>       0.37924321       0.87924321       0.87924321 </v>
    <v>       0.87075679       0.62924321       0.62924321 </v>
    <v>       0.62924321       0.62924321       0.87075679 </v>
    <v>       0.12924321       0.37075679       0.62924321 </v>
    <v>       0.12075679       0.62075679       0.87924321 </v>
    <v>       0.12075679       0.87924321       0.62075679 </v>
    <v>       0.37075679       0.37075679       0.87075679 </v>
    <v>       0.37924321       0.62075679       0.62075679 </v>
    <v>       0.87924321       0.37924321       0.87924321 </v>
    <v>       0.37075679       0.12924321       0.62924321 </v>
    <v>       0.12924321       0.12924321       0.87075679 </v>
    <v>       0.62924321       0.87075679       0.62924321 </v>
    <v>       0.62075679       0.12075679       0.87924321 </v>
    <v>       0.62075679       0.37924321       0.62075679 </v>
    <v>       0.87075679       0.87075679       0.87075679 </v>
    <v>       0.87924321       0.12075679       0.62075679 </v>
    <v>       0.87924321       0.87924321       0.37924321 </v>
    <v>       0.37075679       0.62924321       0.12924321 </v>
    <v>       0.12924321       0.62924321       0.37075679 </v>
    <v>       0.62924321       0.37075679       0.12924321 </v>
    <v>       0.62075679       0.62075679       0.37924321 </v>
    <v>       0.62075679       0.87924321       0.12075679 </v>
    <v>       0.87075679       0.37075679       0.37075679 </v>
    <v>       0.87924321       0.62075679       0.12075679 </v>
   </varray>
  </structure>
  <varray name="forces" >
   <v>      -0.00000000       0.00000000       0.00000000 </v>
   <v>      -0.00000000       0.00000000       0.00000000 </v>
   <v>      -0.00000000       0.00000000       0.00000000 </v>
   <v>      -0.00000000       0.00000000      -0.00000000 </v>
   <v>      -0.00000000       0.00000000      -0.00000000 </v>
   <v>      -0.00000000       0.00000000       0.00000000 </v>
   <v>      -0.00000000       0.00000000       0.00000000 </v>
   <v>      -0.00000000       0.00000000      -0.00000000 </v>
   <v>      -0.00000000       0.00000000      -0.00000000 </v>
   <v>      -0.00000000       0.00000000      -0.00000000 </v>
   <v>      -0.00000000       0.00000000      -0.00000000 </v>
   <v>      -0.00000000       0.00000000       0.00000000 </v>
   <v>      -0.00000000       0.00000000       0.00000000 </v>
   <v>      -0.00000000       0.00000000       0.00000000 </v>
   <v>      -0.00000000       0.00000000       0.00000000 </v>
   <v>      -0.00000000       0.00000000      -0.00000000 </v>
   <v>      -0.00000000       0.00000000      -0.00000000 </v>
   <v>      -0.00000000       0.00000000      -0.00000000 </v>
   <v>      -0.00000000       0.00000000       0.00000000 </v>
   <v>      -0.00000000       0.00000000       0.00000000 </v>
   <v>      -0.00000000       0.00000000      -0.00000000 </v>
   <v>      -0.00000000       0.00000000      -0.00000000 </v>
   <v>      -0.00000000       0.00000000      -0.00000000 </v>
   <v>      -0.00000000       0.00000000       0.00000000 </v>
   <v>      -0.95309070      -0.95309070      -0.95309070 </v>
   <v>       0.95309070      -0.95309070      -0.95309070 </v>
   <v>      -0.95309070      -0.95309070       0.95309070 </v>
   <v>      -0.95309070       0.95309070      -0.95309070 </v>
   <v>       0.95309070       0.95309070      -0.95309070 </v>
   <v>       0.95309070      -0.95309070       0.95309070 </v>
   <v>       0.95309070       0.95309070       0.95309070 </v>
   <v>      -0.95309070       0.95309070       0.95309070 </v>
   <v>      -0.95309070      -0.95309070      -0.95309070 </v>
   <v>       0.95309070      -0.95309070      -0.95309070 </v>
   <v>      -0.95309070      -0.95309070       0.95309070 </v>
   <v>      -0.95309070       0.95309070      -0.95309070 </v>
   <v>       0.95309070       0.95309070      -0.95309070 </v>
   <v>       0.95309070      -0.95309070       0.95309070 </v>
   <v>       0.95309070       0.95309070       0.95309070 </v>
   <v>      -0.95309070       0.95309070       0.95309070 </v>
   <v>      -0.95309070      -0.95309070      -0.95309070 </v>
   <v>       0.95309070      -0.95309070      -0.95309070 </v>
   <v>      -0.95309070      -0.95309070       0.95309070 </v>
   <v>      -0.95309070       0.95309070      -0.95309070 </v>
   <v>       0.95309070       0.95309070      -0.95309070 </v>
   <v>       0.95309070      -0.95309070       0.95309070 </v>
   <v>       0.95309070       0.95309070       0.95309070 </v>
   <v>      -0.95309070       0.95309070       0.95309070 </v>
   <v>      -0.95309070      -0.95309070      -0.95309070 </v>
   <v>       0.95309070      -0.95309070      -0.95309070 </v>
   <v>      -0.95309070      -0.95309070       0.95309070 </v>
   <v>      -0.95309070       0.95309070      -0.95309070 </v>
   <v>       0.95309070       0.95309070      -0.95309070 </v>
   <v>       0.95309070      -0.95309070       0.95309070 </v>
   <v>       0.95309070       0.95309070       0.95309070 </v>
   <v>      -0.95309070       0.95309070       0.95309070 </v>
  </varray>
  <varray name="stress" >
   <v>      16.72593669       0.00000000       0.00000000 </v>
   <v>       0.00000000      16.72593669       0.00000000 </v>
   <v>       0.00000000       0.00000000      16.72593669 </v>
  </varray>
  <energy>
   <i name="e_fr_energy">   -322.71355734 </i>
   <i name="e_wo_entrp">   -322.71548202 </i>
   <i name="e_0_energy">      0.00769872 </i>
  </energy>
  <time name="totalsc">   82.58   82.62</time>
 </calculation>
 <calculation>
  <scstep>
   <time name="dav">   10.46   10.46</time>
   <time name="total">   10.88   10.88</time>
   <energy>
    <i name="alphaZ">    325.89610973 </i>
    <i name="ewald">  -9870.74597796 </i>
    <i name="hartreedc">  -1725.53541350 </i>
    <i name="XCdc">    221.76479777 </i>
    <i name="pawpsdc">  23679.15215862 </i>
    <i name="pawaedc"> -23147.84368929 </i>
    <i name="eentropy">      0.00865595 </i>
    <i name="bandstr">    548.74932502 </i>
    <i name="atom">   9645.50393724 </i>
    <i name="e_fr_energy">   -323.05009641 </i>
    <i name="e_wo_entrp">   -323.05875236 </i>
    <i name="e_0_energy">   -323.05226040 </i>
   </energy>
  </scstep>
  <scstep>
   <time name="diag">    1.35    1.35</time>
   <time name="diis">    5.61    5.61</time>
   <time name="orth">    0.34    0.34</time>
   <time name="total">    7.72    7.72</time>
   <energy>
    <i name="e_fr_energy">   -322.95410068 </i>
    <i name="e_wo_entrp">   -322.96246831 </i>
    <i name="e_0_energy">   -322.95619259 </i>
   </energy>
  </scstep>
  <scstep>
   <time name="diag">    1.35    1.35</time>
   <time name="diis">    5.65    5.65</time>
   <time name="orth">    0.34    0.34</time>
   <time name="total">    7.77    7.77</time>
   <energy>
    <i name="e_fr_energy">   -322.94396081 </i>
    <i name="e_wo_entrp">   -322.95181456 </i>
    <i name="e_0_energy">   -322.94592425 </i>
   </energy>
  </scstep>
  <scstep>
   <time name="diag">    1.35    1.35</time>
   <time name="diis">    5.79    5.79</time>
   <time name="orth">    0.34    0.36</time>
   <time name="total">    7.91    7.93</time>
   <energy>
    <i name="e_fr_energy">   -322.94168334 </i>
    <i name="e_wo_entrp">   -322.94962479 </i>
    <i name="e_0_energy">   -322.94366870 </i>
   </energy>
  </scstep>
  <scstep>
   <time name="diag">    1.35    1.35</time>
   <time name="diis">    5.60    5.60</time>
   <time name="orth">    0.34    0.34</time>
   <time name="total">    7.72    7.72</time>
   <energy>
    <i name="e_fr_energy">   -322.94111679 </i>
    <i name="e_wo_entrp">   -322.94909808 </i>
    <i name="e_0_energy">   -322.94311211 </i>
   </energy>
  </scstep>
  <scstep>
   <time name="diag">    1.34    1.34</time>
   <time name="diis">    4.26    4.26</time>
   <time name="orth">    0.34    0.34</time>
   <time name="total">    6.00    6.00</time>
   <energy>
    <i name="alphaZ">    325.89610973 </i>
    <i name="ewald">  -9870.74597796 </i>
    <i name="hartreedc">  -1707.38626778 </i>
    <i name="XCdc">    220.73115982 </i>
    <i name="pawpsdc">  24204.55571189 </i>
    <i name="pawaedc"> -23673.39367345 </i>
    <i name="eentropy">      0.00795524 </i>
    <i name="bandstr">    531.88990768 </i>
    <i name="atom">   9645.50393724 </i>
    <i name="e_fr_energy">   -322.94113758 </i>
    <i name="e_wo_entrp">   -322.94909282 </i>
    <i name="e_0_energy">   -322.94312639 </i>
   </energy>
  </scstep>
  <structure>
   <crystal>
    <varray name="basis" >
     <v>       8.42728706       0.00000000       0.00000000 </v>
     <v>       0.00000000       8.42728706       0.00000000 </v>
     <v>       0.00000000       0.00000000       8.42728706 </v>
    </varray>
    <i name="volume">    598.49890893 </i>
    <varray name="rec_basis" >
     <v>       0.11866215      -0.00000000      -0.00000000 </v>
     <v>      -0.00000000       0.11866215      -0.00000000 </v>
     <v>      -0.00000000      -0.00000000       0.11866215 </v>
    </varray>
   </crystal>
   <varray name="positions" >
    <v>       0.87500000       0.87500000       0.12500000 </v>
    <v>       0.37500000       0.12500000       0.37500000 </v>
    <v>       0.62500000       0.87500000       0.37500000 </v>
    <v>       0.12500000       0.12500000       0.12500000 </v>
    <v>       0.25000000       0.75000000       0.25000000 </v>
    <v>       0.00000000       0.00000000       0.50000000 </v>
    <v>       0.87500000       0.37500000       0.62500000 </v>
    <v>       0.37500000       0.62500000       0.87500000 </v>
    <v>       0.62500000       0.37500000       0.87500000 </v>
    <v>       0.12500000       0.62500000       0.62500000 </v>
    <v>       0.25000000       0.25000000       0.75000000 </v>
    <v>       0.00000000       0.50000000      -0.00000000 </v>
    <v>       0.37500000       0.87500000       0.62500000 </v>
    <v>       0.87500000       0.12500000       0.87500000 </v>
    <v>       0.12500000       0.87500000       0.87500000 </v>
    <v>       0.62500000       0.12500000       0.62500000 </v>
    <v>       0.75000000       0.75000000       0.75000000 </v>
    <v>       0.50000000       0.00000000      -0.00000000 </v>
    <v>       0.37500000       0.37500000       0.12500000 </v>
    <v>       0.87500000       0.62500000       0.37500000 </v>
    <v>       0.12500000       0.37500000       0.37500000 </v>
    <v>       0.62500000       0.62500000       0.12500000 </v>
    <v>       0.75000000       0.25000000       0.25000000 </v>
    <v>       0.50000000       0.50000000       0.50000000 </v>
    <v>       0.37868470       0.37868470       0.37868470 </v>
    <v>       0.87131530       0.12868470       0.12868470 </v>
    <v>       0.62868470       0.12868470       0.37131530 </v>
    <v>       0.12868470       0.87131530       0.12868470 </v>
    <v>       0.12131530       0.12131530       0.37868470 </v>
    <v>       0.12131530       0.37868470       0.12131530 </v>
    <v>       0.37131530       0.87131530       0.37131530 </v>
    <v>       0.37868470       0.12131530       0.12131530 </v>
    <v>       0.37868470       0.87868470       0.87868470 </v>
    <v>       0.87131530       0.62868470       0.62868470 </v>
    <v>       0.62868470       0.62868470       0.87131530 </v>
    <v>       0.12868470       0.37131530       0.62868470 </v>
    <v>       0.12131530       0.62131530       0.87868470 </v>
    <v>       0.12131530       0.87868470       0.62131530 </v>
    <v>       0.37131530       0.37131530       0.87131530 </v>
    <v>       0.37868470       0.62131530       0.62131530 </v>
    <v>       0.87868470       0.37868470       0.87868470 </v>
    <v>       0.37131530       0.12868470       0.62868470 </v>
    <v>       0.12868470       0.12868470       0.87131530 </v>
    <v>       0.62868470       0.87131530       0.62868470 </v>
    <v>       0.62131530       0.12131530       0.87868470 </v>
    <v>       0.62131530       0.37868470       0.62131530 </v>
    <v>       0.87131530       0.87131530       0.87131530 </v>
    <v>       0.87868470       0.12131530       0.62131530 </v>
    <v>       0.87868470       0.87868470       0.37868470 </v>
    <v>       0.37131530       0.62868470       0.12868470 </v>
    <v>       0.12868470       0.62868470       0.37131530 </v>
    <v>       0.62868470       0.37131530       0.12868470 </v>
    <v>       0.62131530       0.62131530       0.37868470 </v>
    <v>       0.62131530       0.87868470       0.12131530 </v>
    <v>       0.87131530       0.37131530       0.37131530 </v>
    <v>       0.87868470       0.62131530       0.12131530 </v>
   </varray>
  </structure>
  <varray name="forces" >
   <v>      -0.00000000       0.00000000      -0.00000000 </v>
   <v>      -0.00000000       0.00000000      -0.00000000 </v>
   <v>      -0.00000000       0.00000000      -0.00000000 </v>
   <v>      -0.00000000       0.00000000      -0.00000000 </v>
   <v>      -0.00000000       0.00000000      -0.00000000 </v>
   <v>      -0.00000000       0.00000000      -0.00000000 </v>
   <v>      -0.00000000       0.00000000      -0.00000000 </v>
   <v>      -0.00000000       0.00000000      -0.00000000 </v>
   <v>      -0.00000000       0.00000000      -0.00000000 </v>
   <v>      -0.00000000       0.00000000      -0.00000000 </v>
   <v>      -0.00000000       0.00000000      -0.00000000 </v>
   <v>      -0.00000000       0.00000000      -0.00000000 </v>
   <v>      -0.00000000       0.00000000      -0.00000000 </v>
   <v>      -0.00000000       0.00000000      -0.00000000 </v>
   <v>      -0.00000000       0.00000000      -0.00000000 </v>
   <v>      -0.00000000       0.00000000      -0.00000000 </v>
   <v>      -0.00000000       0.00000000      -0.00000000 </v>
   <v>      -0.00000000       0.00000000      -0.00000000 </v>
   <v>      -0.00000000       0.00000000      -0.00000000 </v>
   <v>      -0.00000000       0.00000000      -0.00000000 </v>
   <v>      -0.00000000       0.00000000      -0.00000000 </v>
   <v>      -0.00000000       0.00000000      -0.00000000 </v>
   <v>      -0.00000000       0.00000000      -0.00000000 </v>
   <v>      -0.00000000       0.00000000      -0.00000000 </v>
   <v>      -0.77429977      -0.77429977      -0.77429977 </v>
   <v>       0.77429977      -0.77429977      -0.77429977 </v>
   <v>      -0.77429977      -0.77429977       0.77429977 </v>
   <v>      -0.77429977       0.77429977      -0.77429977 </v>
   <v>       0.77429977       0.77429977      -0.77429977 </v>
   <v>       0.77429977      -0.77429977       0.77429977 </v>
   <v>       0.77429977       0.77429977       0.77429977 </v>
   <v>      -0.77429977       0.77429977       0.77429977 </v>
   <v>      -0.77429977      -0.77429977      -0.77429977 </v>
   <v>       0.77429977      -0.77429977      -0.77429977 </v>
   <v>      -0.77429977      -0.77429977       0.77429977 </v>
   <v>      -0.77429977       0.77429977      -0.77429977 </v>
   <v>       0.77429977       0.77429977      -0.77429977 </v>
   <v>       0.77429977      -0.77429977       0.77429977 </v>
   <v>       0.77429977       0.77429977       0.77429977 </v>
   <v>      -0.77429977       0.77429977       0.77429977 </v>
   <v>      -0.77429977      -0.77429977      -0.77429977 </v>
   <v>       0.77429977      -0.77429977      -0.77429977 </v>
   <v>      -0.77429977      -0.77429977       0.77429977 </v>
   <v>      -0.77429977       0.77429977      -0.77429977 </v>
   <v>       0.77429977       0.77429977      -0.77429977 </v>
   <v>       0.77429977      -0.77429977       0.77429977 </v>
   <v>       0.77429977       0.77429977       0.77429977 </v>
   <v>      -0.77429977       0.77429977       0.77429977 </v>
   <v>      -0.77429977      -0.77429977      -0.77429977 </v>
   <v>       0.77429977      -0.77429977      -0.77429977 </v>
   <v>      -0.77429977      -0.77429977       0.77429977 </v>
   <v>      -0.77429977       0.77429977      -0.77429977 </v>
   <v>       0.77429977       0.77429977      -0.77429977 </v>
   <v>       0.77429977      -0.77429977       0.77429977 </v>
   <v>       0.77429977       0.77429977       0.77429977 </v>
   <v>      -0.77429977       0.77429977       0.77429977 </v>
  </varray>
  <varray name="stress" >
   <v>      43.82799878       0.00000000       0.00000000 </v>
   <v>       0.00000000      43.82799878       0.00000000 </v>
   <v>       0.00000000       0.00000000      43.82799878 </v>
  </varray>
  <energy>
   <i name="e_fr_energy">   -322.94113758 </i>
   <i name="e_wo_entrp">   -322.94312639 </i>
   <i name="e_0_energy">      0.00795524 </i>
  </energy>
  <time name="totalsc">   59.87   59.92</time>
 </calculation>
 <calculation>
  <scstep>
   <time name="dav">   10.11   10.11</time>
   <time name="total">   10.54   10.54</time>
   <energy>
    <i name="alphaZ">    327.62673061 </i>
    <i name="ewald">  -9888.57654434 </i>
    <i name="hartreedc">  -1711.27071957 </i>
    <i name="XCdc">    222.01840450 </i>
    <i name="pawpsdc">  24191.47862507 </i>
    <i name="pawaedc"> -23660.32220922 </i>
    <i name="eentropy">      0.00845602 </i>
    <i name="bandstr">    550.55410151 </i>
    <i name="atom">   9645.50393724 </i>
    <i name="e_fr_energy">   -322.97921819 </i>
    <i name="e_wo_entrp">   -322.98767421 </i>
    <i name="e_0_energy">   -322.98133219 </i>
   </energy>
  </scstep>
  <scstep>
   <time name="diag">    1.34    1.34</time>
   <time name="diis">    5.60    5.60</time>
   <time name="orth">    0.34    0.34</time>
   <time name="total">    7.70    7.70</time>
   <energy>
    <i name="e_fr_energy">   -322.96686067 </i>
    <i name="e_wo_entrp">   -322.97519307 </i>
    <i name="e_0_energy">   -322.96894377 </i>
   </energy>
  </scstep>
  <scstep>
   <time name="diag">    1.34    1.34</time>
   <time name="diis">    5.61    5.61</time>
   <time name="orth">    0.33    0.33</time>
   <time name="total">    7.70    7.71</time>
   <energy>
    <i name="e_fr_energy">   -322.96554427 </i>
    <i name="e_wo_entrp">   -322.97368611 </i>
    <i name="e_0_energy">   -322.96757973 </i>
   </energy>
  </scstep>
  <scstep>
   <time name="diag">    1.33    1.33</time>
   <time name="diis">    4.04    4.04</time>
   <time name="orth">    0.34    0.34</time>
   <time name="total">    6.13    6.13</time>
   <energy>
    <i name="e_fr_energy">   -322.96525075 </i>
    <i name="e_wo_entrp">   -322.97342240 </i>
    <i name="e_0_energy">   -322.96729366 </i>
   </energy>
  </scstep>
  <scstep>
   <time name="diag">    1.33    1.33</time>
   <time name="diis">    3.51    3.51</time>
   <time name="orth">    0.34    0.34</time>
   <time name="total">    5.23    5.23</time>
   <energy>
    <i name="alphaZ">    327.62673061 </i>
    <i name="ewald">  -9888.57654434 </i>
    <i name="hartreedc">  -1704.95509545 </i>
    <i name="XCdc">    221.66011086 </i>
    <i name="pawpsdc">  24397.38950970 </i>
    <i name="pawaedc"> -23866.28111067 </i>
    <i name="eentropy">      0.00818584 </i>
    <i name="bandstr">    544.65909186 </i>
    <i name="atom">   9645.50393724 </i>
    <i name="e_fr_energy">   -322.96518435 </i>
    <i name="e_wo_entrp">   -322.97337018 </i>
    <i name="e_0_energy">   -322.96723081 </i>
   </energy>
  </scstep>
  <structure>
   <crystal>
    <varray name="basis" >
     <v>       8.41242239       0.00000000       0.00000000 </v>
     <v>       0.00000000       8.41242239       0.00000000 </v>
     <v>       0.00000000       0.00000000       8.41242239 </v>
    </varray>
    <i name="volume">    595.33746143 </i>
    <varray name="rec_basis" >
     <v>       0.11887182      -0.00000000      -0.00000000 </v>
     <v>      -0.00000000       0.11887182      -0.00000000 </v>
     <v>      -0.00000000      -0.00000000       0.11887182 </v>
    </varray>
   </crystal>
   <varray name="positions" >
    <v>       0.87500000       0.87500000       0.12500000 </v>
    <v>       0.37500000       0.12500000       0.37500000 </v>
    <v>       0.62500000       0.87500000       0.37500000 </v>
    <v>       0.12500000       0.12500000       0.12500000 </v>
    <v>       0.25000000       0.75000000       0.25000000 </v>
    <v>       0.00000000       0.00000000       0.50000000 </v>
    <v>       0.87500000       0.37500000       0.62500000 </v>
    <v>       0.37500000       0.62500000       0.87500000 </v>
    <v>       0.62500000       0.37500000       0.87500000 </v>
    <v>       0.12500000       0.62500000       0.62500000 </v>
    <v>       0.25000000       0.25000000       0.75000000 </v>
    <v>       0.00000000       0.50000000      -0.00000000 </v>
    <v>       0.37500000       0.87500000       0.62500000 </v>
    <v>       0.87500000       0.12500000       0.87500000 </v>
    <v>       0.12500000       0.87500000       0.87500000 </v>
    <v>       0.62500000       0.12500000       0.62500000 </v>
    <v>       0.75000000       0.75000000       0.75000000 </v>
    <v>       0.50000000       0.00000000      -0.00000000 </v>
    <v>       0.37500000       0.37500000       0.12500000 </v>
    <v>       0.87500000       0.62500000       0.37500000 </v>
[...]
       <r>   12.0307    0.0000 </r>
       <r>   12.0307    0.0000 </r>
       <r>   12.5903    0.0000 </r>
       <r>   12.5903    0.0000 </r>
       <r>   12.5903    0.0000 </r>
       <r>   12.5920    0.0000 </r>
       <r>   12.7035    0.0000 </r>
       <r>   12.7035    0.0000 </r>
       <r>   12.7036    0.0000 </r>
       <r>   12.7036    0.0000 </r>
       <r>   12.7038    0.0000 </r>
       <r>   12.7040    0.0000 </r>
       <r>   12.7044    0.0000 </r>
       <r>   12.7049    0.0000 </r>
      </set>
     </set>
    </set>
   </array>
  </eigenvalues>
  <separator name="orbital magnetization" >
   <v name="MAGDIPOLOUT">      0.00000000      0.00000000      0.00000000</v>
  </separator>
  <dos>
   <i name="efermi">     10.12416136 </i>
   <total>
    <array>
     <dimension dim="1">gridpoints</dimension>
     <dimension dim="2">spin</dimension>
     <field>energy</field>
     <field>total</field>
     <field>integrated</field>
     <set>
      <set comment="spin 1">
       <r>   -10.5348     0.0000     0.0000 </r>
       <r>   -10.4489     0.0000     0.0000 </r>
       <r>   -10.3631     0.0000     0.0000 </r>
       <r>   -10.2772     0.0000     0.0000 </r>
       <r>   -10.1914     0.0000     0.0000 </r>
       <r>   -10.1056     0.0000     0.0000 </r>
       <r>   -10.0197     0.0000     0.0000 </r>
       <r>    -9.9339     0.0000     0.0000 </r>
       <r>    -9.8480     0.0000     0.0000 </r>
       <r>    -9.7622     0.0000     0.0000 </r>
       <r>    -9.6763     0.0000     0.0000 </r>
       <r>    -9.5905     0.0018     0.0002 </r>
       <r>    -9.5047     0.0065     0.0007 </r>
       <r>    -9.4188    -0.0677    -0.0051 </r>
       <r>    -9.3330     0.5233     0.0398 </r>
       <r>    -9.2471     2.2202     0.2304 </r>
       <r>    -9.1613     4.0112     0.5747 </r>
       <r>    -9.0755     4.3124     0.9449 </r>
       <r>    -8.9896     6.3262     1.4880 </r>
       <r>    -8.9038     6.7146     2.0644 </r>
       <r>    -8.8179     7.4314     2.7023 </r>
       <r>    -8.7321    10.8991     3.6379 </r>
       <r>    -8.6462    10.5561     4.5440 </r>
       <r>    -8.5604    15.8415     5.9039 </r>
       <r>    -8.4746    13.7992     7.0885 </r>
       <r>    -8.3887    11.9072     8.1106 </r>
       <r>    -8.3029    26.3801    10.3751 </r>
       <r>    -8.2170    30.1250    12.9611 </r>
       <r>    -8.1312    20.7884    14.7456 </r>
       <r>    -8.0454    12.7866    15.8432 </r>
       <r>    -7.9595     0.7406    15.9068 </r>
       <r>    -7.8737     9.5399    16.7257 </r>
       <r>    -7.7878    35.9231    19.8094 </r>
       <r>    -7.7020    27.7916    22.1951 </r>
       <r>    -7.6161    18.1753    23.7553 </r>
       <r>    -7.5303     6.8250    24.3412 </r>
       <r>    -7.4445     4.9745    24.7682 </r>
       <r>    -7.3586    11.5694    25.7613 </r>
       <r>    -7.2728     8.2608    26.4704 </r>
       <r>    -7.1869     5.9435    26.9806 </r>
       <r>    -7.1011    13.3130    28.1234 </r>
       <r>    -7.0152     9.8974    28.9731 </r>
       <r>    -6.9294     6.4919    29.5303 </r>
       <r>    -6.8436    11.3395    30.5037 </r>
       <r>    -6.7577     5.7521    30.9975 </r>
       <r>    -6.6719     3.4558    31.2942 </r>
       <r>    -6.5860     4.0359    31.6406 </r>
       <r>    -6.5002    -3.1156    31.3732 </r>
       <r>    -6.4144    46.0683    35.3278 </r>
       <r>    -6.3285   126.9874    46.2286 </r>
       <r>    -6.2427    25.2006    48.3918 </r>
       <r>    -6.1568    -5.2091    47.9447 </r>
       <r>    -6.0710     0.5771    47.9942 </r>
       <r>    -5.9851     0.0666    47.9999 </r>
       <r>    -5.8993     0.0007    48.0000 </r>
       <r>    -5.8135     0.0000    48.0000 </r>
       <r>    -5.7276     0.0000    48.0000 </r>
       <r>    -5.6418     0.0000    48.0000 </r>
       <r>    -5.5559     0.0000    48.0000 </r>
       <r>    -5.4701     0.0000    48.0000 </r>
       <r>    -5.3843     0.0000    48.0000 </r>
       <r>    -5.2984     0.0000    48.0000 </r>
       <r>    -5.2126     0.0000    48.0000 </r>
       <r>    -5.1267     0.0000    48.0000 </r>
       <r>    -5.0409     0.0000    48.0000 </r>
       <r>    -4.9550     0.0000    48.0000 </r>
       <r>    -4.8692     0.0000    48.0000 </r>
       <r>    -4.7834     0.0000    48.0000 </r>
       <r>    -4.6975     0.0000    48.0000 </r>
       <r>    -4.6117     0.0000    48.0000 </r>
       <r>    -4.5258     0.0000    48.0000 </r>
       <r>    -4.4400     0.0000    48.0000 </r>
       <r>    -4.3542     0.0000    48.0000 </r>
       <r>    -4.2683     0.0000    48.0000 </r>
       <r>    -4.1825     0.0000    48.0000 </r>
       <r>    -4.0966     0.0000    48.0000 </r>
       <r>    -4.0108     0.0000    48.0000 </r>
       <r>    -3.9249     0.0000    48.0000 </r>
       <r>    -3.8391     0.0000    48.0000 </r>
       <r>    -3.7533     0.0000    48.0000 </r>
       <r>    -3.6674     0.0000    48.0000 </r>
       <r>    -3.5816     0.0000    48.0000 </r>
       <r>    -3.4957     0.0000    48.0000 </r>
       <r>    -3.4099     0.0000    48.0000 </r>
       <r>    -3.3241     0.0000    48.0000 </r>
       <r>    -3.2382     0.0000    48.0000 </r>
       <r>    -3.1524     0.0000    48.0000 </r>
       <r>    -3.0665     0.0000    48.0000 </r>
       <r>    -2.9807     0.0000    48.0000 </r>
       <r>    -2.8948     0.0000    48.0000 </r>
       <r>    -2.8090     0.0000    48.0000 </r>
       <r>    -2.7232     0.0000    48.0000 </r>
       <r>    -2.6373     0.0000    48.0000 </r>
       <r>    -2.5515     0.0000    48.0000 </r>
       <r>    -2.4656     0.0000    48.0000 </r>
       <r>    -2.3798     0.0000    48.0000 </r>
       <r>    -2.2940     0.0000    48.0000 </r>
       <r>    -2.2081     0.0000    48.0000 </r>
       <r>    -2.1223     0.0000    48.0000 </r>
       <r>    -2.0364     0.0000    48.0000 </r>
       <r>    -1.9506     0.0000    48.0000 </r>
       <r>    -1.8647     0.0000    48.0000 </r>
       <r>    -1.7789     0.0000    48.0000 </r>
       <r>    -1.6931     0.0000    48.0000 </r>
       <r>    -1.6072     0.0000    48.0000 </r>
       <r>    -1.5214     0.0000    48.0000 </r>
       <r>    -1.4355     0.0000    48.0000 </r>
       <r>    -1.3497     0.0000    48.0000 </r>
       <r>    -1.2639     0.0000    48.0000 </r>
       <r>    -1.1780     0.0004    48.0000 </r>
       <r>    -1.0922     0.0153    48.0013 </r>
       <r>    -1.0063     0.0378    48.0046 </r>
       <r>    -0.9205    -0.4579    47.9653 </r>
       <r>    -0.8346     4.0373    48.3118 </r>
       <r>    -0.7488    18.1836    49.8728 </r>
       <r>    -0.6630    27.3769    52.2228 </r>
       <r>    -0.5771    34.3179    55.1687 </r>
       <r>    -0.4913    37.4604    58.3844 </r>
       <r>    -0.4054    44.1079    62.1707 </r>
       <r>    -0.3196    31.6511    64.8877 </r>
       <r>    -0.2338    24.2333    66.9679 </r>
       <r>    -0.1479    25.3969    69.1480 </r>
       <r>    -0.0621    23.9405    71.2031 </r>
       <r>     0.0238    17.8260    72.7334 </r>
       <r>     0.1096    17.2418    74.2134 </r>
       <r>     0.1955    19.8506    75.9174 </r>
       <r>     0.2813    20.9485    77.7157 </r>
       <r>     0.3671    22.1058    79.6133 </r>
       <r>     0.4530    16.3937    81.0206 </r>
       <r>     0.5388    17.5421    82.5264 </r>
       <r>     0.6247     8.1196    83.2234 </r>
       <r>     0.7105     9.5572    84.0438 </r>
       <r>     0.7963    23.8279    86.0892 </r>
       <r>     0.8822    16.1513    87.4757 </r>
       <r>     0.9680    20.9131    89.2709 </r>
       <r>     1.0539    33.0059    92.1042 </r>
       <r>     1.1397    25.0282    94.2527 </r>
       <r>     1.2256    16.6628    95.6830 </r>
       <r>     1.3114    21.2242    97.5049 </r>
       <r>     1.3972    24.7344    99.6282 </r>
       <r>     1.4831    20.7647   101.4107 </r>
       <r>     1.5689     9.7605   102.2485 </r>
       <r>     1.6548    19.6909   103.9388 </r>
       <r>     1.7406    13.1326   105.0662 </r>
       <r>     1.8264     4.9648   105.4923 </r>
       <r>     1.9123     4.1787   105.8510 </r>
       <r>     1.9981    15.7992   107.2073 </r>
       <r>     2.0840    19.3817   108.8710 </r>
       <r>     2.1698    14.3455   110.1025 </r>
       <r>     2.2557    10.8148   111.0308 </r>
       <r>     2.3415     9.8207   111.8739 </r>
       <r>     2.4273    12.2997   112.9297 </r>
       <r>     2.5132    26.4552   115.2006 </r>
       <r>     2.5990    36.0069   118.2915 </r>
       <r>     2.6849    22.2206   120.1990 </r>
       <r>     2.7707    29.8019   122.7572 </r>
       <r>     2.8566    37.9063   126.0112 </r>
       <r>     2.9424    29.4858   128.5423 </r>
       <r>     3.0282    31.4615   131.2430 </r>
       <r>     3.1141    28.4230   133.6829 </r>
       <r>     3.1999    35.0513   136.6917 </r>
       <r>     3.2858    40.8753   140.2005 </r>
       <r>     3.3716    26.9071   142.5103 </r>
       <r>     3.4574    19.5759   144.1907 </r>
       <r>     3.5433    24.3308   146.2793 </r>
       <r>     3.6291    29.1904   148.7851 </r>
       <r>     3.7150    26.1623   151.0309 </r>
       <r>     3.8008    38.9559   154.3749 </r>
       <r>     3.8867    41.9223   157.9736 </r>
       <r>     3.9725    36.9435   161.1449 </r>
       <r>     4.0583    23.7801   163.1862 </r>
       <r>     4.1442    14.3562   164.4186 </r>
       <r>     4.2300    11.6865   165.4218 </r>
       <r>     4.3159    22.8299   167.3815 </r>
       <r>     4.4017    16.6634   168.8120 </r>
       <r>     4.4875     6.9208   169.4060 </r>
       <r>     4.5734    13.7189   170.5837 </r>
       <r>     4.6592    10.9061   171.5199 </r>
       <r>     4.7451    10.2689   172.4014 </r>
       <r>     4.8309    14.6296   173.6572 </r>
       <r>     4.9168     7.6775   174.3163 </r>
       <r>     5.0026    14.9226   175.5973 </r>
       <r>     5.0884    13.3879   176.7465 </r>
       <r>     5.1743     9.2253   177.5384 </r>
       <r>     5.2601     6.1684   178.0679 </r>
       <r>     5.3460    13.9104   179.2620 </r>
       <r>     5.4318    13.9605   180.4604 </r>
       <r>     5.5176    10.0480   181.3230 </r>
       <r>     5.6035    18.1386   182.8800 </r>
       <r>     5.6893    29.8225   185.4400 </r>
       <r>     5.7752    27.6365   187.8124 </r>
       <r>     5.8610    23.4402   189.8245 </r>
       <r>     5.9469    12.5364   190.9007 </r>
       <r>     6.0327     8.6446   191.6427 </r>
       <r>     6.1185     3.5207   191.9450 </r>
       <r>     6.2044     0.8107   192.0146 </r>
       <r>     6.2902     0.1707   192.0292 </r>
       <r>     6.3761     0.3815   192.0620 </r>
       <r>     6.4619     0.8335   192.1335 </r>
       <r>     6.5477     0.8942   192.2103 </r>
       <r>     6.6336     0.5947   192.2613 </r>
       <r>     6.7194     2.0275   192.4354 </r>
       <r>     6.8053     2.0829   192.6142 </r>
       <r>     6.8911     3.0901   192.8794 </r>
       <r>     6.9770     4.7786   193.2896 </r>
       <r>     7.0628     5.6994   193.7789 </r>
       <r>     7.1486     4.8923   194.1988 </r>
       <r>     7.2345     4.3095   194.5688 </r>
       <r>     7.3203    12.4850   195.6405 </r>
       <r>     7.4062     8.4898   196.3693 </r>
       <r>     7.4920     8.3674   197.0875 </r>
       <r>     7.5778     9.1661   197.8744 </r>
       <r>     7.6637    10.3651   198.7641 </r>
       <r>     7.7495    10.3598   199.6534 </r>
       <r>     7.8354     6.9697   200.2517 </r>
       <r>     7.9212     5.9871   200.7657 </r>
       <r>     8.0071    11.2188   201.7287 </r>
       <r>     8.0929    13.9399   202.9253 </r>
       <r>     8.1787    13.9795   204.1254 </r>
       <r>     8.2646    19.2286   205.7760 </r>
       <r>     8.3504    17.5556   207.2830 </r>
       <r>     8.4363    14.2195   208.5036 </r>
       <r>     8.5221    22.6490   210.4478 </r>
       <r>     8.6079    25.9809   212.6781 </r>
       <r>     8.6938    23.4470   214.6908 </r>
       <r>     8.7796    17.6365   216.2048 </r>
       <r>     8.8655    25.1518   218.3638 </r>
       <r>     8.9513    27.0373   220.6848 </r>
       <r>     9.0372    23.4075   222.6941 </r>
       <r>     9.1230    22.7672   224.6485 </r>
       <r>     9.2088    19.2703   226.3027 </r>
       <r>     9.2947    16.9757   227.7599 </r>
       <r>     9.3805    18.3874   229.3383 </r>
       <r>     9.4664    29.2744   231.8513 </r>
       <r>     9.5522    21.4027   233.6885 </r>
       <r>     9.6380    15.6703   235.0337 </r>
       <r>     9.7239    16.3482   236.4370 </r>
       <r>     9.8097    29.5582   238.9744 </r>
       <r>     9.8956    30.3827   241.5825 </r>
       <r>     9.9814    38.2786   244.8684 </r>
       <r>    10.0673    27.6085   247.2383 </r>
       <r>    10.1531    10.6911   248.1561 </r>
       <r>    10.2389     4.9116   248.5777 </r>
       <r>    10.3248     6.2731   249.1162 </r>
       <r>    10.4106     6.8964   249.7082 </r>
       <r>    10.4965     5.3703   250.1692 </r>
       <r>    10.5823    12.8934   251.2760 </r>
       <r>    10.6681    14.8841   252.5536 </r>
       <r>    10.7540    16.3000   253.9529 </r>
       <r>    10.8398    28.8326   256.4279 </r>
       <r>    10.9257    21.6915   258.2899 </r>
       <r>    11.0115    14.8508   259.5648 </r>
       <r>    11.0974    22.0349   261.4563 </r>
       <r>    11.1832    27.5409   263.8204 </r>
       <r>    11.2690    20.7851   265.6047 </r>
       <r>    11.3549    21.4833   267.4488 </r>
       <r>    11.4407    24.4369   269.5465 </r>
       <r>    11.5266    25.8073   271.7619 </r>
       <r>    11.6124    31.2874   274.4476 </r>
       <r>    11.6982    25.1100   276.6031 </r>
       <r>    11.7841    39.0318   279.9537 </r>
       <r>    11.8699    27.6850   282.3302 </r>
       <r>    11.9558    30.7788   284.9723 </r>
       <r>    12.0416    22.1614   286.8747 </r>
       <r>    12.1275    16.2129   288.2664 </r>
       <r>    12.2133    33.3177   291.1265 </r>
       <r>    12.2991    35.1456   294.1434 </r>
       <r>    12.3850    22.3750   296.0641 </r>
       <r>    12.4708    14.9718   297.3494 </r>
       <r>    12.5567    14.1430   298.5634 </r>
       <r>    12.6425    26.2944   300.8206 </r>
       <r>    12.7284    21.7163   302.6847 </r>
       <r>    12.8142    17.3054   304.1703 </r>
       <r>    12.9000    16.4453   305.5819 </r>
       <r>    12.9859    12.3475   306.6419 </r>
       <r>    13.0717    14.1535   307.8568 </r>
       <r>    13.1576    18.6256   309.4557 </r>
       <r>    13.2434    10.9135   310.3925 </r>
       <r>    13.3292     6.0476   310.9117 </r>
       <r>    13.4151     3.3132   311.1961 </r>
       <r>    13.5009     3.0761   311.4601 </r>
       <r>    13.5868     2.3735   311.6639 </r>
       <r>    13.6726     2.2831   311.8599 </r>
       <r>    13.7585     0.1235   311.8705 </r>
       <r>    13.8443     0.7480   311.9347 </r>
       <r>    13.9301     0.6016   311.9863 </r>
       <r>    14.0160    -0.0076   311.9857 </r>
       <r>    14.1018     0.1623   311.9996 </r>
       <r>    14.1877     0.0078   312.0003 </r>
       <r>    14.2735    -0.0038   311.9999 </r>
       <r>    14.3593     0.0007   312.0000 </r>
       <r>    14.4452     0.0000   312.0000 </r>
       <r>    14.5310     0.0000   312.0000 </r>
       <r>    14.6169     0.0000   312.0000 </r>
       <r>    14.7027     0.0000   312.0000 </r>
       <r>    14.7886     0.0000   312.0000 </r>
       <r>    14.8744     0.0000   312.0000 </r>
       <r>    14.9602     0.0000   312.0000 </r>
       <r>    15.0461     0.0000   312.0000 </r>
       <r>    15.1319     0.0000   312.0000 </r>
       <r>    15.2178     0.0000   312.0000 </r>
      </set>
     </set>
    </array>
   </total>
  </dos>
 </calculation>
 <structure name="finalpos" >
  <crystal>
   <varray name="basis" >
    <v>       8.49485180       0.00000000       0.00000000 </v>
    <v>       0.00000000       8.49485180       0.00000000 </v>
    <v>       0.00000000       0.00000000       8.49485180 </v>
   </varray>
   <i name="volume">    613.00980388 </i>
   <varray name="rec_basis" >
    <v>       0.11771836      -0.00000000      -0.00000000 </v>
    <v>      -0.00000000       0.11771836      -0.00000000 </v>
    <v>      -0.00000000      -0.00000000       0.11771836 </v>
   </varray>
  </crystal>
  <varray name="positions" >
   <v>       0.87500000       0.87500000       0.12500000 </v>
   <v>       0.37500000       0.12500000       0.37500000 </v>
   <v>       0.62500000       0.87500000       0.37500000 </v>
   <v>       0.12500000       0.12500000       0.12500000 </v>
   <v>       0.25000000       0.75000000       0.25000000 </v>
   <v>       0.00000000       0.00000000       0.50000000 </v>
   <v>       0.87500000       0.37500000       0.62500000 </v>
   <v>       0.37500000       0.62500000       0.87500000 </v>
   <v>       0.62500000       0.37500000       0.87500000 </v>
   <v>       0.12500000       0.62500000       0.62500000 </v>
   <v>       0.25000000       0.25000000       0.75000000 </v>
   <v>       0.00000000       0.50000000      -0.00000000 </v>
   <v>       0.37500000       0.87500000       0.62500000 </v>
   <v>       0.87500000       0.12500000       0.87500000 </v>
   <v>       0.12500000       0.87500000       0.87500000 </v>
   <v>       0.62500000       0.12500000       0.62500000 </v>
   <v>       0.75000000       0.75000000       0.75000000 </v>
   <v>       0.50000000       0.00000000      -0.00000000 </v>
   <v>       0.37500000       0.37500000       0.12500000 </v>
   <v>       0.87500000       0.62500000       0.37500000 </v>
   <v>       0.12500000       0.37500000       0.37500000 </v>
   <v>       0.62500000       0.62500000       0.12500000 </v>
   <v>       0.75000000       0.25000000       0.25000000 </v>
   <v>       0.50000000       0.50000000       0.50000000 </v>
   <v>       0.37630293       0.37630293       0.37630293 </v>
   <v>       0.87369707       0.12630293       0.12630293 </v>
   <v>       0.62630293       0.12630293       0.37369707 </v>
   <v>       0.12630293       0.87369707       0.12630293 </v>
   <v>       0.12369707       0.12369707       0.37630293 </v>
   <v>       0.12369707       0.37630293       0.12369707 </v>
   <v>       0.37369707       0.87369707       0.37369707 </v>
   <v>       0.37630293       0.12369707       0.12369707 </v>
   <v>       0.37630293       0.87630293       0.87630293 </v>
   <v>       0.87369707       0.62630293       0.62630293 </v>
   <v>       0.62630293       0.62630293       0.87369707 </v>
   <v>       0.12630293       0.37369707       0.62630293 </v>
   <v>       0.12369707       0.62369707       0.87630293 </v>
   <v>       0.12369707       0.87630293       0.62369707 </v>
   <v>       0.37369707       0.37369707       0.87369707 </v>
   <v>       0.37630293       0.62369707       0.62369707 </v>
   <v>       0.87630293       0.37630293       0.87630293 </v>
   <v>       0.37369707       0.12630293       0.62630293 </v>
   <v>       0.12630293       0.12630293       0.87369707 </v>
   <v>       0.62630293       0.87369707       0.62630293 </v>
   <v>       0.62369707       0.12369707       0.87630293 </v>
   <v>       0.62369707       0.37630293       0.62369707 </v>
   <v>       0.87369707       0.87369707       0.87369707 </v>
   <v>       0.87630293       0.12369707       0.62369707 </v>
   <v>       0.87630293       0.87630293       0.37630293 </v>
   <v>       0.37369707       0.62630293       0.12630293 </v>
   <v>       0.12630293       0.62630293       0.37369707 </v>
   <v>       0.62630293       0.37369707       0.12630293 </v>
   <v>       0.62369707       0.62369707       0.37630293 </v>
   <v>       0.62369707       0.87630293       0.12369707 </v>
   <v>       0.87369707       0.37369707       0.37369707 </v>
   <v>       0.87630293       0.62369707       0.12369707 </v>
  </varray>
 </structure>
</modeling>
