unknown system                          
           1
     7.787436    0.000000    0.000000
     0.000000    7.787436    0.000000
     0.000000    0.000000    7.787436
   Si   N 
  24  32
Direct configuration=     1
   0.87500000  0.87500000  0.12500000
   0.37500000  0.12500000  0.37500000
   0.62500000  0.87500000  0.37500000
   0.12500000  0.12500000  0.12500000
   0.25000000  0.75000000  0.25000000
   0.00000000  0.00000000  0.50000000
   0.87500000  0.37500000  0.62500000
   0.37500000  0.62500000  0.87500000
   0.62500000  0.37500000  0.87500000
   0.12500000  0.62500000  0.62500000
   0.25000000  0.25000000  0.75000000
   0.00000000  0.50000000  0.00000000
   0.37500000  0.87500000  0.62500000
   0.87500000  0.12500000  0.87500000
   0.12500000  0.87500000  0.87500000
   0.62500000  0.12500000  0.62500000
   0.75000000  0.75000000  0.75000000
   0.50000000  0.00000000  0.00000000
   0.37500000  0.37500000  0.12500000
   0.87500000  0.62500000  0.37500000
   0.12500000  0.37500000  0.37500000
   0.62500000  0.62500000  0.12500000
   0.75000000  0.25000000  0.25000000
   0.50000000  0.50000000  0.50000000
   0.36756300  0.36756300  0.36756300
   0.88243700  0.11756300  0.11756300
   0.61756300  0.11756300  0.38243700
   0.11756300  0.88243700  0.11756300
   0.13243700  0.13243700  0.36756300
   0.13243700  0.36756300  0.13243700
   0.38243700  0.88243700  0.38243700
   0.36756300  0.13243700  0.13243700
   0.36756300  0.86756300  0.86756300
   0.88243700  0.61756300  0.61756300
   0.61756300  0.61756300  0.88243700
   0.11756300  0.38243700  0.61756300
   0.13243700  0.63243700  0.86756300
   0.13243700  0.86756300  0.63243700
   0.38243700  0.38243700  0.88243700
   0.36756300  0.63243700  0.63243700
   0.86756300  0.36756300  0.86756300
   0.38243700  0.11756300  0.61756300
   0.11756300  0.11756300  0.88243700
   0.61756300  0.88243700  0.61756300
   0.63243700  0.13243700  0.86756300
   0.63243700  0.36756300  0.63243700
   0.88243700  0.88243700  0.88243700
   0.86756300  0.13243700  0.63243700
   0.86756300  0.86756300  0.36756300
   0.38243700  0.61756300  0.11756300
   0.11756300  0.61756300  0.38243700
   0.61756300  0.38243700  0.11756300
   0.63243700  0.63243700  0.36756300
   0.63243700  0.86756300  0.13243700
   0.88243700  0.38243700  0.38243700
   0.86756300  0.63243700  0.13243700
unknown system                          
           1
     9.246451    0.000000    0.000000
     0.000000    9.246451    0.000000
     0.000000    0.000000    9.246451
   Si   N 
  24  32
Direct configuration=     2
   0.87500000  0.87500000  0.12500000
   0.37500000  0.12500000  0.37500000
   0.62500000  0.87500000  0.37500000
   0.12500000  0.12500000  0.12500000
   0.25000000  0.75000000  0.25000000
   0.00000000  0.00000000  0.50000000
   0.87500000  0.37500000  0.62500000
   0.37500000  0.62500000  0.87500000
   0.62500000  0.37500000  0.87500000
   0.12500000  0.62500000  0.62500000
   0.25000000  0.25000000  0.75000000
   0.00000000  0.50000000 -0.00000000
   0.37500000  0.87500000  0.62500000
   0.87500000  0.12500000  0.87500000
   0.12500000  0.87500000  0.87500000
   0.62500000  0.12500000  0.62500000
   0.75000000  0.75000000  0.75000000
   0.50000000  0.00000000 -0.00000000
   0.37500000  0.37500000  0.12500000
   0.87500000  0.62500000  0.37500000
   0.12500000  0.37500000  0.37500000
   0.62500000  0.62500000  0.12500000
   0.75000000  0.25000000  0.25000000
   0.50000000  0.50000000  0.50000000
   0.38875017  0.38875017  0.38875017
   0.86124983  0.13875017  0.13875017
   0.63875017  0.13875017  0.36124983
   0.13875017  0.86124983  0.13875017
   0.11124983  0.11124983  0.38875017
   0.11124983  0.38875017  0.11124983
   0.36124983  0.86124983  0.36124983
   0.38875017  0.11124983  0.11124983
   0.38875017  0.88875017  0.88875017
   0.86124983  0.63875017  0.63875017
   0.63875017  0.63875017  0.86124983
   0.13875017  0.36124983  0.63875017
   0.11124983  0.61124983  0.88875017
   0.11124983  0.88875017  0.61124983
   0.36124983  0.36124983  0.86124983
   0.38875017  0.61124983  0.61124983
   0.88875017  0.38875017  0.88875017
   0.36124983  0.13875017  0.63875017
   0.13875017  0.13875017  0.86124983
   0.63875017  0.86124983  0.63875017
   0.61124983  0.11124983  0.88875017
   0.61124983  0.38875017  0.61124983
   0.86124983  0.86124983  0.86124983
   0.88875017  0.11124983  0.61124983
   0.88875017  0.88875017  0.38875017
   0.36124983  0.63875017  0.13875017
   0.13875017  0.63875017  0.36124983
   0.63875017  0.36124983  0.13875017
   0.61124983  0.61124983  0.38875017
   0.61124983  0.88875017  0.11124983
   0.86124983  0.36124983  0.36124983
   0.88875017  0.61124983  0.11124983
unknown system                          
           1
     8.469114    0.000000    0.000000
     0.000000    8.469114    0.000000
     0.000000    0.000000    8.469114
   Si   N 
  24  32
Direct configuration=     3
   0.87500000  0.87500000  0.12500000
   0.37500000  0.12500000  0.37500000
   0.62500000  0.87500000  0.37500000
   0.12500000  0.12500000  0.12500000
   0.25000000  0.75000000  0.25000000
   0.00000000  0.00000000  0.50000000
   0.87500000  0.37500000  0.62500000
   0.37500000  0.62500000  0.87500000
   0.62500000  0.37500000  0.87500000
   0.12500000  0.62500000  0.62500000
   0.25000000  0.25000000  0.75000000
   0.00000000  0.50000000 -0.00000000
   0.37500000  0.87500000  0.62500000
   0.87500000  0.12500000  0.87500000
   0.12500000  0.87500000  0.87500000
   0.62500000  0.12500000  0.62500000
   0.75000000  0.75000000  0.75000000
   0.50000000  0.00000000 -0.00000000
   0.37500000  0.37500000  0.12500000
   0.87500000  0.62500000  0.37500000
   0.12500000  0.37500000  0.37500000
   0.62500000  0.62500000  0.12500000
   0.75000000  0.25000000  0.25000000
   0.50000000  0.50000000  0.50000000
   0.37924321  0.37924321  0.37924321
   0.87075679  0.12924321  0.12924321
   0.62924321  0.12924321  0.37075679
   0.12924321  0.87075679  0.12924321
   0.12075679  0.12075679  0.37924321
   0.12075679  0.37924321  0.12075679
   0.37075679  0.87075679  0.37075679
   0.37924321  0.12075679  0.12075679
   0.37924321  0.87924321  0.87924321
   0.87075679  0.62924321  0.62924321
   0.62924321  0.62924321  0.87075679
   0.12924321  0.37075679  0.62924321
   0.12075679  0.62075679  0.87924321
   0.12075679  0.87924321  0.62075679
   0.37075679  0.37075679  0.87075679
   0.37924321  0.62075679  0.62075679
   0.87924321  0.37924321  0.87924321
   0.37075679  0.12924321  0.62924321
   0.12924321  0.12924321  0.87075679
   0.62924321  0.87075679  0.62924321
   0.62075679  0.12075679  0.87924321
   0.62075679  0.37924321  0.62075679
   0.87075679  0.87075679  0.87075679
   0.87924321  0.12075679  0.62075679
   0.87924321  0.87924321  0.37924321
   0.37075679  0.62924321  0.12924321
   0.12924321  0.62924321  0.37075679
   0.62924321  0.37075679  0.12924321
   0.62075679  0.62075679  0.37924321
   0.62075679  0.87924321  0.12075679
   0.87075679  0.37075679  0.37075679
   0.87924321  0.62075679  0.12075679
unknown system                          
           1
     8.427287    0.000000    0.000000
     0.000000    8.427287    0.000000
     0.000000    0.000000    8.427287
   Si   N 
  24  32
Direct configuration=     4
   0.87500000  0.87500000  0.12500000
   0.37500000  0.12500000  0.37500000
   0.62500000  0.87500000  0.37500000
   0.12500000  0.12500000  0.12500000
   0.25000000  0.75000000  0.25000000
   0.00000000  0.00000000  0.50000000
   0.87500000  0.37500000  0.62500000
   0.37500000  0.62500000  0.87500000
   0.62500000  0.37500000  0.87500000
   0.12500000  0.62500000  0.62500000
   0.25000000  0.25000000  0.75000000
   0.00000000  0.50000000 -0.00000000
   0.37500000  0.87500000  0.62500000
   0.87500000  0.12500000  0.87500000
   0.12500000  0.87500000  0.87500000
   0.62500000  0.12500000  0.62500000
   0.75000000  0.75000000  0.75000000
   0.50000000  0.00000000 -0.00000000
   0.37500000  0.37500000  0.12500000
   0.87500000  0.62500000  0.37500000
   0.12500000  0.37500000  0.37500000
   0.62500000  0.62500000  0.12500000
   0.75000000  0.25000000  0.25000000
   0.50000000  0.50000000  0.50000000
   0.37868470  0.37868470  0.37868470
   0.87131530  0.12868470  0.12868470
   0.62868470  0.12868470  0.37131530
   0.12868470  0.87131530  0.12868470
   0.12131530  0.12131530  0.37868470
   0.12131530  0.37868470  0.12131530
   0.37131530  0.87131530  0.37131530
   0.37868470  0.12131530  0.12131530
   0.37868470  0.87868470  0.87868470
   0.87131530  0.62868470  0.62868470
   0.62868470  0.62868470  0.87131530
   0.12868470  0.37131530  0.62868470
   0.12131530  0.62131530  0.87868470
   0.12131530  0.87868470  0.62131530
   0.37131530  0.37131530  0.87131530
   0.37868470  0.62131530  0.62131530
   0.87868470  0.37868470  0.87868470
   0.37131530  0.12868470  0.62868470
   0.12868470  0.12868470  0.87131530
   0.62868470  0.87131530  0.62868470
   0.62131530  0.12131530  0.87868470
   0.62131530  0.37868470  0.62131530
   0.87131530  0.87131530  0.87131530
   0.87868470  0.12131530  0.62131530
   0.87868470  0.87868470  0.37868470
   0.37131530  0.62868470  0.12868470
   0.12868470  0.62868470  0.37131530
   0.62868470  0.37131530  0.12868470
   0.62131530  0.62131530  0.37868470
   0.62131530  0.87868470  0.12131530
   0.87131530  0.37131530  0.37131530
   0.87868470  0.62131530  0.12131530
unknown system                          
           1
     8.412422    0.000000    0.000000
     0.000000    8.412422    0.000000
     0.000000    0.000000    8.412422
   Si   N 
  24  32
Direct configuration=     5
   0.87500000  0.87500000  0.12500000
   0.37500000  0.12500000  0.37500000
   0.62500000  0.87500000  0.37500000
   0.12500000  0.12500000  0.12500000
   0.25000000  0.75000000  0.25000000
   0.00000000  0.00000000  0.50000000
   0.87500000  0.37500000  0.62500000
   0.37500000  0.62500000  0.87500000
   0.62500000  0.37500000  0.87500000
   0.12500000  0.62500000  0.62500000
   0.25000000  0.25000000  0.75000000
   0.00000000  0.50000000 -0.00000000
   0.37500000  0.87500000  0.62500000
   0.87500000  0.12500000  0.87500000
   0.12500000  0.87500000  0.87500000
   0.62500000  0.12500000  0.62500000
   0.75000000  0.75000000  0.75000000
   0.50000000  0.00000000 -0.00000000
   0.37500000  0.37500000  0.12500000
   0.87500000  0.62500000  0.37500000
   0.12500000  0.37500000  0.37500000
   0.62500000  0.62500000  0.12500000
   0.75000000  0.25000000  0.25000000
   0.50000000  0.50000000  0.50000000
   0.37848523  0.37848523  0.37848523
   0.87151477  0.12848523  0.12848523
   0.62848523  0.12848523  0.37151477
   0.12848523  0.87151477  0.12848523
   0.12151477  0.12151477  0.37848523
   0.12151477  0.37848523  0.12151477
   0.37151477  0.87151477  0.37151477
   0.37848523  0.12151477  0.12151477
   0.37848523  0.87848523  0.87848523
   0.87151477  0.62848523  0.62848523
   0.62848523  0.62848523  0.87151477
   0.12848523  0.37151477  0.62848523
   0.12151477  0.62151477  0.87848523
   0.12151477  0.87848523  0.62151477
   0.37151477  0.37151477  0.87151477
   0.37848523  0.62151477  0.62151477
   0.87848523  0.37848523  0.87848523
   0.37151477  0.12848523  0.62848523
   0.12848523  0.12848523  0.87151477
   0.62848523  0.87151477  0.62848523
   0.62151477  0.12151477  0.87848523
   0.62151477  0.37848523  0.62151477
   0.87151477  0.87151477  0.87151477
   0.87848523  0.12151477  0.62151477
   0.87848523  0.87848523  0.37848523
   0.37151477  0.62848523  0.12848523
   0.12848523  0.62848523  0.37151477
   0.62848523  0.37151477  0.12848523
   0.62151477  0.62151477  0.37848523
   0.62151477  0.87848523  0.12151477
   0.87151477  0.37151477  0.37151477
   0.87848523  0.62151477  0.12151477
unknown system                          
           1
     8.566768    0.000000    0.000000
     0.000000    8.566768    0.000000
     0.000000    0.000000    8.566768
   Si   N 
  24  32
Direct configuration=     6
   0.87500000  0.87500000  0.12500000
   0.37500000  0.12500000  0.37500000
   0.62500000  0.87500000  0.37500000
   0.12500000  0.12500000  0.12500000
   0.25000000  0.75000000  0.25000000
   0.00000000  0.00000000  0.50000000
   0.87500000  0.37500000  0.62500000
   0.37500000  0.62500000  0.87500000
   0.62500000  0.37500000  0.87500000
   0.12500000  0.62500000  0.62500000
   0.25000000  0.25000000  0.75000000
   0.00000000  0.50000000 -0.00000000
   0.37500000  0.87500000  0.62500000
   0.87500000  0.12500000  0.87500000
   0.12500000  0.87500000  0.87500000
   0.62500000  0.12500000  0.62500000
   0.75000000  0.75000000  0.75000000
   0.50000000  0.00000000 -0.00000000
   0.37500000  0.37500000  0.12500000
   0.87500000  0.62500000  0.37500000
   0.12500000  0.37500000  0.37500000
   0.62500000  0.62500000  0.12500000
   0.75000000  0.25000000  0.25000000
   0.50000000  0.50000000  0.50000000
   0.37522286  0.37522286  0.37522286
   0.87477714  0.12522286  0.12522286
   0.62522286  0.12522286  0.37477714
   0.12522286  0.87477714  0.12522286
   0.12477714  0.12477714  0.37522286
   0.12477714  0.37522286  0.12477714
   0.37477714  0.87477714  0.37477714
   0.37522286  0.12477714  0.12477714
   0.37522286  0.87522286  0.87522286
   0.87477714  0.62522286  0.62522286
   0.62522286  0.62522286  0.87477714
   0.12522286  0.37477714  0.62522286
   0.12477714  0.62477714  0.87522286
   0.12477714  0.87522286  0.62477714
   0.37477714  0.37477714  0.87477714
   0.37522286  0.62477714  0.62477714
   0.87522286  0.37522286  0.87522286
   0.37477714  0.12522286  0.62522286
   0.12522286  0.12522286  0.87477714
   0.62522286  0.87477714  0.62522286
   0.62477714  0.12477714  0.87522286
   0.62477714  0.37522286  0.62477714
   0.87477714  0.87477714  0.87477714
   0.87522286  0.12477714  0.62477714
   0.87522286  0.87522286  0.37522286
   0.37477714  0.62522286  0.12522286
   0.12522286  0.62522286  0.37477714
   0.62522286  0.37477714  0.12522286
   0.62477714  0.62477714  0.37522286
   0.62477714  0.87522286  0.12477714
   0.87477714  0.37477714  0.37477714
   0.87522286  0.62477714  0.12477714
unknown system                          
           1
     8.506354    0.000000    0.000000
     0.000000    8.506354    0.000000
     0.000000    0.000000    8.506354
   Si   N 
  24  32
Direct configuration=     7
   0.87500000  0.87500000  0.12500000
   0.37500000  0.12500000  0.37500000
   0.62500000  0.87500000  0.37500000
   0.12500000  0.12500000  0.12500000
   0.25000000  0.75000000  0.25000000
   0.00000000  0.00000000  0.50000000
   0.87500000  0.37500000  0.62500000
   0.37500000  0.62500000  0.87500000
   0.62500000  0.37500000  0.87500000
   0.12500000  0.62500000  0.62500000
   0.25000000  0.25000000  0.75000000
   0.00000000  0.50000000 -0.00000000
   0.37500000  0.87500000  0.62500000
   0.87500000  0.12500000  0.87500000
   0.12500000  0.87500000  0.87500000
   0.62500000  0.12500000  0.62500000
   0.75000000  0.75000000  0.75000000
   0.50000000  0.00000000 -0.00000000
   0.37500000  0.37500000  0.12500000
   0.87500000  0.62500000  0.37500000
   0.12500000  0.37500000  0.37500000
   0.62500000  0.62500000  0.12500000
   0.75000000  0.25000000  0.25000000
   0.50000000  0.50000000  0.50000000
   0.37647681  0.37647681  0.37647681
   0.87352319  0.12647681  0.12647681
   0.62647681  0.12647681  0.37352319
   0.12647681  0.87352319  0.12647681
   0.12352319  0.12352319  0.37647681
   0.12352319  0.37647681  0.12352319
   0.37352319  0.87352319  0.37352319
   0.37647681  0.12352319  0.12352319
   0.37647681  0.87647681  0.87647681
   0.87352319  0.62647681  0.62647681
   0.62647681  0.62647681  0.87352319
   0.12647681  0.37352319  0.62647681
   0.12352319  0.62352319  0.87647681
   0.12352319  0.87647681  0.62352319
   0.37352319  0.37352319  0.87352319
   0.37647681  0.62352319  0.62352319
   0.87647681  0.37647681  0.87647681
   0.37352319  0.12647681  0.62647681
   0.12647681  0.12647681  0.87352319
   0.62647681  0.87352319  0.62647681
   0.62352319  0.12352319  0.87647681
   0.62352319  0.37647681  0.62352319
   0.87352319  0.87352319  0.87352319
   0.87647681  0.12352319  0.62352319
   0.87647681  0.87647681  0.37647681
   0.37352319  0.62647681  0.12647681
   0.12647681  0.62647681  0.37352319
   0.62647681  0.37352319  0.12647681
   0.62352319  0.62352319  0.37647681
   0.62352319  0.87647681  0.12352319
   0.87352319  0.37352319  0.37352319
   0.87647681  0.62352319  0.12352319
unknown system                          
           1
     8.488551    0.000000    0.000000
     0.000000    8.488551    0.000000
     0.000000    0.000000    8.488551
   Si   N 
  24  32
Direct configuration=     8
   0.87500000  0.87500000  0.12500000
   0.37500000  0.12500000  0.37500000
   0.62500000  0.87500000  0.37500000
   0.12500000  0.12500000  0.12500000
   0.25000000  0.75000000  0.25000000
   0.00000000  0.00000000  0.50000000
   0.87500000  0.37500000  0.62500000
   0.37500000  0.62500000  0.87500000
   0.62500000  0.37500000  0.87500000
   0.12500000  0.62500000  0.62500000
   0.25000000  0.25000000  0.75000000
   0.00000000  0.50000000 -0.00000000
   0.37500000  0.87500000  0.62500000
   0.87500000  0.12500000  0.87500000
   0.12500000  0.87500000  0.87500000
   0.62500000  0.12500000  0.62500000
   0.75000000  0.75000000  0.75000000
   0.50000000  0.00000000 -0.00000000
   0.37500000  0.37500000  0.12500000
   0.87500000  0.62500000  0.37500000
   0.12500000  0.37500000  0.37500000
   0.62500000  0.62500000  0.12500000
   0.75000000  0.25000000  0.25000000
   0.50000000  0.50000000  0.50000000
   0.37620737  0.37620737  0.37620737
   0.87379263  0.12620737  0.12620737
   0.62620737  0.12620737  0.37379263
   0.12620737  0.87379263  0.12620737
   0.12379263  0.12379263  0.37620737
   0.12379263  0.37620737  0.12379263
   0.37379263  0.87379263  0.37379263
   0.37620737  0.12379263  0.12379263
   0.37620737  0.87620737  0.87620737
   0.87379263  0.62620737  0.62620737
   0.62620737  0.62620737  0.87379263
   0.12620737  0.37379263  0.62620737
   0.12379263  0.62379263  0.87620737
   0.12379263  0.87620737  0.62379263
   0.37379263  0.37379263  0.87379263
   0.37620737  0.62379263  0.62379263
   0.87620737  0.37620737  0.87620737
   0.37379263  0.12620737  0.62620737
   0.12620737  0.12620737  0.87379263
   0.62620737  0.87379263  0.62620737
   0.62379263  0.12379263  0.87620737
   0.62379263  0.37620737  0.62379263
   0.87379263  0.87379263  0.87379263
   0.87620737  0.12379263  0.62379263
   0.87620737  0.87620737  0.37620737
   0.37379263  0.62620737  0.12620737
   0.12620737  0.62620737  0.37379263
   0.62620737  0.37379263  0.12620737
   0.62379263  0.62379263  0.37620737
   0.62379263  0.87620737  0.12379263
   0.87379263  0.37379263  0.37379263
   0.87620737  0.62379263  0.12379263
unknown system                          
           1
     8.494852    0.000000    0.000000
     0.000000    8.494852    0.000000
     0.000000    0.000000    8.494852
   Si   N 
  24  32
Direct configuration=     9
   0.87500000  0.87500000  0.12500000
   0.37500000  0.12500000  0.37500000
   0.62500000  0.87500000  0.37500000
   0.12500000  0.12500000  0.12500000
   0.25000000  0.75000000  0.25000000
   0.00000000  0.00000000  0.50000000
   0.87500000  0.37500000  0.62500000
   0.37500000  0.62500000  0.87500000
   0.62500000  0.37500000  0.87500000
   0.12500000  0.62500000  0.62500000
   0.25000000  0.25000000  0.75000000
   0.00000000  0.50000000 -0.00000000
   0.37500000  0.87500000  0.62500000
   0.87500000  0.12500000  0.87500000
   0.12500000  0.87500000  0.87500000
   0.62500000  0.12500000  0.62500000
   0.75000000  0.75000000  0.75000000
   0.50000000  0.00000000 -0.00000000
   0.37500000  0.37500000  0.12500000
   0.87500000  0.62500000  0.37500000
   0.12500000  0.37500000  0.37500000
   0.62500000  0.62500000  0.12500000
   0.75000000  0.25000000  0.25000000
   0.50000000  0.50000000  0.50000000
   0.37630293  0.37630293  0.37630293
   0.87369707  0.12630293  0.12630293
   0.62630293  0.12630293  0.37369707
   0.12630293  0.87369707  0.12630293
   0.12369707  0.12369707  0.37630293
   0.12369707  0.37630293  0.12369707
   0.37369707  0.87369707  0.37369707
   0.37630293  0.12369707  0.12369707
   0.37630293  0.87630293  0.87630293
   0.87369707  0.62630293  0.62630293
   0.62630293  0.62630293  0.87369707
   0.12630293  0.37369707  0.62630293
   0.12369707  0.62369707  0.87630293
   0.12369707  0.87630293  0.62369707
   0.37369707  0.37369707  0.87369707
   0.37630293  0.62369707  0.62369707
   0.87630293  0.37630293  0.87630293
   0.37369707  0.12630293  0.62630293
   0.12630293  0.12630293  0.87369707
   0.62630293  0.87369707  0.62630293
   0.62369707  0.12369707  0.87630293
   0.62369707  0.37630293  0.62369707
   0.87369707  0.87369707  0.87369707
   0.87630293  0.12369707  0.62369707
   0.87630293  0.87630293  0.37630293
   0.37369707  0.62630293  0.12630293
   0.12630293  0.62630293  0.37369707
   0.62630293  0.37369707  0.12630293
   0.62369707  0.62369707  0.37630293
   0.62369707  0.87630293  0.12369707
   0.87369707  0.37369707  0.37369707
   0.87630293  0.62369707  0.12369707
