  28  28   0   0
  0.1059420E+02  0.8115882E-09  0.8115882E-09  0.5200251E-09  0.5000000E-15
  1.000000000000000E-004
  CAR 
 unknown system                          
     16.55096435    -11.54603164  301      9.51692358      1.00000000
    -11.546  0.0000E+00  0.0000E+00
    -11.452  0.0000E+00  0.0000E+00
    -11.359  0.0000E+00  0.0000E+00
    -11.265  0.0000E+00  0.0000E+00
    -11.171  0.0000E+00  0.0000E+00
    -11.078  0.1819E-29  0.1704E-30
    -10.984  0.1984E-23  0.1858E-24
    -10.890  0.3580E-18  0.3352E-19
    -10.797  0.1065E-13  0.9973E-15
    -10.703  0.5173E-10  0.4845E-11
    -10.609  0.4047E-07  0.3795E-08
    -10.516  0.4695E-05  0.4435E-06
    -10.422  0.4389E-04  0.4555E-05
    -10.328 -0.3384E-03 -0.2714E-04
    -10.235  0.2998E-02  0.2536E-03
    -10.141  0.1487E-01  0.1646E-02
    -10.048  0.2496E-01  0.3983E-02
     -9.954  0.3637E-01  0.7389E-02
     -9.860  0.2703E-01  0.9921E-02
     -9.767  0.4381E-01  0.1402E-01
     -9.673  0.4066E-01  0.1783E-01
     -9.579  0.5629E-01  0.2310E-01
     -9.486  0.7543E-01  0.3017E-01
     -9.392  0.8722E-01  0.3834E-01
     -9.298  0.6301E-01  0.4424E-01
     -9.205  0.4259E-01  0.4823E-01
     -9.111  0.6581E-01  0.5439E-01
     -9.017  0.1291E-01  0.5560E-01
     -8.924  0.5918E-02  0.5615E-01
     -8.830  0.5374E-01  0.6119E-01
     -8.736  0.3910E-01  0.6485E-01
     -8.643  0.2616E-01  0.6730E-01
     -8.549  0.5588E-01  0.7253E-01
     -8.455  0.5379E-01  0.7757E-01
     -8.362  0.6691E-02  0.7820E-01
     -8.268  0.8141E-01  0.8582E-01
     -8.174  0.1270E+00  0.9772E-01
     -8.081  0.5634E-01  0.1030E+00
     -7.987  0.4492E-01  0.1072E+00
     -7.893  0.4186E-01  0.1111E+00
     -7.800  0.2932E-01  0.1139E+00
     -7.706  0.6169E-01  0.1196E+00
     -7.612  0.9608E-01  0.1286E+00
     -7.519  0.1301E+00  0.1408E+00
     -7.425  0.1099E+00  0.1511E+00
     -7.331  0.1362E+00  0.1639E+00
     -7.238  0.1053E+00  0.1737E+00
     -7.144  0.1046E+00  0.1835E+00
     -7.051  0.6199E-01  0.1893E+00
     -6.957  0.6288E-01  0.1952E+00
     -6.863  0.7724E-01  0.2025E+00
     -6.770  0.2076E+00  0.2219E+00
     -6.676  0.1783E+00  0.2386E+00
     -6.582  0.1747E-01  0.2402E+00
     -6.489 -0.3129E-02  0.2399E+00
     -6.395  0.5235E-03  0.2400E+00
     -6.301  0.2750E-04  0.2400E+00
     -6.208  0.1459E-06  0.2400E+00
     -6.114  0.1150E-09  0.2400E+00
     -6.020  0.1455E-13  0.2400E+00
     -5.927  0.1463E-18  0.2400E+00
     -5.833  0.0000E+00  0.2400E+00
     -5.739  0.0000E+00  0.2400E+00
     -5.646  0.0000E+00  0.2400E+00
     -5.552  0.0000E+00  0.2400E+00
     -5.458  0.0000E+00  0.2400E+00
     -5.365  0.0000E+00  0.2400E+00
     -5.271  0.0000E+00  0.2400E+00
     -5.177  0.0000E+00  0.2400E+00
     -5.084  0.0000E+00  0.2400E+00
     -4.990  0.0000E+00  0.2400E+00
     -4.896  0.0000E+00  0.2400E+00
     -4.803  0.0000E+00  0.2400E+00
     -4.709  0.0000E+00  0.2400E+00
     -4.615  0.0000E+00  0.2400E+00
     -4.522  0.0000E+00  0.2400E+00
     -4.428  0.0000E+00  0.2400E+00
     -4.334  0.0000E+00  0.2400E+00
     -4.241  0.0000E+00  0.2400E+00
     -4.147  0.0000E+00  0.2400E+00
     -4.053  0.0000E+00  0.2400E+00
     -3.960  0.2777E-33  0.2400E+00
     -3.866  0.8400E-27  0.2400E+00
     -3.773  0.4180E-21  0.2400E+00
     -3.679  0.3373E-16  0.2400E+00
     -3.585  0.4283E-12  0.2400E+00
     -3.492  0.8190E-09  0.2400E+00
     -3.398  0.2141E-06  0.2400E+00
     -3.304  0.5683E-05  0.2400E+00
     -3.211 -0.1137E-04  0.2400E+00
     -3.117  0.5598E-04  0.2400E+00
     -3.023  0.1992E-02  0.2402E+00
     -2.930  0.8610E-02  0.2410E+00
     -2.836  0.4980E-02  0.2415E+00
     -2.742  0.1370E-01  0.2427E+00
     -2.649  0.1420E-01  0.2441E+00
     -2.555  0.1145E-01  0.2451E+00
     -2.461  0.2265E-01  0.2473E+00
     -2.368  0.2253E-01  0.2494E+00
     -2.274  0.1932E-01  0.2512E+00
     -2.180  0.2920E-01  0.2539E+00
     -2.087  0.3015E-02  0.2542E+00
     -1.993  0.2029E-01  0.2561E+00
     -1.899  0.2450E-01  0.2584E+00
     -1.806  0.2801E-01  0.2610E+00
     -1.712  0.6190E-01  0.2668E+00
     -1.618  0.6435E-01  0.2729E+00
     -1.525  0.8265E-01  0.2806E+00
     -1.431  0.8492E-01  0.2885E+00
     -1.337  0.5450E-01  0.2936E+00
     -1.244  0.4957E-01  0.2983E+00
     -1.150  0.6570E-01  0.3044E+00
     -1.056  0.5083E-01  0.3092E+00
     -0.963  0.5260E-01  0.3141E+00
     -0.869  0.1019E+00  0.3237E+00
     -0.776  0.9172E-01  0.3323E+00
     -0.682  0.9402E-01  0.3411E+00
     -0.588  0.8881E-01  0.3494E+00
     -0.495  0.1041E+00  0.3591E+00
     -0.401  0.9106E-01  0.3677E+00
     -0.307  0.1029E+00  0.3773E+00
     -0.214  0.9305E-01  0.3860E+00
     -0.120  0.9665E-01  0.3951E+00
     -0.026  0.8133E-01  0.4027E+00
      0.067  0.4278E-01  0.4067E+00
      0.161  0.1585E-01  0.4082E+00
      0.255  0.2572E-01  0.4106E+00
      0.348  0.3390E-01  0.4138E+00
      0.442  0.3023E-01  0.4166E+00
      0.536  0.6669E-01  0.4228E+00
      0.629  0.1098E+00  0.4331E+00
      0.723  0.9312E-01  0.4418E+00
      0.817  0.1188E+00  0.4530E+00
      0.910  0.7105E-01  0.4596E+00
      1.004  0.4944E-01  0.4642E+00
      1.098  0.7331E-01  0.4711E+00
      1.191  0.8464E-01  0.4790E+00
      1.285  0.7649E-01  0.4862E+00
      1.379  0.6837E-01  0.4926E+00
      1.472  0.6105E-01  0.4983E+00
      1.566  0.7070E-01  0.5049E+00
      1.660  0.9422E-01  0.5138E+00
      1.753  0.1125E+00  0.5243E+00
      1.847  0.1156E+00  0.5351E+00
      1.941  0.9472E-01  0.5440E+00
      2.034  0.1552E+00  0.5585E+00
      2.128  0.1269E+00  0.5704E+00
      2.221  0.8786E-01  0.5787E+00
      2.315  0.5789E-01  0.5841E+00
      2.409  0.1169E+00  0.5950E+00
      2.502  0.9565E-01  0.6040E+00
      2.596  0.9898E-01  0.6133E+00
      2.690  0.8498E-01  0.6212E+00
      2.783  0.9966E-01  0.6305E+00
      2.877  0.1215E+00  0.6419E+00
      2.971  0.1204E+00  0.6532E+00
      3.064  0.8993E-01  0.6616E+00
      3.158  0.1041E+00  0.6714E+00
      3.252  0.1119E+00  0.6819E+00
      3.345  0.1095E+00  0.6921E+00
      3.439  0.1137E+00  0.7028E+00
      3.533  0.1121E+00  0.7133E+00
      3.626  0.1361E+00  0.7260E+00
      3.720  0.1440E+00  0.7395E+00
      3.814  0.9232E-01  0.7481E+00
      3.907  0.7813E-01  0.7555E+00
      4.001  0.9009E-01  0.7639E+00
      4.095  0.1001E+00  0.7733E+00
      4.188  0.1201E+00  0.7845E+00
      4.282  0.1059E+00  0.7944E+00
      4.376  0.1372E+00  0.8073E+00
      4.469  0.1554E+00  0.8218E+00
      4.563  0.1443E+00  0.8354E+00
      4.657  0.1073E+00  0.8454E+00
      4.750  0.1057E+00  0.8553E+00
      4.844  0.1099E+00  0.8656E+00
      4.938  0.8580E-01  0.8736E+00
      5.031  0.8570E-01  0.8817E+00
      5.125  0.1350E+00  0.8943E+00
      5.219  0.1526E+00  0.9086E+00
      5.312  0.1012E+00  0.9181E+00
      5.406  0.8984E-01  0.9265E+00
      5.499  0.1114E+00  0.9369E+00
      5.593  0.1157E+00  0.9478E+00
      5.687  0.1058E+00  0.9577E+00
      5.780  0.1298E+00  0.9698E+00
      5.874  0.1215E+00  0.9812E+00
      5.968  0.7726E-01  0.9884E+00
      6.061  0.9294E-01  0.9971E+00
      6.155  0.1470E+00  0.1011E+01
      6.249  0.1443E+00  0.1024E+01
      6.342  0.1305E+00  0.1037E+01
      6.436  0.8096E-01  0.1044E+01
      6.530  0.6748E-01  0.1051E+01
      6.623  0.7503E-01  0.1058E+01
      6.717  0.7373E-01  0.1064E+01
      6.811  0.5243E-01  0.1069E+01
      6.904  0.8996E-01  0.1078E+01
      6.998  0.9519E-01  0.1087E+01
      7.092  0.1411E+00  0.1100E+01
      7.185  0.1601E+00  0.1115E+01
      7.279  0.1114E+00  0.1125E+01
      7.373  0.4684E-01  0.1130E+01
      7.466  0.3028E-01  0.1133E+01
      7.560  0.3496E-01  0.1136E+01
      7.654  0.5395E-01  0.1141E+01
      7.747  0.6373E-01  0.1147E+01
      7.841  0.7437E-01  0.1154E+01
      7.935  0.8634E-01  0.1162E+01
      8.028  0.9629E-01  0.1171E+01
      8.122  0.8774E-01  0.1179E+01
      8.216  0.8400E-01  0.1187E+01
      8.309  0.4861E-01  0.1192E+01
      8.403  0.4565E-01  0.1196E+01
      8.496  0.4387E-01  0.1200E+01
      8.590  0.5628E-01  0.1205E+01
      8.684  0.6228E-01  0.1211E+01
      8.777  0.4761E-01  0.1216E+01
      8.871  0.2126E-01  0.1218E+01
      8.965  0.3289E-01  0.1221E+01
      9.058  0.1156E-01  0.1222E+01
      9.152  0.1227E-01  0.1223E+01
      9.246  0.2578E-01  0.1225E+01
      9.339  0.3097E-01  0.1228E+01
      9.433  0.4112E-01  0.1232E+01
      9.527  0.1008E+00  0.1241E+01
      9.620  0.1524E+00  0.1256E+01
      9.714  0.4129E-01  0.1260E+01
      9.808  0.3441E-02  0.1260E+01
      9.901  0.7540E-03  0.1260E+01
      9.995 -0.8321E-04  0.1260E+01
     10.089 -0.5579E-03  0.1260E+01
     10.182  0.2586E-01  0.1262E+01
     10.276  0.2183E-01  0.1264E+01
     10.370  0.5677E-03  0.1264E+01
     10.463 -0.2092E-03  0.1264E+01
     10.557  0.5414E-04  0.1264E+01
     10.651  0.4583E-05  0.1264E+01
     10.744 -0.3660E-04  0.1264E+01
     10.838  0.6940E-03  0.1265E+01
     10.932  0.1336E-02  0.1265E+01
     11.025  0.7902E-02  0.1265E+01
     11.119  0.9784E-02  0.1266E+01
     11.213  0.1382E-01  0.1268E+01
     11.306  0.1050E-01  0.1269E+01
     11.400  0.4057E-01  0.1272E+01
     11.494  0.6657E-01  0.1279E+01
     11.587  0.5556E-01  0.1284E+01
     11.681  0.5098E-01  0.1289E+01
     11.774  0.8353E-01  0.1296E+01
     11.868  0.1399E+00  0.1310E+01
     11.962  0.1128E+00  0.1320E+01
     12.055  0.6438E-01  0.1326E+01
     12.149  0.7443E-01  0.1333E+01
     12.243  0.7604E-01  0.1340E+01
     12.336  0.5846E-01  0.1346E+01
     12.430  0.5177E-01  0.1351E+01
     12.524  0.5780E-01  0.1356E+01
     12.617  0.3858E-01  0.1360E+01
     12.711  0.2843E-01  0.1362E+01
     12.805  0.4389E-01  0.1366E+01
     12.898  0.6160E-01  0.1372E+01
     12.992  0.6991E-01  0.1379E+01
     13.086  0.7599E-01  0.1386E+01
     13.179  0.7783E-01  0.1393E+01
     13.273  0.7488E-01  0.1400E+01
     13.367  0.5690E-01  0.1405E+01
     13.460  0.9405E-01  0.1414E+01
     13.554  0.1116E+00  0.1425E+01
     13.648  0.1057E+00  0.1435E+01
     13.741  0.5657E-01  0.1440E+01
     13.835  0.7147E-01  0.1447E+01
     13.929  0.7445E-01  0.1454E+01
     14.022  0.1178E+00  0.1465E+01
     14.116  0.1049E+00  0.1474E+01
     14.210  0.1090E+00  0.1485E+01
     14.303  0.9932E-01  0.1494E+01
     14.397  0.1100E+00  0.1504E+01
     14.491  0.1412E+00  0.1517E+01
     14.584  0.1086E+00  0.1528E+01
     14.678  0.1404E+00  0.1541E+01
     14.771  0.1759E+00  0.1557E+01
     14.865  0.1181E+00  0.1568E+01
     14.959  0.1149E+00  0.1579E+01
     15.052  0.1123E+00  0.1590E+01
     15.146  0.6909E-01  0.1596E+01
     15.240  0.3826E-01  0.1600E+01
     15.333  0.4971E-02  0.1600E+01
     15.427 -0.5849E-03  0.1600E+01
     15.521  0.9862E-04  0.1600E+01
     15.614  0.9236E-05  0.1600E+01
     15.708  0.8451E-07  0.1600E+01
     15.802  0.1140E-09  0.1600E+01
     15.895  0.2394E-13  0.1600E+01
     15.989  0.8781E-18  0.1600E+01
     16.083  0.0000E+00  0.1600E+01
     16.176  0.0000E+00  0.1600E+01
     16.270  0.0000E+00  0.1600E+01
     16.364  0.0000E+00  0.1600E+01
     16.457  0.0000E+00  0.1600E+01
     16.551  0.0000E+00  0.1600E+01
