   28   28  100    1
  0.1059420E+02  0.8115881E-09  0.8115881E-09  0.5200251E-09  0.5000000E-15
  1.000000000000000E-004
  CAR 
 unknown system                          
    124     47     80
 
  0.3742002E-15  0.3742002E-15  0.3742002E-15  0.3086420E-02
    1      -10.268895   1.000000
    2       -9.448175   1.000000
    3       -9.448175   1.000000
    4       -8.346283   1.000000
    5       -8.346283   1.000000
    6       -7.631332   1.000000
    7       -7.100112   1.000000
    8       -7.100112   1.000000
    9       -7.012044   1.000000
   10       -7.010688   1.000000
   11       -6.860641   1.000000
   12       -6.860641   1.000000
   13       -3.097293   1.000000
   14       -1.850244   1.000000
   15       -1.791673   1.000000
   16       -1.791673   1.000000
   17       -0.413190   1.000000
   18       -0.406760   1.000000
   19       -0.406760   1.000000
   20        0.057042   1.000000
   21        0.469373   1.000000
   22        0.469373   1.000000
   23        0.723363   1.000000
   24        1.360099   1.000000
   25        1.360099   1.000000
   26        1.430901   1.000000
   27        1.593079   1.000000
   28        2.074963   1.000000
   29        2.082415   1.000000
   30        2.082415   1.000000
   31        2.179102   1.000000
   32        2.820583   1.000000
   33        2.820583   1.000000
   34        3.379955   1.000000
   35        3.566113   1.000000
   36        3.566113   1.000000
   37        3.689996   1.000000
   38        3.699785   1.000000
   39        3.699785   1.000000
   40        4.374745   1.000000
   41        4.374745   1.000000
   42        4.969651   1.000000
   43        4.969651   1.000000
   44        5.132144   1.000000
   45        5.140450   1.000000
   46        5.140450   1.000000
   47        5.438734   1.000000
   48        5.755328   1.000000
   49        6.048972   1.000000
   50        6.343958   1.000000
   51        6.343958   1.000000
   52        6.428573   1.000000
   53        6.573745   1.000000
   54        6.573745   1.000000
   55        6.628021   1.000000
   56        7.187820   1.000000
   57        7.187820   1.000000
   58        8.112681   1.000000
   59        8.112681   1.000000
   60        8.762775   1.000000
   61        8.762776   1.000000
   62        8.805145   1.000000
   63        9.844800   0.000074
   64       10.828263   0.000000
   65       10.828263   0.000000
   66       11.949297   0.000000
   67       11.949297   0.000000
   68       12.688690   0.000000
   69       12.688690   0.000000
   70       12.912001   0.000000
   71       13.246054   0.000000
   72       13.603056   0.000000
   73       14.024735   0.000000
   74       14.024735   0.000000
   75       14.132430   0.000000
   76       14.486236   0.000000
   77       14.486236   0.000000
   78       14.652038   0.000000
   79       15.259206   0.000000
   80       15.259206   0.000000
 
  0.1666667E+00  0.1260635E-14  0.3742002E-15  0.1851852E-01
    1      -10.230041   1.000000
    2       -9.524692   1.000000
    3       -9.476350   1.000000
    4       -8.311581   1.000000
    5       -8.264024   1.000000
    6       -7.590643   1.000000
    7       -7.196505   1.000000
    8       -7.119414   1.000000
    9       -7.064599   1.000000
   10       -6.998036   1.000000
   11       -6.865290   1.000000
   12       -6.812871   1.000000
   13       -2.992851   1.000000
   14       -1.848049   1.000000
   15       -1.722024   1.000000
   16       -1.703744   1.000000
   17       -0.574936   1.000000
   18       -0.477208   1.000000
   19       -0.419170   1.000000
   20       -0.151594   1.000000
   21        0.257261   1.000000
   22        0.571185   1.000000
   23        0.671142   1.000000
   24        1.066667   1.000000
   25        1.415852   1.000000
   26        1.627315   1.000000
   27        1.798314   1.000000
   28        1.994883   1.000000
   29        2.023542   1.000000
   30        2.138645   1.000000
   31        2.404093   1.000000
   32        2.879730   1.000000
   33        3.013560   1.000000
   34        3.302493   1.000000
   35        3.502268   1.000000
   36        3.595993   1.000000
   37        3.696884   1.000000
   38        3.712789   1.000000
   39        3.927037   1.000000
   40        4.398983   1.000000
   41        4.412200   1.000000
   42        4.859235   1.000000
   43        4.923349   1.000000
   44        5.045001   1.000000
   45        5.162097   1.000000
   46        5.204977   1.000000
   47        5.447978   1.000000
   48        5.672118   1.000000
   49        5.752350   1.000000
   50        6.289690   1.000000
   51        6.386442   1.000000
   52        6.533708   1.000000
   53        6.537936   1.000000
   54        6.587362   1.000000
   55        6.854697   1.000000
   56        7.156798   1.000000
   57        7.230428   1.000000
   58        7.956828   1.000000
   59        8.038625   1.000000
   60        8.632077   1.000000
   61        8.728696   1.000000
   62        8.889326   1.000000
   63        9.748441   0.003385
   64       10.968243   0.000000
   65       11.031950   0.000000
   66       11.877600   0.000000
   67       11.916161   0.000000
   68       12.426324   0.000000
   69       12.752302   0.000000
   70       13.368723   0.000000
   71       13.452091   0.000000
   72       13.548828   0.000000
   73       13.821238   0.000000
   74       13.934986   0.000000
   75       14.149980   0.000000
   76       14.352383   0.000000
   77       14.652138   0.000000
   78       14.838789   0.000000
   79       15.125296   0.000000
   80       15.224499   0.000000
 
  0.3333333E+00  0.3668036E-15  0.3742002E-15  0.1851852E-01
    1      -10.120823   1.000000
    2       -9.701724   1.000000
    3       -9.525251   1.000000
    4       -8.259899   1.000000
    5       -8.045134   1.000000
    6       -7.478231   1.000000
    7       -7.451154   1.000000
    8       -7.192414   1.000000
    9       -7.087296   1.000000
   10       -6.970287   1.000000
   11       -6.876824   1.000000
   12       -6.785318   1.000000
   13       -2.705771   1.000000
   14       -1.860458   1.000000
   15       -1.582271   1.000000
   16       -1.522735   1.000000
   17       -0.966610   1.000000
   18       -0.558026   1.000000
   19       -0.506288   1.000000
   20       -0.346075   1.000000
   21       -0.102858   1.000000
   22        0.540229   1.000000
   23        0.676534   1.000000
   24        0.739639   1.000000
   25        1.464928   1.000000
   26        1.770275   1.000000
   27        1.924274   1.000000
   28        2.060679   1.000000
   29        2.175770   1.000000
   30        2.371746   1.000000
   31        2.762119   1.000000
   32        2.871401   1.000000
   33        3.098122   1.000000
   34        3.231777   1.000000
   35        3.438701   1.000000
   36        3.614758   1.000000
   37        3.695987   1.000000
   38        3.869480   1.000000
   39        4.247128   1.000000
   40        4.269673   1.000000
   41        4.470273   1.000000
   42        4.729568   1.000000
   43        4.880012   1.000000
   44        5.039403   1.000000
   45        5.122596   1.000000
   46        5.318993   1.000000
   47        5.423503   1.000000
   48        5.674810   1.000000
   49        5.770854   1.000000
   50        6.129961   1.000000
   51        6.232808   1.000000
   52        6.411061   1.000000
   53        6.525556   1.000000
   54        6.609097   1.000000
   55        7.057879   1.000000
   56        7.077260   1.000000
   57        7.263803   1.000000
   58        7.755811   1.000000
   59        7.918898   1.000000
   60        8.386967   1.000000
   61        8.738313   1.000000
   62        9.073179   1.000000
   63        9.569867   0.045347
   64       11.220712   0.000000
   65       11.470615   0.000000
   66       11.755518   0.000000
   67       11.798992   0.000000
   68       12.385428   0.000000
   69       12.900263   0.000000
   70       13.235470   0.000000
   71       13.462654   0.000000
   72       13.650914   0.000000
   73       13.962387   0.000000
   74       14.108520   0.000000
   75       14.370362   0.000000
   76       14.441360   0.000000
   77       14.624740   0.000000
   78       14.777799   0.000000
   79       14.900280   0.000000
   80       15.006707   0.000000
 
  0.5000000E+00  0.3325905E-15  0.3742002E-15  0.9259259E-02
    1      -10.009004   1.000000
    2       -9.844587   1.000000
    3       -9.547066   1.000000
    4       -8.240446   1.000000
    5       -7.758590   1.000000
    6       -7.748901   1.000000
    7       -7.359769   1.000000
    8       -7.291946   1.000000
    9       -7.093296   1.000000
   10       -6.952969   1.000000
   11       -6.885665   1.000000
   12       -6.782919   1.000000
   13       -2.448889   1.000000
   14       -1.964307   1.000000
   15       -1.513476   1.000000
   16       -1.505825   1.000000
   17       -0.933371   1.000000
   18       -0.769430   1.000000
   19       -0.551390   1.000000
   20       -0.357853   1.000000
   21       -0.309477   1.000000
   22        0.471933   1.000000
   23        0.556713   1.000000
   24        0.788521   1.000000
   25        1.444597   1.000000
   26        1.754597   1.000000
   27        1.975993   1.000000
   28        2.224019   1.000000
   29        2.351673   1.000000
   30        2.503433   1.000000
   31        2.709169   1.000000
   32        2.947142   1.000000
   33        3.087931   1.000000
   34        3.192370   1.000000
   35        3.422740   1.000000
   36        3.665640   1.000000
   37        3.755634   1.000000
   38        3.815317   1.000000
   39        4.131833   1.000000
   40        4.429316   1.000000
   41        4.480009   1.000000
   42        4.778468   1.000000
   43        4.797310   1.000000
   44        4.968257   1.000000
   45        5.115177   1.000000
   46        5.419387   1.000000
   47        5.526702   1.000000
   48        5.877452   1.000000
   49        5.882562   1.000000
   50        6.010462   1.000000
   51        6.085322   1.000000
   52        6.332871   1.000000
   53        6.430932   1.000000
   54        6.556143   1.000000
   55        6.892418   1.000000
   56        7.151267   1.000000
   57        7.190587   1.000000
   58        7.649307   1.000000
   59        8.062112   1.000000
   60        8.209511   1.000000
   61        8.777732   1.000000
   62        9.207905   0.999806
   63        9.445226   1.025290
   64       11.368159   0.000000
   65       11.647922   0.000000
   66       11.704707   0.000000
   67       11.830517   0.000000
   68       12.334831   0.000000
   69       12.957758   0.000000
   70       13.111460   0.000000
   71       13.435448   0.000000
   72       13.627922   0.000000
   73       14.126876   0.000000
   74       14.210003   0.000000
   75       14.365338   0.000000
   76       14.398103   0.000000
   77       14.703930   0.000000
   78       14.751233   0.000000
   79       14.869519   0.000000
   80       15.192492   0.000000
 
  0.1666667E+00  0.1666667E+00  0.3742002E-15  0.1851852E-01
    1      -10.155484   1.000000
    2       -9.636363   1.000000
    3       -9.531013   1.000000
    4       -8.228342   1.000000
    5       -8.155086   1.000000
    6       -7.511883   1.000000
    7       -7.380884   1.000000
    8       -7.145518   1.000000
    9       -7.098253   1.000000
   10       -6.978081   1.000000
   11       -6.870175   1.000000
   12       -6.793079   1.000000
   13       -2.794204   1.000000
   14       -1.822707   1.000000
   15       -1.609617   1.000000
   16       -1.605738   1.000000
   17       -0.773248   1.000000
   18       -0.722105   1.000000
   19       -0.419391   1.000000
   20       -0.316172   1.000000
   21        0.063482   1.000000
   22        0.554489   1.000000
   23        0.599426   1.000000
   24        0.867073   1.000000
   25        1.368362   1.000000
   26        1.816446   1.000000
   27        1.911442   1.000000
   28        2.039573   1.000000
   29        2.108304   1.000000
   30        2.304998   1.000000
   31        2.673528   1.000000
   32        2.925504   1.000000
   33        3.101386   1.000000
   34        3.295517   1.000000
   35        3.361481   1.000000
   36        3.600101   1.000000
   37        3.731116   1.000000
   38        3.804424   1.000000
   39        4.130729   1.000000
   40        4.336324   1.000000
   41        4.439963   1.000000
   42        4.791377   1.000000
   43        4.842327   1.000000
   44        5.066764   1.000000
   45        5.140880   1.000000
   46        5.270038   1.000000
   47        5.466896   1.000000
   48        5.599810   1.000000
   49        5.758014   1.000000
   50        6.251438   1.000000
   51        6.259551   1.000000
   52        6.459293   1.000000
   53        6.520389   1.000000
   54        6.615946   1.000000
   55        7.024048   1.000000
   56        7.057718   1.000000
   57        7.300893   1.000000
   58        7.694644   1.000000
   59        8.002158   1.000000
   60        8.487118   1.000000
   61        8.708591   1.000000
   62        9.021953   1.000000
   63        9.618776  -0.050496
   64       11.168297   0.000000
   65       11.338538   0.000000
   66       11.730231   0.000000
   67       11.829508   0.000000
   68       12.509320   0.000000
   69       12.721555   0.000000
   70       13.478310   0.000000
   71       13.496748   0.000000
   72       13.622806   0.000000
   73       13.864222   0.000000
   74       13.968158   0.000000
   75       14.323363   0.000000
   76       14.384820   0.000000
   77       14.689904   0.000000
   78       14.792785   0.000000
   79       14.893284   0.000000
   80       15.044008   0.000000
 
  0.3333333E+00  0.1666667E+00  0.3742002E-15  0.3703704E-01
    1      -10.025679   1.000000
    2       -9.798747   1.000000
    3       -9.584449   1.000000
    4       -8.159200   1.000000
    5       -7.940814   1.000000
    6       -7.654502   1.000000
    7       -7.380522   1.000000
    8       -7.222957   1.000000
    9       -7.122468   1.000000
   10       -6.955574   1.000000
   11       -6.872174   1.000000
   12       -6.798503   1.000000
   13       -2.473226   1.000000
   14       -1.841518   1.000000
   15       -1.587125   1.000000
   16       -1.532841   1.000000
   17       -0.956617   1.000000
   18       -0.836840   1.000000
   19       -0.491688   1.000000
   20       -0.390891   1.000000
   21       -0.208262   1.000000
   22        0.487205   1.000000
   23        0.542501   1.000000
   24        0.760644   1.000000
   25        1.308069   1.000000
   26        1.882744   1.000000
   27        1.955975   1.000000
   28        2.222578   1.000000
   29        2.374326   1.000000
   30        2.533962   1.000000
   31        2.807972   1.000000
   32        2.941136   1.000000
   33        3.079367   1.000000
   34        3.244109   1.000000
   35        3.350415   1.000000
   36        3.574028   1.000000
   37        3.790461   1.000000
   38        3.849085   1.000000
   39        4.148136   1.000000
   40        4.212350   1.000000
   41        4.423157   1.000000
   42        4.632447   1.000000
   43        4.796850   1.000000
   44        5.123335   1.000000
   45        5.292143   1.000000
   46        5.460625   1.000000
   47        5.550003   1.000000
   48        5.773751   1.000000
   49        5.849848   1.000000
   50        6.111444   1.000000
   51        6.192108   1.000000
   52        6.340589   1.000000
   53        6.466708   1.000000
   54        6.574956   1.000000
   55        6.900008   1.000000
   56        7.001756   1.000000
   57        7.153841   1.000000
   58        7.433990   1.000000
   59        8.165799   1.000000
   60        8.362401   1.000000
   61        8.732251   1.000000
   62        9.196298   0.999892
   63        9.460928   0.969720
   64       11.386077   0.000000
   65       11.559419   0.000000
   66       11.680388   0.000000
   67       11.766170   0.000000
   68       12.512071   0.000000
   69       12.833172   0.000000
   70       13.186083   0.000000
   71       13.516093   0.000000
   72       13.640628   0.000000
   73       14.018504   0.000000
   74       14.168278   0.000000
   75       14.462432   0.000000
   76       14.513099   0.000000
   77       14.726377   0.000000
   78       14.745123   0.000000
   79       14.907152   0.000000
   80       15.010245   0.000000
 
  0.3333333E+00  0.3333333E+00  0.3742002E-15  0.6172840E-02
    1       -9.902908   1.000000
    2       -9.902908   1.000000
    3       -9.637026   1.000000
    4       -7.990964   1.000000
    5       -7.882540   1.000000
    6       -7.882540   1.000000
    7       -7.299078   1.000000
    8       -7.200665   1.000000
    9       -7.200665   1.000000
   10       -6.949752   1.000000
   11       -6.838948   1.000000
   12       -6.838948   1.000000
   13       -2.293921   1.000000
   14       -1.714617   1.000000
   15       -1.714617   1.000000
   16       -1.648276   1.000000
   17       -0.927219   1.000000
   18       -0.927219   1.000000
   19       -0.395999   1.000000
   20       -0.387332   1.000000
   21       -0.387332   1.000000
   22        0.487686   1.000000
   23        0.487686   1.000000
   24        0.733903   1.000000
   25        1.211500   1.000000
   26        1.954658   1.000000
   27        1.954658   1.000000
   28        2.337070   1.000000
   29        2.595402   1.000000
   30        2.595402   1.000000
   31        2.898191   1.000000
   32        2.898191   1.000000
   33        2.940718   1.000000
   34        3.365648   1.000000
   35        3.438660   1.000000
   36        3.438660   1.000000
   37        3.675281   1.000000
   38        4.029129   1.000000
   39        4.034246   1.000000
   40        4.034246   1.000000
   41        4.447147   1.000000
   42        4.447147   1.000000
   43        4.722868   1.000000
   44        5.333860   1.000000
   45        5.333860   1.000000
   46        5.579576   1.000000
   47        5.708471   1.000000
   48        5.856214   1.000000
   49        5.856214   1.000000
   50        6.189797   1.000000
   51        6.259096   1.000000
   52        6.259097   1.000000
   53        6.526533   1.000000
   54        6.618946   1.000000
   55        6.618946   1.000000
   56        6.946763   1.000000
   57        6.946763   1.000000
   58        7.210897   1.000000
   59        8.381359   1.000000
   60        8.381359   1.000000
   61        8.685425   1.000000
   62        9.334589   0.996663
   63        9.334590   0.996663
   64       11.493523   0.000000
   65       11.493523   0.000000
   66       11.712890   0.000000
   67       11.712890   0.000000
   68       12.589718   0.000000
   69       12.993410   0.000000
   70       12.993410   0.000000
   71       13.359366   0.000000
   72       13.894266   0.000000
   73       14.037116   0.000000
   74       14.037116   0.000000
   75       14.701157   0.000000
   76       14.701157   0.000000
   77       14.744913   0.000000
   78       14.801103   0.000000
   79       14.897711   0.000000
   80       14.897711   0.000000
 
  0.3742002E-15  0.3742002E-15  0.1111111E+00  0.6172840E-02
    1      -10.221756   1.000000
    2       -9.404672   1.000000
    3       -9.404672   1.000000
    4       -8.325161   1.000000
    5       -8.325160   1.000000
    6       -7.851381   1.000000
    7       -7.202550   1.000000
    8       -7.202550   1.000000
    9       -6.990704   1.000000
   10       -6.901305   1.000000
   11       -6.901305   1.000000
   12       -6.884143   1.000000
   13       -3.043704   1.000000
   14       -1.800351   1.000000
   15       -1.640442   1.000000
   16       -1.640442   1.000000
   17       -0.489323   1.000000
   18       -0.359886   1.000000
   19       -0.359886   1.000000
   20       -0.039049   1.000000
   21        0.499920   1.000000
   22        0.499920   1.000000
   23        0.781762   1.000000
   24        1.202238   1.000000
   25        1.351216   1.000000
   26        1.351216   1.000000
   27        1.587366   1.000000
   28        2.086205   1.000000
   29        2.086205   1.000000
   30        2.217731   1.000000
   31        2.461437   1.000000
   32        2.844680   1.000000
   33        2.844680   1.000000
   34        3.349065   1.000000
   35        3.491701   1.000000
   36        3.491701   1.000000
   37        3.660718   1.000000
   38        3.660719   1.000000
   39        3.771729   1.000000
   40        4.296678   1.000000
   41        4.296678   1.000000
   42        4.981819   1.000000
   43        4.981819   1.000000
   44        5.090430   1.000000
   45        5.101469   1.000000
   46        5.101469   1.000000
   47        5.406521   1.000000
   48        5.620094   1.000000
   49        5.989090   1.000000
   50        6.139759   1.000000
   51        6.139759   1.000000
   52        6.307263   1.000000
   53        6.651205   1.000000
   54        6.651205   1.000000
   55        6.797261   1.000000
   56        7.265554   1.000000
   57        7.265554   1.000000
   58        8.119403   1.000000
   59        8.119403   1.000000
   60        8.728558   1.000000
   61        8.728558   1.000000
   62        8.917043   1.000000
   63        9.749335   0.003318
   64       10.971505   0.000000
   65       10.971505   0.000000
   66       11.995958   0.000000
   67       11.995958   0.000000
   68       12.812672   0.000000
   69       12.812672   0.000000
   70       12.970359   0.000000
   71       13.250842   0.000000
   72       13.699892   0.000000
   73       13.835198   0.000000
   74       13.835198   0.000000
   75       14.216471   0.000000
   76       14.500960   0.000000
   77       14.500960   0.000000
   78       14.580160   0.000000
   79       15.151307   0.000000
   80       15.151307   0.000000
 
  0.1666667E+00  0.1260635E-14  0.1111111E+00  0.3703704E-01
    1      -10.183144   1.000000
    2       -9.481327   1.000000
    3       -9.432393   1.000000
    4       -8.292387   1.000000
    5       -8.245011   1.000000
    6       -7.807593   1.000000
    7       -7.266227   1.000000
    8       -7.216170   1.000000
    9       -7.113742   1.000000
   10       -6.926453   1.000000
   11       -6.852134   1.000000
   12       -6.815832   1.000000
   13       -2.937935   1.000000
   14       -1.766194   1.000000
   15       -1.606315   1.000000
   16       -1.559377   1.000000
   17       -0.598213   1.000000
   18       -0.489097   1.000000
   19       -0.384668   1.000000
   20       -0.166903   1.000000
   21        0.282955   1.000000
   22        0.565814   1.000000
   23        0.781184   1.000000
   24        1.083006   1.000000
   25        1.219146   1.000000
   26        1.547653   1.000000
   27        1.740812   1.000000
   28        1.999905   1.000000
   29        2.035489   1.000000
   30        2.423820   1.000000
   31        2.502136   1.000000
   32        2.860886   1.000000
   33        3.002632   1.000000
   34        3.262475   1.000000
   35        3.481196   1.000000
   36        3.548693   1.000000
   37        3.602177   1.000000
   38        3.717354   1.000000
   39        3.957285   1.000000
   40        4.310715   1.000000
   41        4.418180   1.000000
   42        4.807064   1.000000
   43        4.968113   1.000000
   44        5.070064   1.000000
   45        5.082575   1.000000
   46        5.254580   1.000000
   47        5.367428   1.000000
   48        5.631416   1.000000
   49        5.752380   1.000000
   50        6.129061   1.000000
   51        6.253076   1.000000
   52        6.320034   1.000000
   53        6.618163   1.000000
   54        6.703720   1.000000
   55        6.873498   1.000000
   56        7.183181   1.000000
   57        7.292352   1.000000
   58        7.966764   1.000000
   59        8.042111   1.000000
   60        8.592799   1.000000
   61        8.698442   1.000000
   62        9.000138   1.000000
   63        9.695956   0.002654
   64       11.072072   0.000000
   65       11.173608   0.000000
   66       11.945707   0.000000
   67       11.973469   0.000000
   68       12.495585   0.000000
   69       12.847151   0.000000
   70       13.304960   0.000000
   71       13.435133   0.000000
   72       13.634481   0.000000
   73       13.799768   0.000000
   74       13.940000   0.000000
   75       14.001931   0.000000
   76       14.315689   0.000000
   77       14.668345   0.000000
   78       14.809995   0.000000
   79       15.017656   0.000000
   80       15.207862   0.000000
 
  0.3333333E+00  0.3668036E-15  0.1111111E+00  0.3703704E-01
    1      -10.074796   1.000000
    2       -9.657946   1.000000
    3       -9.481042   1.000000
    4       -8.247815   1.000000
    5       -8.032600   1.000000
    6       -7.682862   1.000000
    7       -7.465031   1.000000
    8       -7.338870   1.000000
    9       -7.169965   1.000000
   10       -6.940334   1.000000
   11       -6.811412   1.000000
   12       -6.764872   1.000000
   13       -2.649865   1.000000
   14       -1.752349   1.000000
   15       -1.502498   1.000000
   16       -1.393262   1.000000
   17       -0.955985   1.000000
   18       -0.598962   1.000000
   19       -0.484404   1.000000
   20       -0.341841   1.000000
   21       -0.050832   1.000000
   22        0.619323   1.000000
   23        0.771882   1.000000
   24        0.812258   1.000000
   25        1.322211   1.000000
   26        1.672913   1.000000
   27        1.796667   1.000000
   28        1.967737   1.000000
   29        2.119912   1.000000
   30        2.533882   1.000000
   31        2.780907   1.000000
   32        2.854312   1.000000
   33        3.092671   1.000000
   34        3.192856   1.000000
   35        3.430300   1.000000
   36        3.598024   1.000000
   37        3.685943   1.000000
   38        3.882014   1.000000
   39        4.162289   1.000000
   40        4.335229   1.000000
   41        4.520688   1.000000
   42        4.714505   1.000000
   43        4.841294   1.000000
   44        5.071296   1.000000
   45        5.178970   1.000000
   46        5.316489   1.000000
   47        5.425271   1.000000
   48        5.664817   1.000000
   49        5.767530   1.000000
   50        6.114151   1.000000
   51        6.136231   1.000000
   52        6.348222   1.000000
   53        6.413265   1.000000
   54        6.589321   1.000000
   55        7.054761   1.000000
   56        7.079490   1.000000
   57        7.294080   1.000000
   58        7.788711   1.000000
   59        7.835460   1.000000
   60        8.332445   1.000000
   61        8.695132   1.000000
   62        9.175552   0.999965
   63        9.579163   0.003885
   64       11.312721   0.000000
   65       11.538484   0.000000
   66       11.833749   0.000000
   67       11.878418   0.000000
   68       12.418269   0.000000
   69       12.929029   0.000000
   70       13.170111   0.000000
   71       13.454081   0.000000
   72       13.584985   0.000000
   73       13.959282   0.000000
   74       14.063769   0.000000
   75       14.274185   0.000000
   76       14.415560   0.000000
   77       14.592966   0.000000
   78       14.673623   0.000000
   79       14.972183   0.000000
   80       15.122780   0.000000
 
  0.5000000E+00  0.3325905E-15  0.1111111E+00  0.1851852E-01
    1       -9.963956   1.000000
    2       -9.799803   1.000000
    3       -9.502662   1.000000
    4       -8.232723   1.000000
    5       -7.771465   1.000000
    6       -7.731240   1.000000
    7       -7.540011   1.000000
    8       -7.475433   1.000000
    9       -7.177859   1.000000
   10       -6.943668   1.000000
   11       -6.790629   1.000000
   12       -6.755875   1.000000
   13       -2.395619   1.000000
   14       -1.864220   1.000000
   15       -1.420664   1.000000
   16       -1.413700   1.000000
   17       -0.872213   1.000000
   18       -0.768791   1.000000
   19       -0.630575   1.000000
   20       -0.333695   1.000000
   21       -0.238845   1.000000
   22        0.603266   1.000000
   23        0.657912   1.000000
   24        0.849591   1.000000
   25        1.389427   1.000000
   26        1.688410   1.000000
   27        1.829682   1.000000
   28        1.980436   1.000000
   29        2.269049   1.000000
   30        2.349583   1.000000
   31        2.783531   1.000000
   32        2.977632   1.000000
   33        3.168411   1.000000
   34        3.330300   1.000000
   35        3.350782   1.000000
   36        3.654153   1.000000
   37        3.755697   1.000000
   38        3.833409   1.000000
   39        4.093106   1.000000
   40        4.467942   1.000000
   41        4.516353   1.000000
   42        4.773971   1.000000
   43        4.818507   1.000000
   44        4.969329   1.000000
   45        5.216096   1.000000
   46        5.416385   1.000000
   47        5.468418   1.000000
   48        5.839041   1.000000
   49        5.880277   1.000000
   50        6.038094   1.000000
   51        6.182228   1.000000
   52        6.227080   1.000000
   53        6.348966   1.000000
   54        6.390171   1.000000
   55        6.889921   1.000000
   56        7.183145   1.000000
   57        7.193449   1.000000
   58        7.708923   1.000000
   59        7.903035   1.000000
   60        8.157535   1.000000
   61        8.712929   1.000000
   62        9.294836   0.995923
   63        9.492310   0.748496
   64       11.468359   0.000000
   65       11.677158   0.000000
   66       11.771353   0.000000
   67       11.866693   0.000000
   68       12.422222   0.000000
   69       12.946397   0.000000
   70       13.028309   0.000000
   71       13.447487   0.000000
   72       13.554085   0.000000
   73       14.062939   0.000000
   74       14.161754   0.000000
   75       14.267109   0.000000
   76       14.443471   0.000000
   77       14.701145   0.000000
   78       14.734557   0.000000
   79       14.810280   0.000000
   80       15.158703   0.000000
 
  0.1666667E+00  0.1666667E+00  0.1111111E+00  0.1851852E-01