Automatically generated mesh
      47
Reciprocal lattice
    0.00000000000000    0.00000000000000    0.00000000000000             1
    0.16666666666667    0.00000000000000    0.00000000000000             6
    0.33333333333333    0.00000000000000    0.00000000000000             6
    0.50000000000000    0.00000000000000    0.00000000000000             3
    0.16666666666667    0.16666666666667    0.00000000000000             6
    0.33333333333333    0.16666666666667    0.00000000000000            12
    0.33333333333333    0.33333333333333    0.00000000000000             2
    0.00000000000000    0.00000000000000    0.11111111111111             2
    0.16666666666667    0.00000000000000    0.11111111111111            12
    0.33333333333333    0.00000000000000    0.11111111111111            12
    0.50000000000000    0.00000000000000    0.11111111111111             6
    0.16666666666667    0.16666666666667    0.11111111111111             6
    0.33333333333333    0.16666666666667    0.11111111111111            12
    0.33333333333333    0.33333333333333    0.11111111111111             2
   -0.16666666666667    0.33333333333333    0.11111111111111             6
   -0.33333333333333    0.50000000000000    0.11111111111111            12
   -0.33333333333333   -0.33333333333333    0.11111111111111             2
    0.00000000000000    0.00000000000000    0.22222222222222             2
    0.16666666666667    0.00000000000000    0.22222222222222            12
    0.33333333333333    0.00000000000000    0.22222222222222            12
    0.50000000000000    0.00000000000000    0.22222222222222             6
    0.16666666666667    0.16666666666667    0.22222222222222             6
    0.33333333333333    0.16666666666667    0.22222222222222            12
    0.33333333333333    0.33333333333333    0.22222222222222             2
   -0.16666666666667    0.33333333333333    0.22222222222222             6
   -0.33333333333333    0.50000000000000    0.22222222222222            12
   -0.33333333333333   -0.33333333333333    0.22222222222222             2
    0.00000000000000    0.00000000000000    0.33333333333333             2
    0.16666666666667    0.00000000000000    0.33333333333333            12
    0.33333333333333    0.00000000000000    0.33333333333333            12
    0.50000000000000    0.00000000000000    0.33333333333333             6
    0.16666666666667    0.16666666666667    0.33333333333333             6
    0.33333333333333    0.16666666666667    0.33333333333333            12
    0.33333333333333    0.33333333333333    0.33333333333333             2
   -0.16666666666667    0.33333333333333    0.33333333333333             6
   -0.33333333333333    0.50000000000000    0.33333333333333            12
   -0.33333333333333   -0.33333333333333    0.33333333333333             2
    0.00000000000000    0.00000000000000    0.44444444444445             2
    0.16666666666667    0.00000000000000    0.44444444444445            12
    0.33333333333333    0.00000000000000    0.44444444444445            12
    0.50000000000000    0.00000000000000    0.44444444444445             6
    0.16666666666667    0.16666666666667    0.44444444444445             6
    0.33333333333333    0.16666666666667    0.44444444444445            12
    0.33333333333333    0.33333333333333    0.44444444444445             2
   -0.16666666666667    0.33333333333333    0.44444444444445             6
   -0.33333333333333    0.50000000000000    0.44444444444445            12
   -0.33333333333333   -0.33333333333333    0.44444444444445             2
