       N       E                     dE             d eps       ncg     rms          rms(c)
DAV:   1     0.492877073804E+03    0.49288E+03   -0.51480E+04  7520   0.115E+03
DAV:   2    -0.176424885112E+03   -0.66930E+03   -0.64279E+03  9312   0.255E+02
DAV:   3    -0.222769687625E+03   -0.46345E+02   -0.45951E+02  9040   0.721E+01
DAV:   4    -0.223634010604E+03   -0.86432E+00   -0.86003E+00  9264   0.104E+01
DAV:   5    -0.223652052475E+03   -0.18042E-01   -0.18018E-01  9080   0.140E+00    0.433E+01
RMM:   6    -0.195023456709E+03    0.28629E+02   -0.10897E+02  7523   0.281E+01    0.201E+01
RMM:   7    -0.194046616430E+03    0.97684E+00   -0.72752E+00  7557   0.684E+00    0.102E+01
RMM:   8    -0.193818953514E+03    0.22766E+00   -0.14047E+00  7520   0.308E+00    0.118E+00
RMM:   9    -0.193790424188E+03    0.28529E-01   -0.13206E-01  7573   0.100E+00    0.531E-01
RMM:  10    -0.193791409573E+03   -0.98538E-03   -0.33037E-02  7521   0.380E-01    0.258E-01
RMM:  11    -0.193790421358E+03    0.98822E-03   -0.38587E-03  7520   0.176E-01    0.113E-01
RMM:  12    -0.193790642973E+03   -0.22162E-03   -0.10139E-03  6914   0.853E-02    0.465E-02
RMM:  13    -0.193790563804E+03    0.79169E-04   -0.21359E-04  4825   0.388E-02
   1 F= -.19379056E+03 E0= -.19378990E+03  d E =-.193791E+03
       N       E                     dE             d eps       ncg     rms          rms(c)
DAV:   1    -0.194250352379E+03   -0.45971E+00   -0.76477E+01  8144   0.339E+01    0.284E+00
RMM:   2    -0.194320617981E+03   -0.70266E-01   -0.15403E+00  7520   0.417E+00    0.157E+00
RMM:   3    -0.194297154385E+03    0.23464E-01   -0.83114E-02  7566   0.892E-01    0.116E+00
RMM:   4    -0.194289415644E+03    0.77387E-02   -0.28399E-02  7520   0.475E-01    0.374E-01
RMM:   5    -0.194289602153E+03   -0.18651E-03   -0.30345E-03  7564   0.151E-01    0.101E-01
RMM:   6    -0.194289571344E+03    0.30809E-04   -0.35857E-04  5400   0.544E-02
   2 F= -.19428957E+03 E0= -.19428886E+03  d E =-.499008E+00
       N       E                     dE             d eps       ncg     rms          rms(c)
DAV:   1    -0.194298801243E+03   -0.91991E-02   -0.11553E+00  8272   0.414E+00    0.317E-01
RMM:   2    -0.194299968054E+03   -0.11668E-02   -0.22974E-02  7520   0.513E-01    0.182E-01
RMM:   3    -0.194299518116E+03    0.44994E-03   -0.15069E-03  7558   0.120E-01    0.110E-01
RMM:   4    -0.194299438361E+03    0.79755E-04   -0.31065E-04  4986   0.523E-02
   3 F= -.19429944E+03 E0= -.19429868E+03  d E =-.508875E+00
       N       E                     dE             d eps       ncg     rms          rms(c)
DAV:   1    -0.194644750565E+03   -0.34523E+00   -0.55420E+01  7520   0.285E+01    0.220E+00
RMM:   2    -0.194723011782E+03   -0.78261E-01   -0.12316E+00  7520   0.371E+00    0.123E+00
RMM:   3    -0.194704812650E+03    0.18199E-01   -0.48327E-02  7598   0.694E-01    0.881E-01
RMM:   4    -0.194698093467E+03    0.67192E-02   -0.27045E-02  7520   0.450E-01    0.250E-01
RMM:   5    -0.194698029328E+03    0.64139E-04   -0.14598E-03  7560   0.103E-01    0.889E-02
RMM:   6    -0.194698023231E+03    0.60971E-05   -0.84979E-05  4640   0.281E-02
   4 F= -.19469802E+03 E0= -.19469711E+03  d E =-.398585E+00
       N       E                     dE             d eps       ncg     rms          rms(c)
DAV:   1    -0.194716288417E+03   -0.18259E-01   -0.47239E+00  7984   0.830E+00    0.591E-01
RMM:   2    -0.194722594197E+03   -0.63058E-02   -0.98466E-02  7520   0.105E+00    0.332E-01
RMM:   3    -0.194721046624E+03    0.15476E-02   -0.41806E-03  7580   0.204E-01    0.218E-01
RMM:   4    -0.194720598471E+03    0.44815E-03   -0.19840E-03  7520   0.122E-01    0.620E-02
RMM:   5    -0.194720590887E+03    0.75836E-05   -0.82401E-05  4578   0.261E-02
   5 F= -.19472059E+03 E0= -.19471966E+03  d E =-.421153E+00
       N       E                     dE             d eps       ncg     rms          rms(c)
DAV:   1    -0.194832389024E+03   -0.11179E+00   -0.50580E+01  7520   0.275E+01    0.230E+00
RMM:   2    -0.194898281168E+03   -0.65892E-01   -0.11353E+00  7520   0.356E+00    0.939E-01
RMM:   3    -0.194880778765E+03    0.17502E-01   -0.46612E-02  7581   0.657E-01    0.566E-01
RMM:   4    -0.194876630500E+03    0.41483E-02   -0.18411E-02  7520   0.365E-01    0.162E-01
RMM:   5    -0.194876483995E+03    0.14651E-03   -0.10729E-03  7538   0.887E-02    0.652E-02
RMM:   6    -0.194876475772E+03    0.82229E-05   -0.79765E-05  4567   0.279E-02
   6 F= -.19487648E+03 E0= -.19487557E+03  d E =-.155885E+00
       N       E                     dE             d eps       ncg     rms          rms(c)
DAV:   1    -0.194880511017E+03   -0.40270E-02   -0.11049E+00  8128   0.407E+00    0.321E-01
RMM:   2    -0.194881759071E+03   -0.12481E-02   -0.22256E-02  7520   0.492E-01    0.127E-01
RMM:   3    -0.194881380383E+03    0.37869E-03   -0.10689E-03  7560   0.985E-02    0.656E-02
RMM:   4    -0.194881314369E+03    0.66014E-04   -0.28954E-04  5061   0.479E-02
   7 F= -.19488131E+03 E0= -.19488039E+03  d E =-.160723E+00
       N       E                     dE             d eps       ncg     rms          rms(c)
DAV:   1    -0.194923369471E+03   -0.41989E-01   -0.61868E+00  7552   0.972E+00    0.935E-01
RMM:   2    -0.194937070031E+03   -0.13701E-01   -0.17167E-01  7520   0.144E+00    0.473E-01
RMM:   3    -0.194934984652E+03    0.20854E-02   -0.70284E-03  7558   0.266E-01    0.303E-01
RMM:   4    -0.194934446385E+03    0.53827E-03   -0.26767E-03  7520   0.155E-01    0.921E-02
RMM:   5    -0.194934451295E+03   -0.49099E-05   -0.16681E-04  4640   0.401E-02
   8 F= -.19493445E+03 E0= -.19493362E+03  d E =-.531369E-01
       N       E                     dE             d eps       ncg     rms          rms(c)
DAV:   1    -0.194935263282E+03   -0.81690E-03   -0.84376E-02  8272   0.113E+00    0.110E-01
RMM:   2    -0.194935430493E+03   -0.16721E-03   -0.22519E-03  7520   0.165E-01    0.555E-02
RMM:   3    -0.194935396772E+03    0.33721E-04   -0.78940E-05  4204   0.308E-02
   9 F= -.19493540E+03 E0= -.19493455E+03  d E =-.540824E-01
       N       E                     dE             d eps       ncg     rms          rms(c)
DAV:   1    -0.194951221783E+03   -0.15791E-01   -0.72423E+00  7520   0.107E+01    0.887E-01
RMM:   2    -0.194959141044E+03   -0.79193E-02   -0.13150E-01  7520   0.124E+00    0.331E-01
RMM:   3    -0.194957144667E+03    0.19964E-02   -0.64578E-03  7564   0.247E-01    0.195E-01
RMM:   4    -0.194956621421E+03    0.52325E-03   -0.27676E-03  7520   0.146E-01    0.478E-02
RMM:   5    -0.194956616891E+03    0.45307E-05   -0.60462E-05  4559   0.246E-02
  10 F= -.19495662E+03 E0= -.19495580E+03  d E =-.212201E-01
       N       E                     dE             d eps       ncg     rms          rms(c)
DAV:   1    -0.194958158519E+03   -0.15371E-02   -0.34948E-01  7712   0.234E+00    0.193E-01
RMM:   2    -0.194958543496E+03   -0.38498E-03   -0.63285E-03  7520   0.271E-01    0.724E-02
RMM:   3    -0.194958440320E+03    0.10318E-03   -0.27619E-04  4882   0.544E-02    0.416E-02
RMM:   4    -0.194958416830E+03    0.23489E-04   -0.15534E-04  4123   0.385E-02
  11 F= -.19495842E+03 E0= -.19495759E+03  d E =-.230201E-01
       N       E                     dE             d eps       ncg     rms          rms(c)
DAV:   1    -0.194969138928E+03   -0.10699E-01   -0.17644E+00  7520   0.527E+00    0.328E-01
RMM:   2    -0.194970883689E+03   -0.17448E-02   -0.28140E-02  7520   0.556E-01    0.146E-01
RMM:   3    -0.194970511825E+03    0.37186E-03   -0.15523E-03  7680   0.116E-01    0.881E-02
RMM:   4    -0.194970382259E+03    0.12957E-03   -0.57167E-04  6839   0.675E-02    0.203E-02
RMM:   5    -0.194970382761E+03   -0.50242E-06   -0.16700E-05  4453   0.138E-02
  12 F= -.19497038E+03 E0= -.19496955E+03  d E =-.119659E-01
       N       E                     dE             d eps       ncg     rms          rms(c)
DAV:   1    -0.194972996463E+03   -0.26142E-02   -0.15686E+00  7648   0.497E+00    0.309E-01
RMM:   2    -0.194974571469E+03   -0.15750E-02   -0.25196E-02  7520   0.526E-01    0.139E-01
RMM:   3    -0.194974246865E+03    0.32460E-03   -0.14009E-03  7686   0.110E-01    0.841E-02
RMM:   4    -0.194974132242E+03    0.11462E-03   -0.51120E-04  6725   0.641E-02    0.194E-02
RMM:   5    -0.194974132839E+03   -0.59648E-06   -0.15810E-05  4360   0.134E-02
  13 F= -.19497413E+03 E0= -.19497329E+03  d E =-.157160E-01
       N       E                     dE             d eps       ncg     rms          rms(c)
DAV:   1    -0.194979309377E+03   -0.51771E-02   -0.10817E+00  7584   0.401E+00    0.267E-01
RMM:   2    -0.194980679138E+03   -0.13698E-02   -0.20365E-02  7520   0.480E-01    0.150E-01
RMM:   3    -0.194980370866E+03    0.30827E-03   -0.10523E-03  7657   0.101E-01    0.835E-02
RMM:   4    -0.194980292619E+03    0.78247E-04   -0.31673E-04  5108   0.527E-02
  14 F= -.19498029E+03 E0= -.19497942E+03  d E =-.615978E-02
       N       E                     dE             d eps       ncg     rms          rms(c)
DAV:   1    -0.194980308209E+03    0.62658E-04   -0.17477E-03  8632   0.162E-01    0.130E-02
RMM:   2    -0.194980308141E+03    0.67073E-07   -0.25170E-05  3996   0.185E-02
  15 F= -.19498031E+03 E0= -.19497944E+03  d E =-.617530E-02
       N       E                     dE             d eps       ncg     rms          rms(c)
DAV:   1    -0.194983134877E+03   -0.28267E-02   -0.41689E-01  7616   0.247E+00    0.179E-01
RMM:   2    -0.194983760086E+03   -0.62521E-03   -0.90123E-03  7520   0.320E-01    0.937E-02
RMM:   3    -0.194983594500E+03    0.16559E-03   -0.41156E-04  5422   0.644E-02    0.530E-02
RMM:   4    -0.194983554971E+03    0.39529E-04   -0.19500E-04  4479   0.429E-02
  16 F= -.19498355E+03 E0= -.19498269E+03  d E =-.324683E-02
       N       E                     dE             d eps       ncg     rms          rms(c)
DAV:   1    -0.194983634496E+03   -0.39996E-04   -0.25294E-02  8312   0.610E-01    0.478E-02
RMM:   2    -0.194983678968E+03   -0.44472E-04   -0.59289E-04  6331   0.837E-02
  17 F= -.19498368E+03 E0= -.19498281E+03  d E =-.337083E-02
       N       E                     dE             d eps       ncg     rms          rms(c)
DAV:   1    -0.194986958880E+03   -0.33244E-02   -0.17557E-01  7568   0.158E+00    0.888E-02
RMM:   2    -0.194987149363E+03   -0.19048E-03   -0.27929E-03  7520   0.176E-01    0.535E-02
RMM:   3    -0.194987108793E+03    0.40571E-04   -0.11469E-04  4600   0.364E-02
  18 F= -.19498711E+03 E0= -.19498626E+03  d E =-.342982E-02
       N       E                     dE             d eps       ncg     rms          rms(c)
DAV:   1    -0.194993383562E+03   -0.62342E-02   -0.15741E+00  7520   0.473E+00    0.258E-01
RMM:   2    -0.194995153504E+03   -0.17699E-02   -0.24273E-02  7520   0.517E-01    0.147E-01
RMM:   3    -0.194994875978E+03    0.27753E-03   -0.11702E-03  7548   0.104E-01    0.864E-02
RMM:   4    -0.194994784359E+03    0.91620E-04   -0.47439E-04  6592   0.622E-02
  19 F= -.19499478E+03 E0= -.19499400E+03  d E =-.111054E-01
       N       E                     dE             d eps       ncg     rms          rms(c)
DAV:   1    -0.194993347020E+03    0.15290E-02   -0.63407E+00  7520   0.949E+00    0.515E-01
RMM:   2    -0.195000450241E+03   -0.71032E-02   -0.97995E-02  7520   0.104E+00    0.297E-01
RMM:   3    -0.194999307032E+03    0.11432E-02   -0.46528E-03  7696   0.208E-01    0.175E-01
RMM:   4    -0.194998932231E+03    0.37480E-03   -0.19656E-03  7520   0.125E-01    0.363E-02
RMM:   5    -0.194998925438E+03    0.67927E-05   -0.43071E-05  4568   0.200E-02
  20 F= -.19499893E+03 E0= -.19499825E+03  d E =-.152465E-01
       N       E                     dE             d eps       ncg     rms          rms(c)
DAV:   1    -0.195001126131E+03   -0.21939E-02   -0.10254E-01  8256   0.118E+00    0.777E-02
RMM:   2    -0.195001251205E+03   -0.12507E-03   -0.18561E-03  7520   0.146E-01    0.469E-02
RMM:   3    -0.195001225594E+03    0.25611E-04   -0.78702E-05  4528   0.303E-02
  21 F= -.19500123E+03 E0= -.19500057E+03  d E =-.230016E-02
       N       E                     dE             d eps       ncg     rms          rms(c)
DAV:   1    -0.195002741979E+03   -0.14908E-02   -0.73560E-01  7520   0.317E+00    0.207E-01
RMM:   2    -0.195003606775E+03   -0.86480E-03   -0.12860E-02  7520   0.385E-01    0.126E-01
RMM:   3    -0.195003441321E+03    0.16545E-03   -0.64396E-04  6650   0.799E-02    0.700E-02
RMM:   4    -0.195003407124E+03    0.34197E-04   -0.17745E-04  4566   0.418E-02
  22 F= -.19500341E+03 E0= -.19500279E+03  d E =-.448169E-02
       N       E                     dE             d eps       ncg     rms          rms(c)
DAV:   1    -0.195004645503E+03   -0.12042E-02   -0.15725E-02  8488   0.487E-01    0.292E-02
RMM:   2    -0.195004656703E+03   -0.11200E-04   -0.23432E-04  4804   0.534E-02
  23 F= -.19500466E+03 E0= -.19500403E+03  d E =-.124958E-02
       N       E                     dE             d eps       ncg     rms          rms(c)
DAV:   1    -0.195007839287E+03   -0.31938E-02   -0.14064E-01  7648   0.145E+00    0.855E-02
RMM:   2    -0.195007981680E+03   -0.14239E-03   -0.24040E-03  7520   0.163E-01    0.519E-02
RMM:   3    -0.195007953769E+03    0.27911E-04   -0.10350E-04  4543   0.339E-02
  24 F= -.19500795E+03 E0= -.19500731E+03  d E =-.454664E-02
       N       E                     dE             d eps       ncg     rms          rms(c)
DAV:   1    -0.195012120173E+03   -0.41385E-02   -0.56114E-01  7536   0.290E+00    0.167E-01
RMM:   2    -0.195012721980E+03   -0.60181E-03   -0.93734E-03  7520   0.322E-01    0.961E-02
RMM:   3    -0.195012636493E+03    0.85487E-04   -0.43527E-04  5600   0.647E-02
  25 F= -.19501264E+03 E0= -.19501195E+03  d E =-.922937E-02
       N       E                     dE             d eps       ncg     rms          rms(c)
DAV:   1    -0.195012120138E+03    0.60184E-03   -0.22461E+00  7536   0.581E+00    0.337E-01
RMM:   2    -0.195014526746E+03   -0.24066E-02   -0.37767E-02  7520   0.647E-01    0.193E-01
RMM:   3    -0.195014189109E+03    0.33764E-03   -0.18611E-03  7625   0.130E-01    0.121E-01
RMM:   4    -0.195014097513E+03    0.91596E-04   -0.53589E-04  6768   0.675E-02
  26 F= -.19501410E+03 E0= -.19501334E+03  d E =-.106904E-01
       N       E                     dE             d eps       ncg     rms          rms(c)
DAV:   1    -0.195020761060E+03   -0.65720E-02   -0.34540E-01  8240   0.229E+00    0.198E-01
RMM:   2    -0.195021202236E+03   -0.44118E-03   -0.90989E-03  7520   0.313E-01    0.913E-02
RMM:   3    -0.195020990050E+03    0.21219E-03   -0.51162E-04  6843   0.678E-02    0.462E-02
RMM:   4    -0.195020962535E+03    0.27515E-04   -0.12589E-04  4436   0.333E-02
  27 F= -.19502096E+03 E0= -.19502020E+03  d E =-.686502E-02
       N       E                     dE             d eps       ncg     rms          rms(c)
DAV:   1    -0.195022253977E+03   -0.12639E-02   -0.18033E-01  7680   0.165E+00    0.148E-01
RMM:   2    -0.195022503165E+03   -0.24919E-03   -0.47709E-03  7520   0.227E-01    0.689E-02
RMM:   3    -0.195022391362E+03    0.11180E-03   -0.24262E-04  4562   0.492E-02    0.337E-02
RMM:   4    -0.195022380070E+03    0.11292E-04   -0.96576E-05  4320   0.310E-02
  28 F= -.19502238E+03 E0= -.19502162E+03  d E =-.828256E-02
       N       E                     dE             d eps       ncg     rms          rms(c)
DAV:   1    -0.195023038210E+03   -0.64685E-03   -0.31942E-02  8240   0.698E-01    0.508E-02
RMM:   2    -0.195023078522E+03   -0.40312E-04   -0.66450E-04  6385   0.863E-02
  29 F= -.19502308E+03 E0= -.19502231E+03  d E =-.698453E-03
       N       E                     dE             d eps       ncg     rms          rms(c)
DAV:   1    -0.195023450500E+03   -0.41229E-03   -0.81664E-02  7584   0.112E+00    0.884E-02
RMM:   2    -0.195023540001E+03   -0.89501E-04   -0.17629E-03  7520   0.139E-01    0.488E-02
RMM:   3    -0.195023502111E+03    0.37889E-04   -0.88494E-05  4417   0.316E-02
  30 F= -.19502350E+03 E0= -.19502273E+03  d E =-.112204E-02
       N       E                     dE             d eps       ncg     rms          rms(c)
DAV:   1    -0.195024085313E+03   -0.54531E-03   -0.33896E-02  8136   0.718E-01    0.346E-02
RMM:   2    -0.195024116720E+03   -0.31406E-04   -0.47248E-04  5424   0.724E-02
  31 F= -.19502412E+03 E0= -.19502335E+03  d E =-.614608E-03
       N       E                     dE             d eps       ncg     rms          rms(c)
DAV:   1    -0.195025224100E+03   -0.11388E-02   -0.31060E-01  7536   0.218E+00    0.108E-01
RMM:   2    -0.195025529317E+03   -0.30522E-03   -0.48183E-03  7520   0.224E-01    0.648E-02
RMM:   3    -0.195025469031E+03    0.60286E-04   -0.21692E-04  4842   0.479E-02
  32 F= -.19502547E+03 E0= -.19502470E+03  d E =-.196692E-02
       N       E                     dE             d eps       ncg     rms          rms(c)
DAV:   1    -0.195026130227E+03   -0.60091E-03   -0.37000E-02  8296   0.760E-01    0.481E-02
RMM:   2    -0.195026174632E+03   -0.44405E-04   -0.63845E-04  6595   0.871E-02
  33 F= -.19502617E+03 E0= -.19502540E+03  d E =-.705601E-03
       N       E                     dE             d eps       ncg     rms          rms(c)
DAV:   1    -0.195026497507E+03   -0.36728E-03   -0.61992E-02  7664   0.985E-01    0.671E-02
RMM:   2    -0.195026553660E+03   -0.56153E-04   -0.11087E-03  7466   0.113E-01    0.415E-02
RMM:   3    -0.195026529670E+03    0.23990E-04   -0.66766E-05  4386   0.276E-02
  34 F= -.19502653E+03 E0= -.19502576E+03  d E =-.106064E-02
       N       E                     dE             d eps       ncg     rms          rms(c)
DAV:   1    -0.195027004830E+03   -0.45117E-03   -0.51325E-02  8016   0.883E-01    0.472E-02
RMM:   2    -0.195027054401E+03   -0.49572E-04   -0.80719E-04  6681   0.928E-02
  35 F= -.19502705E+03 E0= -.19502629E+03  d E =-.524731E-03
       N       E                     dE             d eps       ncg     rms          rms(c)
DAV:   1    -0.195027568220E+03   -0.56339E-03   -0.45326E-01  7520   0.263E+00    0.143E-01
RMM:   2    -0.195028029426E+03   -0.46121E-03   -0.75482E-03  7520   0.282E-01    0.845E-02
RMM:   3    -0.195027926659E+03    0.10277E-03   -0.35279E-04  5267   0.604E-02    0.519E-02
RMM:   4    -0.195027899062E+03    0.27597E-04   -0.16613E-04  4426   0.401E-02
  36 F= -.19502790E+03 E0= -.19502713E+03  d E =-.136939E-02
       N       E                     dE             d eps       ncg     rms          rms(c)
DAV:   1    -0.195028441637E+03   -0.51498E-03   -0.57650E-02  8256   0.931E-01    0.530E-02
RMM:   2    -0.195028513437E+03   -0.71800E-04   -0.99093E-04  7224   0.103E-01
  37 F= -.19502851E+03 E0= -.19502774E+03  d E =-.614375E-03
       N       E                     dE             d eps       ncg     rms          rms(c)
DAV:   1    -0.195028899511E+03   -0.45787E-03   -0.24154E-01  7552   0.191E+00    0.115E-01
RMM:   2    -0.195029158405E+03   -0.25889E-03   -0.41881E-03  7520   0.212E-01    0.647E-02
RMM:   3    -0.195029092774E+03    0.65632E-04   -0.19848E-04  4766   0.464E-02
  38 F= -.19502909E+03 E0= -.19502831E+03  d E =-.119371E-02
       N       E                     dE             d eps       ncg     rms          rms(c)
DAV:   1    -0.195029248319E+03   -0.89914E-04   -0.70543E-03  8736   0.322E-01    0.312E-02
RMM:   2    -0.195029259631E+03   -0.11312E-04   -0.21485E-04  4461   0.521E-02
  39 F= -.19502926E+03 E0= -.19502848E+03  d E =-.166857E-03
       N       E                     dE             d eps       ncg     rms          rms(c)
DAV:   1    -0.195029272693E+03   -0.24374E-04   -0.14670E-03  7976   0.147E-01    0.207E-02
RMM:   2    -0.195029271952E+03    0.74097E-06   -0.39770E-05  3826   0.240E-02
  40 F= -.19502927E+03 E0= -.19502849E+03  d E =-.179178E-03
