<?xml version="1.0" encoding="ISO-8859-1"?>
<modeling>
 <generator>
  <i name="program" type="string">vasp </i>
  <i name="version" type="string">5.4.4.18Apr17-6-g9f103f2a35  </i>
  <i name="subversion" type="string">(build Nov 01 2019 12:17:22) complex            parallel </i>
  <i name="platform" type="string">LinuxIFC </i>
  <i name="date" type="string">2023 05 19 </i>
  <i name="time" type="string">18:21:55 </i>
 </generator>
 <incar>
  <i type="string" name="PREC">accurate</i>
  <i type="string" name="ALGO"> Fast</i>
  <i type="int" name="IBRION">     2</i>
  <i type="int" name="NSW">   100</i>
  <i type="int" name="ISIF">     2</i>
  <i type="string" name="LREAL"> Auto</i>
  <i type="int" name="ISMEAR">     2</i>
  <i name="SIGMA">      0.10000000</i>
  <i type="logical" name="LWAVE"> F  </i>
  <i type="logical" name="LCHARG"> F  </i>
  <v type="int" name="KPOINT_BSE">    -1     0     0     0</v>
 </incar>
 <structure name="primitive_cell" >
  <crystal>
   <varray name="basis" >
    <v>       4.05794073      -7.02855952       0.00000000 </v>
    <v>       4.05794073       7.02855952       0.00000000 </v>
    <v>       0.00000000       0.00000000       5.20025091 </v>
   </varray>
   <i name="volume">    296.63768305 </i>
   <varray name="rec_basis" >
    <v>       0.12321521      -0.07113833       0.00000000 </v>
    <v>       0.12321521       0.07113833       0.00000000 </v>
    <v>       0.00000000       0.00000000       0.19229841 </v>
   </varray>
  </crystal>
  <varray name="positions" >
   <v>       0.00847736      -0.35287377       0.21326215 </v>
   <v>       0.08729345      -0.21311138       0.46674092 </v>
   <v>      -0.08729345      -0.30040483      -0.03325908 </v>
   <v>      -0.06686359       0.41763405       0.28259872 </v>
   <v>      -0.00847736      -0.36135113      -0.28673785 </v>
   <v>      -0.08582195       0.32157747      -0.00812732 </v>
   <v>       0.08582195       0.40739942       0.49187268 </v>
   <v>      -0.32157747      -0.40739942      -0.00812732 </v>
   <v>       0.06686359       0.48449764      -0.21740128 </v>
   <v>       0.32157747      -0.08582195       0.49187268 </v>
   <v>       0.33333333      -0.33333333      -0.02422298 </v>
   <v>      -0.33333333       0.33333333       0.47577702 </v>
   <v>      -0.41763405      -0.48449764       0.28259872 </v>
   <v>       0.00000000       0.00000000       0.45692726 </v>
   <v>       0.00000000       0.00000000      -0.04307274 </v>
   <v>       0.40739942       0.08582195      -0.00812732 </v>
   <v>       0.48449764       0.06686359       0.28259872 </v>
   <v>       0.41763405      -0.06686359      -0.21740128 </v>
   <v>      -0.40739942      -0.32157747       0.49187268 </v>
   <v>       0.21311138       0.30040483       0.46674092 </v>
   <v>      -0.21311138       0.08729345      -0.03325908 </v>
   <v>       0.30040483       0.21311138      -0.03325908 </v>
   <v>      -0.30040483      -0.08729345       0.46674092 </v>
   <v>      -0.48449764      -0.41763405      -0.21740128 </v>
   <v>       0.35287377       0.36135113       0.21326215 </v>
   <v>      -0.36135113      -0.00847736       0.21326215 </v>
   <v>      -0.35287377       0.00847736      -0.28673785 </v>
   <v>       0.36135113       0.35287377      -0.28673785 </v>
  </varray>
 </structure>
 <varray name="primitive_index" >
  <v type="int" >        1 </v>
  <v type="int" >       14 </v>
  <v type="int" >       23 </v>
  <v type="int" >       25 </v>
  <v type="int" >        9 </v>
  <v type="int" >        3 </v>
  <v type="int" >        5 </v>
  <v type="int" >       11 </v>
  <v type="int" >       18 </v>
  <v type="int" >        6 </v>
  <v type="int" >       24 </v>
  <v type="int" >       20 </v>
  <v type="int" >       21 </v>
  <v type="int" >       19 </v>
  <v type="int" >       17 </v>
  <v type="int" >       12 </v>
  <v type="int" >       28 </v>
  <v type="int" >       26 </v>
  <v type="int" >        8 </v>
  <v type="int" >       13 </v>
  <v type="int" >       22 </v>
  <v type="int" >       15 </v>
  <v type="int" >       16 </v>
  <v type="int" >       27 </v>
  <v type="int" >        7 </v>
  <v type="int" >        2 </v>
  <v type="int" >        4 </v>
  <v type="int" >       10 </v>
 </varray>
 <kpoints>
  <generation param="Auto">
   <i name="subdivisionlength">     45.00000000 </i>
   <v type="int" name="divisions">       6        6        9 </v>
   <v name="usershift">      0.00000000       0.00000000       0.00000000 </v>
   <v name="genvec1">      0.16666667      -0.00000000       0.00000000 </v>
   <v name="genvec2">     -0.00000000       0.16666667       0.00000000 </v>
   <v name="genvec3">      0.00000000       0.00000000       0.11111111 </v>
   <v name="shift">      0.00000000       0.00000000       0.00000000 </v>
  </generation>
  <varray name="kpointlist" >
   <v>       0.00000000       0.00000000       0.00000000 </v>
   <v>       0.16666667       0.00000000       0.00000000 </v>
   <v>       0.33333333       0.00000000       0.00000000 </v>
   <v>       0.50000000       0.00000000       0.00000000 </v>
   <v>       0.16666667       0.16666667       0.00000000 </v>
   <v>       0.33333333       0.16666667       0.00000000 </v>
   <v>       0.33333333       0.33333333       0.00000000 </v>
   <v>       0.00000000       0.00000000       0.11111111 </v>
   <v>       0.16666667       0.00000000       0.11111111 </v>
   <v>       0.33333333       0.00000000       0.11111111 </v>
   <v>       0.50000000       0.00000000       0.11111111 </v>
   <v>       0.16666667       0.16666667       0.11111111 </v>
   <v>       0.33333333       0.16666667       0.11111111 </v>
   <v>       0.33333333       0.33333333       0.11111111 </v>
   <v>      -0.16666667       0.33333333       0.11111111 </v>
   <v>      -0.33333333       0.50000000       0.11111111 </v>
   <v>      -0.33333333      -0.33333333       0.11111111 </v>
   <v>       0.00000000       0.00000000       0.22222222 </v>
   <v>       0.16666667       0.00000000       0.22222222 </v>
   <v>       0.33333333       0.00000000       0.22222222 </v>
   <v>       0.50000000       0.00000000       0.22222222 </v>
   <v>       0.16666667       0.16666667       0.22222222 </v>
   <v>       0.33333333       0.16666667       0.22222222 </v>
   <v>       0.33333333       0.33333333       0.22222222 </v>
   <v>      -0.16666667       0.33333333       0.22222222 </v>
   <v>      -0.33333333       0.50000000       0.22222222 </v>
   <v>      -0.33333333      -0.33333333       0.22222222 </v>
   <v>       0.00000000       0.00000000       0.33333333 </v>
   <v>       0.16666667       0.00000000       0.33333333 </v>
   <v>       0.33333333       0.00000000       0.33333333 </v>
   <v>       0.50000000       0.00000000       0.33333333 </v>
   <v>       0.16666667       0.16666667       0.33333333 </v>
   <v>       0.33333333       0.16666667       0.33333333 </v>
   <v>       0.33333333       0.33333333       0.33333333 </v>
   <v>      -0.16666667       0.33333333       0.33333333 </v>
   <v>      -0.33333333       0.50000000       0.33333333 </v>
   <v>      -0.33333333      -0.33333333       0.33333333 </v>
   <v>       0.00000000       0.00000000       0.44444444 </v>
   <v>       0.16666667       0.00000000       0.44444444 </v>
   <v>       0.33333333       0.00000000       0.44444444 </v>
   <v>       0.50000000       0.00000000       0.44444444 </v>
   <v>       0.16666667       0.16666667       0.44444444 </v>
   <v>       0.33333333       0.16666667       0.44444444 </v>
   <v>       0.33333333       0.33333333       0.44444444 </v>
   <v>      -0.16666667       0.33333333       0.44444444 </v>
   <v>      -0.33333333       0.50000000       0.44444444 </v>
   <v>      -0.33333333      -0.33333333       0.44444444 </v>
  </varray>
  <varray name="weights" >
   <v>       0.00308642 </v>
   <v>       0.01851852 </v>
   <v>       0.01851852 </v>
   <v>       0.00925926 </v>
   <v>       0.01851852 </v>
   <v>       0.03703704 </v>
   <v>       0.00617284 </v>
   <v>       0.00617284 </v>
   <v>       0.03703704 </v>
   <v>       0.03703704 </v>
   <v>       0.01851852 </v>
   <v>       0.01851852 </v>
   <v>       0.03703704 </v>
   <v>       0.00617284 </v>
   <v>       0.01851852 </v>
   <v>       0.03703704 </v>
   <v>       0.00617284 </v>
   <v>       0.00617284 </v>
   <v>       0.03703704 </v>
   <v>       0.03703704 </v>
   <v>       0.01851852 </v>
   <v>       0.01851852 </v>
   <v>       0.03703704 </v>
   <v>       0.00617284 </v>
   <v>       0.01851852 </v>
   <v>       0.03703704 </v>
   <v>       0.00617284 </v>
   <v>       0.00617284 </v>
   <v>       0.03703704 </v>
   <v>       0.03703704 </v>
   <v>       0.01851852 </v>
   <v>       0.01851852 </v>
   <v>       0.03703704 </v>
   <v>       0.00617284 </v>
   <v>       0.01851852 </v>
   <v>       0.03703704 </v>
   <v>       0.00617284 </v>
   <v>       0.00617284 </v>
   <v>       0.03703704 </v>
   <v>       0.03703704 </v>
   <v>       0.01851852 </v>
   <v>       0.01851852 </v>
   <v>       0.03703704 </v>
   <v>       0.00617284 </v>
   <v>       0.01851852 </v>
   <v>       0.03703704 </v>
   <v>       0.00617284 </v>
  </varray>
 </kpoints>
 <parameters>
  <separator name="general" >
   <i type="string" name="SYSTEM">unknown system</i>
   <i type="logical" name="LCOMPAT"> F  </i>
  </separator>
  <separator name="electronic" >
   <i type="string" name="PREC">accura</i>
   <i name="ENMAX">    400.00000000</i>
   <i name="ENAUG">    627.11200000</i>
   <i name="EDIFF">      0.00010000</i>
   <i type="int" name="IALGO">    68</i>
   <i type="int" name="IWAVPR">    11</i>
   <i type="int" name="NBANDS">    80</i>
   <i name="NELECT">    124.00000000</i>
   <i type="int" name="TURBO">     0</i>
   <i type="int" name="IRESTART">     0</i>
   <i type="int" name="NREBOOT">     0</i>
   <i type="int" name="NMIN">     0</i>
   <i name="EREF">      0.00000000</i>
   <separator name="electronic smearing" >
    <i type="int" name="ISMEAR">     2</i>
    <i name="SIGMA">      0.10000000</i>
    <i name="KSPACING">      0.50000000</i>
    <i type="logical" name="KGAMMA"> T  </i>
   </separator>
   <separator name="electronic projectors" >
    <i type="logical" name="LREAL"> T  </i>
    <v name="ROPT">     -0.00025000     -0.00025000</v>
    <i type="int" name="LMAXPAW">  -100</i>
    <i type="int" name="LMAXMIX">     2</i>
    <i type="logical" name="NLSPLINE"> F  </i>
   </separator>
   <separator name="electronic startup" >
    <i type="int" name="ISTART">     0</i>
    <i type="int" name="ICHARG">     2</i>
    <i type="int" name="INIWAV">     1</i>
   </separator>
   <separator name="electronic spin" >
    <i type="int" name="ISPIN">     1</i>
    <i type="logical" name="LNONCOLLINEAR"> F  </i>
    <v name="MAGMOM">      1.00000000      1.00000000      1.00000000      1.00000000      1.00000000      1.00000000      1.00000000      1.00000000      1.00000000      1.00000000      1.00000000      1.00000000      1.00000000      1.00000000      1.00000000      1.00000000      1.00000000      1.00000000      1.00000000      1.00000000
      1.00000000      1.00000000      1.00000000      1.00000000      1.00000000      1.00000000      1.00000000      1.00000000</v>
    <i name="NUPDOWN">     -1.00000000</i>
    <i type="logical" name="LSORBIT"> F  </i>
    <v name="SAXIS">      0.00000000      0.00000000      1.00000000</v>
    <i type="logical" name="LSPIRAL"> F  </i>
    <v name="QSPIRAL">      0.00000000      0.00000000      0.00000000</v>
    <i type="logical" name="LZEROZ"> F  </i>
   </separator>
   <separator name="electronic exchange-correlation" >
    <i type="logical" name="LASPH"> F  </i>
    <i type="logical" name="LMETAGGA"> F  </i>
   </separator>
   <separator name="electronic convergence" >
    <i type="int" name="NELM">    60</i>
    <i type="int" name="NELMDL">    -5</i>
    <i type="int" name="NELMIN">     2</i>
    <i name="ENINI">    400.00000000</i>
    <separator name="electronic convergence detail" >
     <i type="logical" name="LDIAG"> T  </i>
     <i type="logical" name="LSUBROT"> F  </i>
     <i name="WEIMIN">      0.00100000</i>
     <i name="EBREAK">      0.00000031</i>
     <i name="DEPER">      0.30000000</i>
     <i type="int" name="NRMM">     4</i>
     <i name="TIME">      0.40000000</i>
    </separator>
   </separator>
   <separator name="electronic mixer" >
    <i name="AMIX">      0.40000000</i>
    <i name="BMIX">      1.00000000</i>
    <i name="AMIN">      0.10000000</i>
    <i name="AMIX_MAG">      1.60000000</i>
    <i name="BMIX_MAG">      1.00000000</i>
    <separator name="electronic mixer details" >
     <i type="int" name="IMIX">     4</i>
     <i type="logical" name="MIXFIRST"> F  </i>
     <i type="int" name="MAXMIX">   -45</i>
     <i name="WC">    100.00000000</i>
     <i type="int" name="INIMIX">     1</i>
     <i type="int" name="MIXPRE">     1</i>
     <i type="int" name="MREMOVE">     5</i>
    </separator>
   </separator>
   <separator name="electronic dipolcorrection" >
    <i type="logical" name="LDIPOL"> F  </i>
    <i type="logical" name="LMONO"> F  </i>
    <i type="int" name="IDIPOL">     0</i>
    <i name="EPSILON">      1.00000000</i>
    <v name="DIPOL">   -100.00000000   -100.00000000   -100.00000000</v>
    <i name="EFIELD">      0.00000000</i>
   </separator>
  </separator>
  <separator name="grids" >
   <i type="int" name="NGX">    54</i>
   <i type="int" name="NGY">    54</i>
   <i type="int" name="NGZ">    36</i>
   <i type="int" name="NGXF">   108</i>
   <i type="int" name="NGYF">   108</i>
   <i type="int" name="NGZF">    72</i>
   <i type="logical" name="ADDGRID"> F  </i>
  </separator>
  <separator name="ionic" >
   <i type="int" name="NSW">   100</i>
   <i type="int" name="IBRION">     2</i>
   <i type="int" name="MDALGO">     0</i>
   <i type="int" name="ISIF">     2</i>
   <i name="PSTRESS">      0.00000000</i>
   <i name="EDIFFG">      0.00100000</i>
   <i type="int" name="NFREE">     1</i>
   <i name="POTIM">      0.50000000</i>
   <i name="SMASS">     -3.00000000</i>
   <i name="SCALEE">      1.00000000</i>
  </separator>
  <separator name="ionic md" >
   <i name="TEBEG">      0.00010000</i>
   <i name="TEEND">      0.00010000</i>
   <i type="int" name="NBLOCK">     1</i>
   <i type="int" name="KBLOCK">   100</i>
   <i type="int" name="NPACO">   256</i>
   <i name="APACO">     16.00000000</i>
  </separator>
  <separator name="symmetry" >
   <i type="int" name="ISYM">     2</i>
   <i name="SYMPREC">      0.00001000</i>
  </separator>
  <separator name="dos" >
   <i type="int" name="LORBIT">     0</i>
   <v name="RWIGS">     -1.00000000     -1.00000000</v>
   <i type="int" name="NEDOS">   301</i>
   <i name="EMIN">     10.00000000</i>
   <i name="EMAX">    -10.00000000</i>
   <i name="EFERMI">      0.00000000</i>
  </separator>
  <separator name="writing" >
   <i type="int" name="NWRITE">     2</i>
   <i type="logical" name="LWAVE"> F  </i>
   <i type="logical" name="LDOWNSAMPLE"> F  </i>
   <i type="logical" name="LCHARG"> F  </i>
   <i type="logical" name="LPARD"> F  </i>
   <i type="logical" name="LVTOT"> F  </i>
   <i type="logical" name="LVHAR"> F  </i>
   <i type="logical" name="LELF"> F  </i>
   <i type="logical" name="LOPTICS"> F  </i>
   <v name="STM">      0.00000000      0.00000000      0.00000000      0.00000000      0.00000000      0.00000000      0.00000000</v>
  </separator>
  <separator name="performance" >
   <i type="int" name="NPAR">     4</i>
   <i type="int" name="NSIM">     4</i>
   <i type="int" name="NBLK">    -1</i>
   <i type="logical" name="LPLANE"> T  </i>
   <i type="logical" name="LSCALAPACK"> F  </i>
   <i type="logical" name="LSCAAWARE"> F  </i>
   <i type="logical" name="LSCALU"> F  </i>
   <i type="logical" name="LASYNC"> F  </i>
   <i type="logical" name="LORBITALREAL"> F  </i>
  </separator>
  <separator name="miscellaneous" >
   <i type="int" name="IDIOT">     3</i>
   <i type="int" name="ISPECIAL">     0</i>
   <i type="logical" name="LMUSIC"> F  </i>
   <v name="POMASS">     14.00100000     28.08500000</v>
   <v name="DARWINR">      0.00000000      0.00000000</v>
   <v name="DARWINV">      1.00000000      1.00000000</v>
   <i type="logical" name="LCORR"> T  </i>
  </separator>
  <i type="logical" name="GGA_COMPAT"> T  </i>
  <i type="logical" name="LBERRY"> F  </i>
  <i type="int" name="ICORELEVEL">     0</i>
  <i type="logical" name="LDAU"> F  </i>
  <i type="int" name="I_CONSTRAINED_M">     0</i>
  <separator name="electronic exchange-correlation" >
   <i type="string" name="GGA">--</i>
   <i type="int" name="VOSKOWN">     0</i>
   <i type="logical" name="LHFCALC"> F  </i>
   <i type="string" name="PRECFOCK"></i>
   <i type="logical" name="LSYMGRAD"> F  </i>
   <i type="logical" name="LHFONE"> F  </i>
   <i type="logical" name="LRHFCALC"> F  </i>
   <i type="logical" name="LTHOMAS"> F  </i>
   <i type="logical" name="LMODELHF"> F  </i>
   <i name="ENCUT4O">     -1.00000000</i>
   <i type="int" name="EXXOEP">     0</i>
   <i type="int" name="FOURORBIT">     0</i>
   <i name="AEXX">      0.00000000</i>
   <i name="HFALPHA">      0.00000000</i>
   <i name="MCALPHA">      0.00000000</i>
   <i name="ALDAX">      1.00000000</i>
   <i name="AGGAX">      1.00000000</i>
   <i name="ALDAC">      1.00000000</i>
   <i name="AGGAC">      1.00000000</i>
   <i type="int" name="NKREDX">     1</i>
   <i type="int" name="NKREDY">     1</i>
   <i type="int" name="NKREDZ">     1</i>
   <i type="logical" name="SHIFTRED"> F  </i>
   <i type="logical" name="ODDONLY"> F  </i>
   <i type="logical" name="EVENONLY"> F  </i>
   <i type="int" name="LMAXFOCK">     0</i>
   <i type="int" name="NMAXFOCKAE">     0</i>
   <i type="logical" name="LFOCKAEDFT"> F  </i>
   <i name="HFSCREEN">      0.00000000</i>
   <i name="HFSCREENC">      0.00000000</i>
   <i type="int" name="NBANDSGWLOW">     0</i>
  </separator>
  <separator name="vdW DFT" >
   <i type="logical" name="LUSE_VDW"> F  </i>
   <i name="Zab_VDW">     -0.84910000</i>
   <i name="PARAM1">      0.12340000</i>
   <i name="PARAM2">      1.00000000</i>
   <i name="PARAM3">      0.00000000</i>
  </separator>
  <separator name="model GW" >
   <i type="int" name="MODEL_GW">     0</i>
   <i name="MODEL_EPS0">      6.35652178</i>
   <i name="MODEL_ALPHA">      1.00000000</i>
  </separator>
  <separator name="linear response parameters" >
   <i type="logical" name="LEPSILON"> F  </i>
   <i type="logical" name="LRPA"> F  </i>
   <i type="logical" name="LNABLA"> F  </i>
   <i type="logical" name="LVEL"> F  </i>
   <i type="int" name="KINTER">     0</i>
   <i name="CSHIFT">      0.10000000</i>
   <i name="OMEGAMAX">     -1.00000000</i>
   <i name="DEG_THRESHOLD">      0.00200000</i>
   <i name="RTIME">     -0.10000000</i>
   <i name="WPLASMAI">      0.00000000</i>
   <v name="DFIELD">      0.00000000      0.00000000      0.00000000</v>
   <v name="WPLASMA">      0.00000000      0.00000000      0.00000000      0.00000000      0.00000000      0.00000000      0.00000000      0.00000000      0.00000000</v>
  </separator>
  <separator name="orbital magnetization" >
   <i type="logical" name="NUCIND"> F  </i>
   <v name="MAGPOS">      0.00000000      0.00000000      0.00000000</v>
   <i type="logical" name="LNICSALL"> T  </i>
   <i type="logical" name="ORBITALMAG"> F  </i>
   <i type="logical" name="LMAGBLOCH"> F  </i>
   <i type="logical" name="LCHIMAG"> F  </i>
   <i type="logical" name="LGAUGE"> T  </i>
   <i type="int" name="MAGATOM">     0</i>
   <v name="MAGDIPOL">      0.00000000      0.00000000      0.00000000</v>
   <v name="AVECCONST">      0.00000000      0.00000000      0.00000000</v>
  </separator>
  <separator name="response functions" >
   <i type="logical" name="LADDER"> F  </i>
   <i type="logical" name="LRPAFORCE"> F  </i>
   <i type="logical" name="LFXC"> F  </i>
   <i type="logical" name="LHARTREE"> T  </i>
   <i type="int" name="IBSE">     0</i>
   <v type="int" name="KPOINT">    -1     0     0     0</v>
   <i type="logical" name="LTCTE"> F  </i>
   <i type="logical" name="LTETE"> F  </i>
   <i type="logical" name="LTRIPLET"> F  </i>
   <i type="logical" name="LFXCEPS"> F  </i>
   <i type="logical" name="LFXHEG"> F  </i>
   <i type="int" name="NATURALO">     2</i>
   <i type="logical" name="L2ORDER"> F  </i>
   <i type="logical" name="LMP2LT"> F  </i>
   <i type="logical" name="LUSEW"> F  </i>
   <i name="ENCUTGW">     -2.00000000</i>
   <i name="ENCUTGWSOFT">     -2.00000000</i>
   <i name="ENCUTLF">     -1.00000000</i>
   <i type="int" name="LMAXMP2">    -1</i>
   <i name="SCISSOR">      0.00000000</i>
   <i type="int" name="NOMEGA">     0</i>
   <i type="int" name="NOMEGAR">     0</i>
   <i type="int" name="NBANDSGW">    -1</i>
   <i type="int" name="NBANDSO">    -1</i>
   <i type="int" name="NBANDSV">    -1</i>
   <i type="int" name="NELM">     1</i>
   <i type="int" name="NELMHF">     1</i>
   <i type="int" name="DIM">     3</i>
   <i type="int" name="ANTIRES">     0</i>
   <i name="OMEGAMAX">    -30.00000000</i>
   <i name="OMEGAMIN">    -30.00000000</i>
   <i name="OMEGATL">   -200.00000000</i>
   <i type="int" name="OMEGAGRID">   140</i>
   <i name="CSHIFT">     -0.10000000</i>
   <i type="logical" name="SELFENERGY"> F  </i>
   <i type="logical" name="LSPECTRAL"> F  </i>
   <i type="logical" name="LSPECTRALGW"> F  </i>
   <i type="logical" name="LSINGLES"> F  </i>
   <i type="logical" name="LFERMIGW"> F  </i>
   <i type="logical" name="ODDONLYGW"> F  </i>
   <i type="logical" name="EVENONLYGW"> F  </i>
   <i type="int" name="NKREDLFX">     1</i>
   <i type="int" name="NKREDLFY">     1</i>
   <i type="int" name="NKREDLFZ">     1</i>
   <i type="int" name="MAXMEM">  2800</i>
   <i type="int" name="TELESCOPE">     0</i>
   <i type="int" name="TAUPAR">     1</i>
   <i type="int" name="OMEGAPAR">    -1</i>
   <i name="LAMBDA">      1.00000000</i>
  </separator>
  <separator name="External order field" >
   <i name="OFIELD_KAPPA">      0.00000000</i>
   <v name="OFIELD_K">      0.00000000      0.00000000      0.00000000</v>
   <i name="OFIELD_Q6_NEAR">      0.00000000</i>
   <i name="OFIELD_Q6_FAR">      0.00000000</i>
   <i name="OFIELD_A">      0.00000000</i>
  </separator>
 </parameters>
 <atominfo>
  <atoms>      28 </atoms>
  <types>       2 </types>
  <array name="atoms" >
   <dimension dim="1">ion</dimension>
   <field type="string">element</field>
   <field type="int">atomtype</field>
   <set>
    <rc><c>N </c><c>   1</c></rc>
    <rc><c>N </c><c>   1</c></rc>
    <rc><c>N </c><c>   1</c></rc>
    <rc><c>N </c><c>   1</c></rc>
    <rc><c>N </c><c>   1</c></rc>
    <rc><c>N </c><c>   1</c></rc>
    <rc><c>N </c><c>   1</c></rc>
    <rc><c>N </c><c>   1</c></rc>
    <rc><c>N </c><c>   1</c></rc>
    <rc><c>N </c><c>   1</c></rc>
    <rc><c>N </c><c>   1</c></rc>
    <rc><c>N </c><c>   1</c></rc>
    <rc><c>Si</c><c>   2</c></rc>
    <rc><c>Si</c><c>   2</c></rc>
    <rc><c>Si</c><c>   2</c></rc>
    <rc><c>Si</c><c>   2</c></rc>
    <rc><c>Si</c><c>   2</c></rc>
    <rc><c>Si</c><c>   2</c></rc>
    <rc><c>Si</c><c>   2</c></rc>
    <rc><c>Si</c><c>   2</c></rc>
    <rc><c>Si</c><c>   2</c></rc>
    <rc><c>Si</c><c>   2</c></rc>
    <rc><c>Si</c><c>   2</c></rc>
    <rc><c>Si</c><c>   2</c></rc>
    <rc><c>Si</c><c>   2</c></rc>
    <rc><c>Si</c><c>   2</c></rc>
    <rc><c>Si</c><c>   2</c></rc>
    <rc><c>Si</c><c>   2</c></rc>
   </set>
  </array>
  <array name="atomtypes" >
   <dimension dim="1">type</dimension>
   <field type="int">atomspertype</field>
   <field type="string">element</field>
   <field>mass</field>
   <field>valence</field>
   <field type="string">pseudopotential</field>
   <set>
    <rc><c>  12</c><c>N </c><c>     14.00100000</c><c>      5.00000000</c><c>  PAW_PBE N 08Apr2002                   </c></rc>
    <rc><c>  16</c><c>Si</c><c>     28.08500000</c><c>      4.00000000</c><c>  PAW_PBE Si 05Jan2001                  </c></rc>
   </set>
  </array>
 </atominfo>
 <structure name="initialpos" >
  <crystal>
   <varray name="basis" >
    <v>       4.05794073      -7.02855952       0.00000000 </v>
    <v>       4.05794073       7.02855952       0.00000000 </v>
    <v>       0.00000000       0.00000000       5.20025091 </v>
   </varray>
   <i name="volume">    296.63768305 </i>
   <varray name="rec_basis" >
    <v>       0.12321521      -0.07113833       0.00000000 </v>
    <v>       0.12321521       0.07113833       0.00000000 </v>
    <v>       0.00000000       0.00000000       0.19229841 </v>
   </varray>
  </crystal>
  <varray name="positions" >
   <v>       0.00847736       0.64712623       0.21326215 </v>
   <v>       0.63864887       0.99152264       0.21326215 </v>
   <v>       0.91417805       0.32157747       0.99187268 </v>
   <v>       0.64712623       0.00847736       0.71326215 </v>
   <v>       0.08582195       0.40739942       0.49187268 </v>
   <v>       0.32157747       0.91417805       0.49187268 </v>
   <v>       0.35287377       0.36135113       0.21326215 </v>
   <v>       0.59260058       0.67842253       0.49187268 </v>
   <v>       0.99152264       0.63864887       0.71326215 </v>
   <v>       0.36135113       0.35287377       0.71326215 </v>
   <v>       0.67842253       0.59260058       0.99187268 </v>
   <v>       0.40739942       0.08582195       0.99187268 </v>
   <v>       0.21311138       0.30040483       0.46674092 </v>
   <v>       0.08729345       0.78688862       0.46674092 </v>
   <v>       0.30040483       0.21311138       0.96674092 </v>
   <v>       0.69959517       0.91270655       0.46674092 </v>
   <v>       0.00000000       0.00000000       0.95692726 </v>
   <v>       0.06686359       0.48449764       0.78259872 </v>
   <v>       0.00000000       0.00000000       0.45692726 </v>
   <v>       0.66666667       0.33333333       0.47577702 </v>
   <v>       0.58236595       0.51550236       0.28259872 </v>
   <v>       0.78688862       0.08729345       0.96674092 </v>
   <v>       0.91270655       0.69959517       0.96674092 </v>
   <v>       0.33333333       0.66666667       0.97577702 </v>
   <v>       0.93313641       0.41763405       0.28259872 </v>
   <v>       0.41763405       0.93313641       0.78259872 </v>
   <v>       0.51550236       0.58236595       0.78259872 </v>
   <v>       0.48449764       0.06686359       0.28259872 </v>
  </varray>
 </structure>
 <calculation>
  <scstep>
   <time name="dav">    6.27    6.28</time>
   <time name="total">    6.32    6.33</time>
   <energy>
    <i name="alphaZ">    164.38274471 </i>
    <i name="ewald">  -4464.24260395 </i>
    <i name="hartreedc">  -1001.93165842 </i>
    <i name="XCdc">    109.79844168 </i>
    <i name="pawpsdc">   3869.17357318 </i>
    <i name="pawaedc">  -3601.97287308 </i>
    <i name="eentropy">      0.00185717 </i>
    <i name="bandstr">    594.91562389 </i>
    <i name="atom">   4822.75196862 </i>
    <i name="e_fr_energy">    492.87707380 </i>
    <i name="e_wo_entrp">    492.87521663 </i>
    <i name="e_0_energy">    492.87660951 </i>
   </energy>
  </scstep>
  <scstep>
   <time name="dav">    7.91    7.91</time>
   <time name="total">    7.91    7.92</time>
   <energy>
    <i name="e_fr_energy">   -176.42488511 </i>
    <i name="e_wo_entrp">   -176.42974383 </i>
    <i name="e_0_energy">   -176.42609979 </i>
   </energy>
  </scstep>
  <scstep>
   <time name="dav">    7.40    7.41</time>
   <time name="total">    7.41    7.41</time>
   <energy>
    <i name="e_fr_energy">   -222.76968762 </i>
    <i name="e_wo_entrp">   -222.75559744 </i>
    <i name="e_0_energy">   -222.76616508 </i>
   </energy>
  </scstep>
  <scstep>
   <time name="dav">    8.31    8.31</time>
   <time name="total">    8.31    8.31</time>
   <energy>
    <i name="e_fr_energy">   -223.63401060 </i>
    <i name="e_wo_entrp">   -223.61863039 </i>
    <i name="e_0_energy">   -223.63016555 </i>
   </energy>
  </scstep>
  <scstep>
   <time name="dav">    7.41    7.42</time>
   <time name="total">    7.74    7.75</time>
   <energy>
    <i name="e_fr_energy">   -223.65205247 </i>
    <i name="e_wo_entrp">   -223.63647662 </i>
    <i name="e_0_energy">   -223.64815851 </i>
   </energy>
  </scstep>
  <scstep>
   <time name="diag">    0.91    0.91</time>
   <time name="diis">    3.97    3.98</time>
   <time name="orth">    0.08    0.08</time>
   <time name="total">    5.35    5.35</time>
   <energy>
    <i name="e_fr_energy">   -195.02345671 </i>
    <i name="e_wo_entrp">   -195.02086910 </i>
    <i name="e_0_energy">   -195.02280981 </i>
   </energy>
  </scstep>
  <scstep>
   <time name="diag">    0.89    0.89</time>
   <time name="diis">    4.09    4.09</time>
   <time name="orth">    0.08    0.08</time>
   <time name="total">    5.43    5.43</time>
   <energy>
    <i name="e_fr_energy">   -194.04661643 </i>
    <i name="e_wo_entrp">   -194.04449860 </i>
    <i name="e_0_energy">   -194.04608697 </i>
   </energy>
  </scstep>
  <scstep>
   <time name="diag">    1.01    1.01</time>
   <time name="diis">    3.87    3.87</time>
   <time name="orth">    0.08    0.08</time>
   <time name="total">    5.33    5.34</time>
   <energy>
    <i name="e_fr_energy">   -193.81895351 </i>
    <i name="e_wo_entrp">   -193.81596056 </i>
    <i name="e_0_energy">   -193.81820527 </i>
   </energy>
  </scstep>
  <scstep>
   <time name="diag">    0.89    0.89</time>
   <time name="diis">    3.99    3.99</time>
   <time name="orth">    0.09    0.09</time>
   <time name="total">    5.33    5.34</time>
   <energy>
    <i name="e_fr_energy">   -193.79042419 </i>
    <i name="e_wo_entrp">   -193.78776423 </i>
    <i name="e_0_energy">   -193.78975920 </i>
   </energy>
  </scstep>
  <scstep>
   <time name="diag">    1.04    1.18</time>
   <time name="diis">    4.07    4.07</time>
   <time name="orth">    0.08    0.08</time>
   <time name="total">    5.57    5.71</time>
   <energy>
    <i name="e_fr_energy">   -193.79140957 </i>
    <i name="e_wo_entrp">   -193.78883470 </i>
    <i name="e_0_energy">   -193.79076586 </i>
   </energy>
  </scstep>
  <scstep>
   <time name="diag">    0.92    0.92</time>
   <time name="diis">    4.03    4.03</time>
   <time name="orth">    0.08    0.08</time>
   <time name="total">    5.80    5.80</time>
   <energy>
    <i name="e_fr_energy">   -193.79042136 </i>
    <i name="e_wo_entrp">   -193.78778664 </i>
    <i name="e_0_energy">   -193.78976268 </i>
   </energy>
  </scstep>
  <scstep>
   <time name="diag">    0.91    0.91</time>
   <time name="diis">    3.86    3.86</time>
   <time name="orth">    0.08    0.08</time>
   <time name="total">    5.22    5.22</time>
   <energy>
    <i name="e_fr_energy">   -193.79064297 </i>
    <i name="e_wo_entrp">   -193.78798667 </i>
    <i name="e_0_energy">   -193.78997890 </i>
   </energy>
  </scstep>
  <scstep>
   <time name="diag">    0.91    0.91</time>
   <time name="diis">    2.73    2.74</time>
   <time name="orth">    0.08    0.08</time>
   <time name="total">    3.77    3.78</time>
   <energy>
    <i name="alphaZ">    164.38274471 </i>
    <i name="ewald">  -4464.24260395 </i>
    <i name="hartreedc">  -1246.01262144 </i>
    <i name="XCdc">    129.74911905 </i>
    <i name="pawpsdc">  25573.26155628 </i>
    <i name="pawaedc"> -25313.17002837 </i>
    <i name="eentropy">     -0.00264106 </i>
    <i name="bandstr">    139.49194235 </i>
    <i name="atom">   4822.75196862 </i>
    <i name="e_fr_energy">   -193.79056380 </i>
    <i name="e_wo_entrp">   -193.78792275 </i>
    <i name="e_0_energy">   -193.78990354 </i>
   </energy>
  </scstep>
  <structure>
   <crystal>
    <varray name="basis" >
     <v>       4.05794073      -7.02855952       0.00000000 </v>
     <v>       4.05794073       7.02855952       0.00000000 </v>
     <v>       0.00000000       0.00000000       5.20025091 </v>
    </varray>
    <i name="volume">    296.63768305 </i>
    <varray name="rec_basis" >
     <v>       0.12321521      -0.07113833       0.00000000 </v>
     <v>       0.12321521       0.07113833       0.00000000 </v>
     <v>       0.00000000       0.00000000       0.19229841 </v>
    </varray>
   </crystal>
   <varray name="positions" >
    <v>       0.00847736       0.64712623       0.21326215 </v>
    <v>       0.63864887       0.99152264       0.21326215 </v>
    <v>       0.91417805       0.32157747       0.99187268 </v>
    <v>       0.64712623       0.00847736       0.71326215 </v>
    <v>       0.08582195       0.40739942       0.49187268 </v>
    <v>       0.32157747       0.91417805       0.49187268 </v>
    <v>       0.35287377       0.36135113       0.21326215 </v>
    <v>       0.59260058       0.67842253       0.49187268 </v>
    <v>       0.99152264       0.63864887       0.71326215 </v>
    <v>       0.36135113       0.35287377       0.71326215 </v>
    <v>       0.67842253       0.59260058       0.99187268 </v>
    <v>       0.40739942       0.08582195       0.99187268 </v>
    <v>       0.21311138       0.30040483       0.46674092 </v>
    <v>       0.08729345       0.78688862       0.46674092 </v>
    <v>       0.30040483       0.21311138       0.96674092 </v>
    <v>       0.69959517       0.91270655       0.46674092 </v>
    <v>       0.00000000       0.00000000       0.95692726 </v>
    <v>       0.06686359       0.48449764       0.78259872 </v>
    <v>       0.00000000       0.00000000       0.45692726 </v>
    <v>       0.66666667       0.33333333       0.47577702 </v>
    <v>       0.58236595       0.51550236       0.28259872 </v>
    <v>       0.78688862       0.08729345       0.96674092 </v>
    <v>       0.91270655       0.69959517       0.96674092 </v>
    <v>       0.33333333       0.66666667       0.97577702 </v>
    <v>       0.93313641       0.41763405       0.28259872 </v>
    <v>       0.41763405       0.93313641       0.78259872 </v>
    <v>       0.51550236       0.58236595       0.78259872 </v>
    <v>       0.48449764       0.06686359       0.28259872 </v>
   </varray>
  </structure>
  <varray name="forces" >
   <v>       0.46156653      -0.54232513      -0.56639289 </v>
   <v>      -0.70045061      -0.12856578      -0.56639289 </v>
   <v>      -0.25171996       0.27654354      -0.41729678 </v>
   <v>       0.46156653       0.54232513      -0.56639289 </v>
   <v>       0.36535371      -0.07972411      -0.41729678 </v>
   <v>      -0.25171996      -0.27654354      -0.41729678 </v>
   <v>       0.23888407       0.67089091      -0.56639289 </v>
   <v>      -0.11363375       0.35626765      -0.41729678 </v>
   <v>      -0.70045061       0.12856578      -0.56639289 </v>
   <v>       0.23888407      -0.67089091      -0.56639289 </v>
   <v>      -0.11363375      -0.35626765      -0.41729678 </v>
   <v>       0.36535371       0.07972411      -0.41729678 </v>
   <v>      -1.00941854      -0.28114836      -0.03076253 </v>
   <v>       0.26122765       1.01475628      -0.03076253 </v>
   <v>      -1.00941854       0.28114836      -0.03076253 </v>
   <v>       0.74819090      -0.73360792      -0.03076253 </v>
   <v>      -0.00000000       0.00000000      -0.09495866 </v>
   <v>       0.31831300      -0.63128794       0.45538316 </v>
   <v>      -0.00000000       0.00000000      -0.09495866 </v>
   <v>      -0.00000000       0.00000000       1.77216577 </v>
   <v>       0.38755490      -0.59131111       0.45538316 </v>
   <v>       0.26122765      -1.01475628      -0.03076253 </v>
   <v>       0.74819090       0.73360792      -0.03076253 </v>
   <v>      -0.00000000       0.00000000       1.77216577 </v>
   <v>      -0.70586789      -0.03997683       0.45538316 </v>
   <v>      -0.70586789       0.03997683       0.45538316 </v>
   <v>       0.38755490       0.59131111       0.45538316 </v>
   <v>       0.31831300       0.63128794       0.45538316 </v>
  </varray>
  <varray name="stress" >
   <v>     460.69264559       0.00000000       0.00000000 </v>
   <v>       0.00000000     460.69264559       0.00000000 </v>
   <v>       0.00000000      -0.00000000     450.43820634 </v>
  </varray>
  <energy>
   <i name="e_fr_energy">   -193.79056380 </i>
   <i name="e_wo_entrp">   -193.78990354 </i>
   <i name="e_0_energy">     -0.00264106 </i>
  </energy>
  <time name="totalsc">   89.00   89.61</time>
 </calculation>
 <calculation>
  <scstep>
   <time name="dav">    6.92    6.92</time>
   <time name="total">    7.59    7.61</time>
   <energy>
    <i name="alphaZ">    164.38274471 </i>
    <i name="ewald">  -4519.51568971 </i>
    <i name="hartreedc">  -1211.73288898 </i>
    <i name="XCdc">    128.80299461 </i>
    <i name="pawpsdc">  25568.60739161 </i>
    <i name="pawaedc"> -25308.51620653 </i>
    <i name="eentropy">     -0.00350019 </i>
    <i name="bandstr">    160.97283347 </i>
    <i name="atom">   4822.75196862 </i>
    <i name="e_fr_energy">   -194.25035238 </i>
    <i name="e_wo_entrp">   -194.24685219 </i>
    <i name="e_0_energy">   -194.24947733 </i>
   </energy>
  </scstep>
  <scstep>
   <time name="diag">    0.90    0.91</time>
   <time name="diis">    4.02    4.03</time>
   <time name="orth">    0.08    0.08</time>
   <time name="total">    5.37    5.39</time>
   <energy>
    <i name="e_fr_energy">   -194.32061798 </i>
    <i name="e_wo_entrp">   -194.31745368 </i>
    <i name="e_0_energy">   -194.31982691 </i>
   </energy>
  </scstep>
  <scstep>
   <time name="diag">    0.92    0.92</time>
   <time name="diis">    4.13    4.14</time>
   <time name="orth">    0.09    0.09</time>
   <time name="total">    5.50    5.52</time>
   <energy>
    <i name="e_fr_energy">   -194.29715438 </i>
    <i name="e_wo_entrp">   -194.29411764 </i>
    <i name="e_0_energy">   -194.29639520 </i>
   </energy>
  </scstep>
  <scstep>
   <time name="diag">    0.92    0.92</time>
   <time name="diis">    4.03    4.04</time>
   <time name="orth">    0.08    0.08</time>
   <time name="total">    5.39    5.40</time>
   <energy>
    <i name="e_fr_energy">   -194.28941564 </i>
    <i name="e_wo_entrp">   -194.28653842 </i>
    <i name="e_0_energy">   -194.28869634 </i>
   </energy>
  </scstep>
  <scstep>
   <time name="diag">    0.91    0.91</time>
   <time name="diis">    4.06    4.07</time>
   <time name="orth">    0.08    0.08</time>
   <time name="total">    5.41    5.43</time>
   <energy>
    <i name="e_fr_energy">   -194.28960215 </i>
    <i name="e_wo_entrp">   -194.28675044 </i>
    <i name="e_0_energy">   -194.28888922 </i>
   </energy>
  </scstep>
  <scstep>
   <time name="diag">    0.91    0.91</time>
   <time name="diis">    3.08    3.08</time>
   <time name="orth">    0.08    0.08</time>
   <time name="total">    4.12    4.13</time>
   <energy>
    <i name="alphaZ">    164.38274471 </i>
    <i name="ewald">  -4519.51568971 </i>
    <i name="hartreedc">  -1205.45868888 </i>
    <i name="XCdc">    128.27925364 </i>
    <i name="pawpsdc">  24315.88279446 </i>
    <i name="pawaedc"> -24055.47363212 </i>
    <i name="eentropy">     -0.00286296 </i>
    <i name="bandstr">    154.86454089 </i>
    <i name="atom">   4822.75196862 </i>
    <i name="e_fr_energy">   -194.28957134 </i>
    <i name="e_wo_entrp">   -194.28670838 </i>
    <i name="e_0_energy">   -194.28885560 </i>
   </energy>
  </scstep>
  <structure>
   <crystal>
    <varray name="basis" >
     <v>       4.05794073      -7.02855952       0.00000000 </v>
     <v>       4.05794073       7.02855952       0.00000000 </v>
     <v>       0.00000000       0.00000000       5.20025091 </v>
    </varray>
    <i name="volume">    296.63768305 </i>
    <varray name="rec_basis" >
     <v>       0.12321521      -0.07113833       0.00000000 </v>
     <v>       0.12321521       0.07113833       0.00000000 </v>
     <v>       0.00000000       0.00000000       0.19229841 </v>
    </varray>
   </crystal>
   <varray name="positions" >
    <v>       0.01308222       0.64800868       0.20800773 </v>
    <v>       0.63492646       0.98691778       0.20800773 </v>
    <v>       0.91173270       0.32103026       0.98800142 </v>
    <v>       0.64800868       0.01308222       0.70800773 </v>
    <v>       0.08826730       0.40929756       0.48800142 </v>
    <v>       0.32103026       0.91173270       0.48800142 </v>
    <v>       0.35199132       0.36507354       0.20800773 </v>
    <v>       0.59070244       0.67896974       0.48800142 </v>
    <v>       0.98691778       0.63492646       0.70800773 </v>
    <v>       0.36507354       0.35199132       0.70800773 </v>
    <v>       0.67896974       0.59070244       0.98800142 </v>
    <v>       0.40929756       0.08826730       0.98800142 </v>
    <v>       0.20807604       0.29343974       0.46645553 </v>
    <v>       0.08536370       0.79192396       0.46645553 </v>
    <v>       0.29343974       0.20807604       0.96645553 </v>
    <v>       0.70656026       0.91463630       0.46645553 </v>
    <v>      -0.00000000      -0.00000000       0.95604633 </v>
    <v>       0.07092223       0.48422324       0.78682331 </v>
    <v>      -0.00000000      -0.00000000       0.45604633 </v>
    <v>       0.66666667       0.33333333       0.49221737 </v>
    <v>       0.58669899       0.51577676       0.28682331 </v>
    <v>       0.79192396       0.08536370       0.96645553 </v>
    <v>       0.91463630       0.70656026       0.96645553 </v>
    <v>       0.33333333       0.66666667       0.99221737 </v>
    <v>       0.92907777       0.41330101       0.28682331 </v>
    <v>       0.41330101       0.92907777       0.78682331 </v>
    <v>       0.51577676       0.58669899       0.78682331 </v>
    <v>       0.48422324       0.07092223       0.28682331 </v>
   </varray>
  </structure>
  <varray name="forces" >
   <v>       0.33366250      -0.02658752       0.01498030 </v>
   <v>      -0.18985672      -0.27566644       0.01498030 </v>
   <v>      -0.40488083       0.10116444       0.42690515 </v>
   <v>       0.33366250       0.02658752       0.01498030 </v>
   <v>       0.29005139      -0.30005487       0.42690515 </v>
   <v>      -0.40488083      -0.10116444       0.42690515 </v>
   <v>      -0.14380578       0.30225396       0.01498030 </v>
   <v>       0.11482944       0.40121931       0.42690515 </v>
   <v>      -0.18985672       0.27566644       0.01498030 </v>
   <v>      -0.14380578      -0.30225396       0.01498030 </v>
   <v>       0.11482944      -0.40121931       0.42690515 </v>
   <v>       0.29005139       0.30005487       0.42690515 </v>
   <v>       1.40011703      -0.15277226      -0.39938813 </v>
   <v>      -0.83236317      -1.13615079      -0.39938813 </v>
   <v>       1.40011703       0.15277226      -0.39938813 </v>
   <v>      -0.56775386       1.28892305      -0.39938813 </v>
   <v>       0.00000000      -0.00000000      -0.18191384 </v>
   <v>       0.60618854       0.20714234      -0.44094360 </v>
   <v>       0.00000000      -0.00000000      -0.18191384 </v>
   <v>       0.00000000      -0.00000000       1.37725264 </v>
   <v>      -0.48248480      -0.42140350      -0.44094360 </v>
   <v>      -0.83236317       1.13615079      -0.39938813 </v>
   <v>      -0.56775386      -1.28892305      -0.39938813 </v>
   <v>       0.00000000      -0.00000000       1.37725264 </v>
   <v>      -0.12370374       0.62854585      -0.44094360 </v>
   <v>      -0.12370374      -0.62854585      -0.44094360 </v>
   <v>      -0.48248480       0.42140350      -0.44094360 </v>
   <v>       0.60618854      -0.20714234      -0.44094360 </v>
  </varray>
  <varray name="stress" >
   <v>     432.08345333       0.00000000       0.00000000 </v>
   <v>       0.00000000     432.08345333      -0.00000000 </v>
   <v>       0.00000000       0.00000000     373.06254687 </v>
  </varray>
  <energy>
   <i name="e_fr_energy">   -194.28957134 </i>
   <i name="e_wo_entrp">   -194.28885560 </i>
   <i name="e_0_energy">     -0.00286296 </i>
  </energy>
  <time name="totalsc">   42.86   43.00</time>
 </calculation>
 <calculation>
  <scstep>
   <time name="dav">    6.84    6.84</time>
   <time name="total">    7.24    7.27</time>
   <energy>
    <i name="alphaZ">    164.38274471 </i>
    <i name="ewald">  -4512.73057810 </i>
    <i name="hartreedc">  -1209.64138068 </i>
    <i name="XCdc">    128.39610562 </i>
    <i name="pawpsdc">  24311.47334919 </i>
    <i name="pawaedc"> -24051.06385962 </i>
    <i name="eentropy">     -0.00300987 </i>
    <i name="bandstr">    152.13585888 </i>
    <i name="atom">   4822.75196862 </i>
    <i name="e_fr_energy">   -194.29880124 </i>
    <i name="e_wo_entrp">   -194.29579137 </i>
    <i name="e_0_energy">   -194.29804878 </i>
   </energy>
  </scstep>
  <scstep>
   <time name="diag">    0.90    0.90</time>
   <time name="diis">    3.93    3.93</time>
   <time name="orth">    0.08    0.08</time>
   <time name="total">    5.29    5.29</time>
   <energy>
    <i name="e_fr_energy">   -194.29996805 </i>
    <i name="e_wo_entrp">   -194.29693682 </i>
    <i name="e_0_energy">   -194.29921025 </i>
   </energy>
  </scstep>
  <scstep>
   <time name="diag">    0.90    0.90</time>
   <time name="diis">    6.84    6.84</time>
   <time name="orth">   22.09   22.10</time>
   <time name="total">   30.20   30.20</time>
   <energy>
    <i name="e_fr_energy">   -194.29951812 </i>
    <i name="e_wo_entrp">   -194.29648442 </i>
    <i name="e_0_energy">   -194.29875969 </i>
   </energy>
  </scstep>
  <scstep>
   <time name="diag">    0.92    0.92</time>
   <time name="diis">    3.07    3.07</time>
   <time name="orth">    0.08    0.08</time>
   <time name="total">    4.15    4.19</time>
   <energy>
    <i name="alphaZ">    164.38274471 </i>
    <i name="ewald">  -4512.73057810 </i>
    <i name="hartreedc">  -1210.54727868 </i>
    <i name="XCdc">    128.46800594 </i>
    <i name="pawpsdc">  24435.55114023 </i>
    <i name="pawaedc"> -24175.17784005 </i>
    <i name="eentropy">     -0.00304784 </i>
    <i name="bandstr">    153.00544681 </i>
    <i name="atom">   4822.75196862 </i>
    <i name="e_fr_energy">   -194.29943836 </i>
    <i name="e_wo_entrp">   -194.29639052 </i>
    <i name="e_0_energy">   -194.29867640 </i>
   </energy>
  </scstep>
  <structure>
   <crystal>
    <varray name="basis" >
     <v>       4.05794073      -7.02855952       0.00000000 </v>
     <v>       4.05794073       7.02855952       0.00000000 </v>
     <v>       0.00000000       0.00000000       5.20025091 </v>
    </varray>
    <i name="volume">    296.63768305 </i>
    <varray name="rec_basis" >
     <v>       0.12321521      -0.07113833       0.00000000 </v>
     <v>       0.12321521       0.07113833       0.00000000 </v>
     <v>       0.00000000       0.00000000       0.19229841 </v>
    </varray>
   </crystal>
   <varray name="positions" >
    <v>       0.01251655       0.64790028       0.20865320 </v>
    <v>       0.63538373       0.98748345       0.20865320 </v>
    <v>       0.91203310       0.32109748       0.98847698 </v>
    <v>       0.64790028       0.01251655       0.70865320 </v>
    <v>       0.08796690       0.40906438       0.48847698 </v>
    <v>       0.32109748       0.91203310       0.48847698 </v>
    <v>       0.35209972       0.36461627       0.20865320 </v>
    <v>       0.59093562       0.67890252       0.48847698 </v>
    <v>       0.98748345       0.63538373       0.70865320 </v>
    <v>       0.36461627       0.35209972       0.70865320 </v>
    <v>       0.67890252       0.59093562       0.98847698 </v>
    <v>       0.40906438       0.08796690       0.98847698 </v>
    <v>       0.20869460       0.29429535       0.46649059 </v>
    <v>       0.08560076       0.79130540       0.46649059 </v>
    <v>       0.29429535       0.20869460       0.96649059 </v>
    <v>       0.70570465       0.91439924       0.46649059 </v>
    <v>      -0.00000000      -0.00000000       0.95615455 </v>
    <v>       0.07042366       0.48425695       0.78630435 </v>
    <v>      -0.00000000      -0.00000000       0.45615455 </v>
    <v>       0.66666667       0.33333333       0.49019779 </v>
    <v>       0.58616671       0.51574305       0.28630435 </v>
    <v>       0.79130540       0.08560076       0.96649059 </v>
    <v>       0.91439924       0.70570465       0.96649059 </v>
    <v>       0.33333333       0.66666667       0.99019779 </v>
    <v>       0.92957634       0.41383329       0.28630435 </v>
    <v>       0.41383329       0.92957634       0.78630435 </v>
    <v>       0.51574305       0.58616671       0.78630435 </v>
    <v>       0.48425695       0.07042366       0.28630435 </v>
   </varray>
  </structure>
  <varray name="forces" >
   <v>       0.34916733      -0.09646425      -0.05252157 </v>
   <v>      -0.25812416      -0.25415565      -0.05252157 </v>
   <v>      -0.38404085       0.12439389       0.33306529 </v>
   <v>       0.34916733       0.09646425      -0.05252157 </v>
   <v>       0.29974869      -0.27039219       0.33306529 </v>
   <v>      -0.38404085      -0.12439389       0.33306529 </v>
   <v>      -0.09104317       0.35061990      -0.05252157 </v>
   <v>       0.08429216       0.39478608       0.33306529 </v>
   <v>      -0.25812416       0.25415565      -0.05252157 </v>
   <v>      -0.09104317      -0.35061990      -0.05252157 </v>
   <v>       0.08429216      -0.39478608       0.33306529 </v>
   <v>       0.29974869       0.27039219       0.33306529 </v>
   <v>       1.09627300      -0.18047068      -0.36058272 </v>
   <v>      -0.70442869      -0.85916493      -0.36058272 </v>
   <v>       1.09627300       0.18047068      -0.36058272 </v>
   <v>      -0.39184431       1.03963561      -0.36058272 </v>
   <v>      -0.00000000      -0.00000000      -0.16983854 </v>
   <v>       0.57452885       0.11064496      -0.33894600 </v>
   <v>      -0.00000000      -0.00000000      -0.16983854 </v>
   <v>      -0.00000000      -0.00000000       1.42679354 </v>
   <v>      -0.38308577      -0.44223410      -0.33894600 </v>
   <v>      -0.70442869       0.85916493      -0.36058272 </v>
   <v>      -0.39184431      -1.03963561      -0.36058272 </v>
   <v>      -0.00000000      -0.00000000       1.42679354 </v>
   <v>      -0.19144308       0.55287906      -0.33894600 </v>
   <v>      -0.19144308      -0.55287906      -0.33894600 </v>
   <v>      -0.38308577       0.44223410      -0.33894600 </v>
   <v>       0.57452885      -0.11064496      -0.33894600 </v>
  </varray>
  <varray name="stress" >
   <v>     435.21523819       0.00000000       0.00000000 </v>
   <v>       0.00000000     435.21523819       0.00000000 </v>
   <v>       0.00000000       0.00000000     382.23349441 </v>
  </varray>
  <energy>
   <i name="e_fr_energy">   -194.29943836 </i>
   <i name="e_wo_entrp">   -194.29867640 </i>
   <i name="e_0_energy">     -0.00304784 </i>
  </energy>
  <time name="totalsc">   56.35   56.45</time>
 </calculation>
 <calculation>
  <scstep>
   <time name="dav">    6.54    6.53</time>
   <time name="total">    6.89    6.90</time>
   <energy>
    <i name="alphaZ">    164.38274471 </i>
    <i name="ewald">  -4533.24968196 </i>
    <i name="hartreedc">  -1200.17189668 </i>
    <i name="XCdc">    127.96705109 </i>
    <i name="pawpsdc">  24458.98788099 </i>
    <i name="pawaedc"> -24198.61773530 </i>
    <i name="eentropy">     -0.00391377 </i>
    <i name="bandstr">    163.30883172 </i>
    <i name="atom">   4822.75196862 </i>
    <i name="e_fr_energy">   -194.64475057 </i>
    <i name="e_wo_entrp">   -194.64083680 </i>
    <i name="e_0_energy">   -194.64377212 </i>
   </energy>
  </scstep>
  <scstep>
   <time name="diag">    0.91    0.91</time>
   <time name="diis">    4.11    4.11</time>
   <time name="orth">    0.08    0.08</time>
   <time name="total">    5.46    5.46</time>
   <energy>
    <i name="e_fr_energy">   -194.72301178 </i>
    <i name="e_wo_entrp">   -194.71915475 </i>
    <i name="e_0_energy">   -194.72204752 </i>
   </energy>
  </scstep>
  <scstep>
   <time name="diag">    0.92    0.92</time>
   <time name="diis">    4.12    4.12</time>
   <time name="orth">    0.13    0.18</time>
   <time name="total">    5.53    5.58</time>
   <energy>
    <i name="e_fr_energy">   -194.70481265 </i>
    <i name="e_wo_entrp">   -194.70107207 </i>
    <i name="e_0_energy">   -194.70387750 </i>
   </energy>
  </scstep>
  <scstep>
   <time name="diag">    0.92    0.92</time>
   <time name="diis">    4.03    4.04</time>
   <time name="orth">    0.08    0.08</time>
   <time name="total">    5.40    5.40</time>
   <energy>
    <i name="e_fr_energy">   -194.69809347 </i>
    <i name="e_wo_entrp">   -194.69446147 </i>
    <i name="e_0_energy">   -194.69718547 </i>
   </energy>
  </scstep>
  <scstep>
   <time name="diag">    0.91    0.91</time>
   <time name="diis">    4.08    4.08</time>
   <time name="orth">    0.08    0.08</time>
   <time name="total">    5.43    5.44</time>
   <energy>
    <i name="e_fr_energy">   -194.69802933 </i>
    <i name="e_wo_entrp">   -194.69438831 </i>
    <i name="e_0_energy">   -194.69711907 </i>
   </energy>
  </scstep>
  <scstep>
   <time name="diag">    0.92    0.92</time>
   <time name="diis">    2.80    2.80</time>
   <time name="orth">    0.08    0.08</time>
   <time name="total">    3.85    3.85</time>
   <energy>
    <i name="alphaZ">    164.38274471 </i>
    <i name="ewald">  -4533.24968196 </i>
    <i name="hartreedc">  -1197.00045488 </i>
    <i name="XCdc">    127.69691380 </i>
    <i name="pawpsdc">  23770.35099835 </i>
    <i name="pawaedc"> -23509.74433935 </i>
    <i name="eentropy">     -0.00364237 </i>
    <i name="bandstr">    160.11746984 </i>
    <i name="atom">   4822.75196862 </i>
    <i name="e_fr_energy">   -194.69802323 </i>
    <i name="e_wo_entrp">   -194.69438086 </i>
    <i name="e_0_energy">   -194.69711264 </i>
   </energy>
  </scstep>
  <structure>
   <crystal>
    <varray name="basis" >
     <v>       4.05794073      -7.02855952       0.00000000 </v>
     <v>       4.05794073       7.02855952       0.00000000 </v>
     <v>       0.00000000       0.00000000       5.20025091 </v>
    </varray>
    <i name="volume">    296.63768305 </i>
    <varray name="rec_basis" >
     <v>       0.12321521      -0.07113833       0.00000000 </v>
     <v>       0.12321521       0.07113833       0.00000000 </v>
     <v>       0.00000000       0.00000000       0.19229841 </v>
    </varray>
   </crystal>
   <varray name="positions" >
    <v>       0.01697503       0.64974625       0.20531115 </v>
    <v>       0.63277122       0.98302497       0.20531115 </v>
    <v>       0.90855920       0.31935461       0.98867952 </v>
    <v>       0.64974625       0.01697503       0.70531115 </v>
    <v>       0.09144080       0.41079541       0.48867952 </v>
    <v>       0.31935461       0.90855920       0.48867952 </v>
    <v>       0.35025375       0.36722878       0.20531115 </v>
    <v>       0.58920459       0.68064539       0.48867952 </v>
    <v>       0.98302497       0.63277122       0.70531115 </v>
    <v>       0.36722878       0.35025375       0.70531115 </v>
    <v>       0.68064539       0.58920459       0.98867952 </v>
    <v>       0.41079541       0.09144080       0.98867952 </v>
    <v>       0.21136641       0.29492089       0.46374481 </v>
    <v>       0.08355449       0.78863359       0.46374481 </v>
    <v>       0.29492089       0.21136641       0.96374481 </v>
    <v>       0.70507911       0.91644551       0.46374481 </v>
    <v>      -0.00000000      -0.00000000       0.95443993 </v>
    <v>       0.07505973       0.48703429       0.78625907 </v>
    <v>      -0.00000000      -0.00000000       0.45443993 </v>
    <v>       0.66666667       0.33333333       0.50970408 </v>
    <v>       0.58802544       0.51296571       0.28625907 </v>
    <v>       0.78863359       0.08355449       0.96374481 </v>
    <v>       0.91644551       0.70507911       0.96374481 </v>
    <v>       0.33333333       0.66666667       0.00970408 </v>
    <v>       0.92494027       0.41197456       0.28625907 </v>
    <v>       0.41197456       0.92494027       0.78625907 </v>
    <v>       0.51296571       0.58802544       0.78625907 </v>
    <v>       0.48703429       0.07505973       0.28625907 </v>
   </varray>
  </structure>
  <varray name="forces" >
   <v>      -0.40447931      -0.44490387      -0.26513089 </v>
   <v>      -0.18305840       0.57274130      -0.26513089 </v>
   <v>       0.31324975       0.16595422      -0.04041594 </v>
   <v>      -0.40447931       0.44490387      -0.26513089 </v>
   <v>      -0.01290431       0.35425935      -0.04041594 </v>
   <v>       0.31324975      -0.16595422      -0.04041594 </v>
   <v>       0.58753771      -0.12783742      -0.26513089 </v>
   <v>      -0.30034544      -0.18830513      -0.04041594 </v>
   <v>      -0.18305840      -0.57274130      -0.26513089 </v>
   <v>       0.58753771       0.12783742      -0.26513089 </v>
   <v>      -0.30034544       0.18830513      -0.04041594 </v>
   <v>      -0.01290431      -0.35425935      -0.04041594 </v>
   <v>       0.56122357       0.16910067      -0.03454240 </v>
   <v>      -0.13416631      -0.57058420      -0.03454240 </v>
   <v>       0.56122357      -0.16910067      -0.03454240 </v>
   <v>      -0.42705726       0.40148354      -0.03454240 </v>
   <v>      -0.00000000       0.00000000      -0.17028503 </v>
   <v>      -0.00504664       0.25529780       0.15831393 </v>
   <v>      -0.00000000       0.00000000      -0.17028503 </v>
   <v>      -0.00000000       0.00000000       0.71561094 </v>
   <v>      -0.21857106       0.13201942       0.15831393 </v>
   <v>      -0.13416631       0.57058420      -0.03454240 </v>
   <v>      -0.42705726      -0.40148354      -0.03454240 </v>
   <v>      -0.00000000       0.00000000       0.71561094 </v>
   <v>       0.22361770       0.12327838       0.15831393 </v>
   <v>       0.22361770      -0.12327838       0.15831393 </v>
   <v>      -0.21857106      -0.13201942       0.15831393 </v>
   <v>      -0.00504664      -0.25529780       0.15831393 </v>
  </varray>
  <varray name="stress" >
   <v>     398.88461329       0.00000000      -0.00000000 </v>
   <v>       0.00000000     398.88461329       0.00000000 </v>
   <v>      -0.00000000       0.00000000     367.79516912 </v>
  </varray>
  <energy>
   <i name="e_fr_energy">   -194.69802323 </i>
   <i name="e_wo_entrp">   -194.69711264 </i>
   <i name="e_0_energy">     -0.00364237 </i>
  </energy>
  <time name="totalsc">   41.88   41.99</time>
 </calculation>
 <calculation>
  <scstep>
   <time name="dav">    6.78    6.78</time>
   <time name="total">    7.33    7.33</time>
   <energy>
    <i name="alphaZ">    164.38274471 </i>
    <i name="ewald">  -4538.93203794 </i>
    <i name="hartreedc">  -1194.29335009 </i>
    <i name="XCdc">    127.55417447 </i>
    <i name="pawpsdc">  23757.13383649 </i>
    <i name="pawaedc"> -23496.52553238 </i>
    <i name="eentropy">     -0.00380946 </i>
    <i name="bandstr">    163.21571716 </i>
    <i name="atom">   4822.75196862 </i>
    <i name="e_fr_energy">   -194.71628842 </i>
    <i name="e_wo_entrp">   -194.71247895 </i>
    <i name="e_0_energy">   -194.71533605 </i>
   </energy>
  </scstep>
  <scstep>
   <time name="diag">    0.89    0.89</time>
   <time name="diis">    3.91    3.91</time>
   <time name="orth">    0.09    0.09</time>
   <time name="total">    5.25    5.25</time>
   <energy>
    <i name="e_fr_energy">   -194.72259420 </i>
    <i name="e_wo_entrp">   -194.71881086 </i>
    <i name="e_0_energy">   -194.72164836 </i>
   </energy>
  </scstep>
  <scstep>
   <time name="diag">    1.25    1.25</time>
   <time name="diis">    4.13    4.13</time>
   <time name="orth">    0.08    0.08</time>
   <time name="total">    5.82    5.82</time>
   <energy>
    <i name="e_fr_energy">   -194.72104662 </i>
    <i name="e_wo_entrp">   -194.71729145 </i>
    <i name="e_0_energy">   -194.72010783 </i>
   </energy>
  </scstep>
  <scstep>
   <time name="diag">    0.93    0.93</time>
   <time name="diis">    4.16    4.17</time>
   <time name="orth">    0.09    0.09</time>
   <time name="total">    5.53    5.55</time>
   <energy>
    <i name="e_fr_energy">   -194.72059847 </i>
    <i name="e_wo_entrp">   -194.71686829 </i>
    <i name="e_0_energy">   -194.71966592 </i>
   </energy>
  </scstep>
  <scstep>
   <time name="diag">    0.91    0.91</time>
   <time name="diis">    2.78    2.79</time>
   <time name="orth">    0.09    0.09</time>
   <time name="total">    3.83    3.84</time>
   <energy>
    <i name="alphaZ">    164.38274471 </i>
    <i name="ewald">  -4538.93203794 </i>
    <i name="hartreedc">  -1193.31958634 </i>
    <i name="XCdc">    127.47094391 </i>
    <i name="pawpsdc">  23569.79868672 </i>
    <i name="pawaedc"> -23309.12256925 </i>
    <i name="eentropy">     -0.00373119 </i>
    <i name="bandstr">    162.25298986 </i>
    <i name="atom">   4822.75196862 </i>
    <i name="e_fr_energy">   -194.72059089 </i>
    <i name="e_wo_entrp">   -194.71685970 </i>
    <i name="e_0_energy">   -194.71965809 </i>
   </energy>
  </scstep>
  <structure>
   <crystal>
    <varray name="basis" >
     <v>       4.05794073      -7.02855952       0.00000000 </v>
     <v>       4.05794073       7.02855952       0.00000000 </v>
     <v>       0.00000000       0.00000000       5.20025091 </v>
    </varray>
    <i name="volume">    296.63768305 </i>
    <varray name="rec_basis" >
     <v>       0.12321521      -0.07113833       0.00000000 </v>
     <v>       0.12321521       0.07113833       0.00000000 </v>
     <v>       0.00000000       0.00000000       0.19229841 </v>
    </varray>
   </crystal>
   <varray name="positions" >
    <v>       0.01827409       0.65028411       0.20433738 </v>
    <v>       0.63201002       0.98172591       0.20433738 </v>
    <v>       0.90754701       0.31884679       0.98873853 </v>
    <v>       0.65028411       0.01827409       0.70433738 </v>
    <v>       0.09245299       0.41129978       0.48873853 </v>
    <v>       0.31884679       0.90754701       0.48873853 </v>
    <v>       0.34971589       0.36798998       0.20433738 </v>
    <v>       0.58870022       0.68115321       0.48873853 </v>
    <v>       0.98172591       0.63201002       0.70433738 </v>
    <v>       0.36798998       0.34971589       0.70433738 </v>
    <v>       0.68115321       0.58870022       0.98873853 </v>
    <v>       0.41129978       0.09245299       0.98873853 </v>
    <v>       0.21214489       0.29510316       0.46294478 </v>
    <v>       0.08295827       0.78785511       0.46294478 </v>
    <v>       0.29510316       0.21214489       0.96294478 </v>
    <v>       0.70489684       0.91704173       0.46294478 </v>
    <v>      -0.00000000      -0.00000000       0.95394034 </v>
    <v>       0.07641054       0.48784352       0.78624587 </v>
    <v>      -0.00000000      -0.00000000       0.45394034 </v>
    <v>       0.66666667       0.33333333       0.51538763 </v>
    <v>       0.58856702       0.51215648       0.28624587 </v>
    <v>       0.78785511       0.08295827       0.96294478 </v>
    <v>       0.91704173       0.70489684       0.96294478 </v>
    <v>       0.33333333       0.66666667       0.01538763 </v>
    <v>       0.92358946       0.41143298       0.28624587 </v>
    <v>       0.41143298       0.92358946       0.78624587 </v>
    <v>       0.51215648       0.58856702       0.78624587 </v>
    <v>       0.48784352       0.07641054       0.28624587 </v>
   </varray>
  </structure>
  <varray name="forces" >
   <v>      -0.61670215      -0.54171916      -0.33092636 </v>
   <v>      -0.16079148       0.80493930      -0.33092636 </v>
   <v>       0.48584751       0.17418779      -0.12450458 </v>
   <v>      -0.61670215       0.54171916      -0.33092636 </v>
   <v>      -0.09207270       0.50785019      -0.12450458 </v>
   <v>       0.48584751      -0.17418779      -0.12450458 </v>
   <v>       0.77749363      -0.26322014      -0.33092636 </v>
   <v>      -0.39377481      -0.33366239      -0.12450458 </v>
   <v>      -0.16079148      -0.80493930      -0.33092636 </v>
   <v>       0.77749363       0.26322014      -0.33092636 </v>
   <v>      -0.39377481       0.33366239      -0.12450458 </v>
   <v>      -0.09207270      -0.50785019      -0.12450458 </v>
   <v>       0.40298183       0.26567825       0.06555104 </v>
   <v>       0.02859320      -0.48183163       0.06555104 </v>
   <v>       0.40298183      -0.26567825       0.06555104 </v>
   <v>      -0.43157503       0.21615338       0.06555104 </v>
   <v>       0.00000000      -0.00000000      -0.17206039 </v>
   <v>      -0.14657618       0.29482579       0.28289386 </v>
   <v>       0.00000000      -0.00000000      -0.17206039 </v>
   <v>       0.00000000      -0.00000000       0.49301853 </v>
   <v>      -0.18203853       0.27435159       0.28289386 </v>
   <v>       0.02859320       0.48183163       0.06555104 </v>
   <v>      -0.43157503      -0.21615338       0.06555104 </v>
   <v>       0.00000000      -0.00000000       0.49301853 </v>
   <v>       0.32861471       0.02047420       0.28289386 </v>
   <v>       0.32861471      -0.02047420       0.28289386 </v>
   <v>      -0.18203853      -0.27435159       0.28289386 </v>
   <v>      -0.14657618      -0.29482579       0.28289386 </v>
  </varray>
  <varray name="stress" >
   <v>     388.78436934       0.00000000       0.00000000 </v>
   <v>       0.00000000     388.78436934       0.00000000 </v>
   <v>      -0.00000000      -0.00000000     364.07176173 </v>
  </varray>
  <energy>
   <i name="e_fr_energy">   -194.72059089 </i>
   <i name="e_wo_entrp">   -194.71965809 </i>
   <i name="e_0_energy">     -0.00373119 </i>
  </energy>
  <time name="totalsc">   37.41   37.50</time>
 </calculation>
 <calculation>
  <scstep>
   <time name="dav">    6.13    6.13</time>
   <time name="total">    6.96    7.30</time>
   <energy>
    <i name="alphaZ">    164.38274471 </i>
    <i name="ewald">  -4529.67842976 </i>
    <i name="hartreedc">  -1205.96481291 </i>
    <i name="XCdc">    127.33153582 </i>
    <i name="pawpsdc">  23560.49213230 </i>
    <i name="pawaedc"> -23299.81433500 </i>
    <i name="eentropy">     -0.00334169 </i>
    <i name="bandstr">    165.67014888 </i>
    <i name="atom">   4822.75196862 </i>
    <i name="e_fr_energy">   -194.83238902 </i>
    <i name="e_wo_entrp">   -194.82904733 </i>
    <i name="e_0_energy">   -194.83155360 </i>
   </energy>
  </scstep>
  <scstep>
   <time name="diag">    0.92    0.92</time>
   <time name="diis">    4.33    4.34</time>
   <time name="orth">    0.08    0.08</time>
   <time name="total">    5.69    5.71</time>
   <energy>
    <i name="e_fr_energy">   -194.89828117 </i>
    <i name="e_wo_entrp">   -194.89468634 </i>
    <i name="e_0_energy">   -194.89738246 </i>
   </energy>
  </scstep>
  <scstep>
   <time name="diag">    0.91    0.91</time>
   <time name="diis">    4.07    4.08</time>
   <time name="orth">    0.08    0.08</time>
   <time name="total">    5.42    5.44</time>
   <energy>
    <i name="e_fr_energy">   -194.88077877 </i>
    <i name="e_wo_entrp">   -194.87714339 </i>
    <i name="e_0_energy">   -194.87986992 </i>
   </energy>
  </scstep>
  <scstep>
   <time name="diag">    0.92    0.92</time>
   <time name="diis">    4.03    4.03</time>
   <time name="orth">    0.10    0.10</time>
   <time name="total">    5.42    5.42</time>
   <energy>
    <i name="e_fr_energy">   -194.87663050 </i>
    <i name="e_wo_entrp">   -194.87299393 </i>
    <i name="e_0_energy">   -194.87572136 </i>
   </energy>
  </scstep>
  <scstep>
   <time name="diag">    0.92    0.92</time>
   <time name="diis">    4.03    4.03</time>
   <time name="orth">    0.09    0.09</time>
   <time name="total">    5.39    5.40</time>
   <energy>
    <i name="e_fr_energy">   -194.87648399 </i>
    <i name="e_wo_entrp">   -194.87284875 </i>
    <i name="e_0_energy">   -194.87557518 </i>
   </energy>
  </scstep>
  <scstep>
   <time name="diag">    0.92    0.92</time>
   <time name="diis">    2.74    2.75</time>
   <time name="orth">    0.08    0.08</time>
   <time name="total">    3.79    3.79</time>
   <energy>
    <i name="alphaZ">    164.38274471 </i>
    <i name="ewald">  -4529.67842976 </i>
    <i name="hartreedc">  -1205.58299116 </i>
    <i name="XCdc">    127.20131203 </i>
    <i name="pawpsdc">  23103.25205979 </i>
    <i name="pawaedc"> -22842.40564982 </i>
    <i name="eentropy">     -0.00362995 </i>
    <i name="bandstr">    165.20613976 </i>
    <i name="atom">   4822.75196862 </i>
    <i name="e_fr_energy">   -194.87647577 </i>
    <i name="e_wo_entrp">   -194.87284582 </i>
    <i name="e_0_energy">   -194.87556828 </i>
   </energy>
  </scstep>
  <structure>
   <crystal>
    <varray name="basis" >
     <v>       4.05794073      -7.02855952       0.00000000 </v>
     <v>       4.05794073       7.02855952       0.00000000 </v>
     <v>       0.00000000       0.00000000       5.20025091 </v>
    </varray>
    <i name="volume">    296.63768305 </i>
    <varray name="rec_basis" >
     <v>       0.12321521      -0.07113833       0.00000000 </v>
     <v>       0.12321521       0.07113833       0.00000000 </v>
     <v>       0.00000000       0.00000000       0.19229841 </v>
    </varray>
   </crystal>
   <varray name="positions" >
    <v>       0.01916898       0.64674851       0.20004882 </v>
    <v>       0.62757953       0.98083102       0.20004882 </v>
    <v>       0.90757136       0.32076980       0.98790183 </v>
    <v>       0.64674851       0.01916898       0.70004882 </v>
    <v>       0.09242864       0.41319845       0.48790183 </v>
    <v>       0.32076980       0.90757136       0.48790183 </v>
    <v>       0.35325149       0.37242047       0.20004882 </v>
    <v>       0.58680155       0.67923020       0.48790183 </v>
    <v>       0.98083102       0.62757953       0.70004882 </v>
    <v>       0.37242047       0.35325149       0.70004882 </v>
    <v>       0.67923020       0.58680155       0.98790183 </v>
    <v>       0.41319845       0.09242864       0.98790183 </v>
    <v>       0.21477966       0.29814031       0.46198109 </v>
    <v>       0.08336065       0.78522034       0.46198109 </v>
    <v>       0.29814031       0.21477966       0.96198109 </v>
    <v>       0.70185969       0.91663935       0.46198109 </v>
    <v>       0.00000000      -0.00000000       0.95172282 </v>
    <v>       0.07733744       0.48943618       0.78836777 </v>
    <v>       0.00000000      -0.00000000       0.45172282 </v>
    <v>       0.66666667       0.33333333       0.52950633 </v>
    <v>       0.58790127       0.51056382       0.28836777 </v>
    <v>       0.78522034       0.08336065       0.96198109 </v>
    <v>       0.91663935       0.70185969       0.96198109 </v>
    <v>       0.33333333       0.66666667       0.02950633 </v>
    <v>       0.92266256       0.41209873       0.28836777 </v>
    <v>       0.41209873       0.92266256       0.78836777 </v>
    <v>       0.51056382       0.58790127       0.78836777 </v>
    <v>       0.48943618       0.07733744       0.28836777 </v>
   </varray>
  </structure>
  <varray name="forces" >
   <v>       0.07363466       0.03782007       0.16139271 </v>
   <v>      -0.00406419      -0.08267952       0.16139271 </v>
   <v>      -0.19746595      -0.05345821       0.13037557 </v>
   <v>       0.07363466      -0.03782007       0.16139271 </v>
   <v>       0.05243680      -0.19773964       0.13037557 </v>
   <v>      -0.19746595       0.05345821       0.13037557 </v>
   <v>      -0.06957047       0.04485945       0.16139271 </v>
   <v>       0.14502915       0.14428142       0.13037557 </v>
   <v>      -0.00406419       0.08267952       0.16139271 </v>
   <v>      -0.06957047      -0.04485945       0.16139271 </v>
   <v>       0.14502915      -0.14428142       0.13037557 </v>
   <v>       0.05243680       0.19773964       0.13037557 </v>
   <v>       0.02925752       0.47456321      -0.36171792 </v>
   <v>       0.39635503      -0.26261936      -0.36171792 </v>
   <v>       0.02925752      -0.47456321      -0.36171792 </v>
   <v>      -0.42561256      -0.21194385      -0.36171792 </v>
   <v>      -0.00000000      -0.00000000      -0.16434135 </v>
   <v>       0.12150220      -0.44838646       0.24461971 </v>
   <v>      -0.00000000      -0.00000000      -0.16434135 </v>
   <v>      -0.00000000      -0.00000000      -0.35966883 </v>
   <v>       0.32756297      -0.32941722       0.24461971 </v>
   <v>       0.39635503       0.26261936      -0.36171792 </v>
   <v>      -0.42561256       0.21194385      -0.36171792 </v>
   <v>      -0.00000000      -0.00000000      -0.35966883 </v>
   <v>      -0.44906516      -0.11896924       0.24461971 </v>
   <v>      -0.44906516       0.11896924       0.24461971 </v>
   <v>       0.32756297       0.32941722       0.24461971 </v>
   <v>       0.12150220       0.44838646       0.24461971 </v>
  </varray>
  <varray name="stress" >
   <v>     377.51288752       0.00000000      -0.00000000 </v>
   <v>       0.00000000     377.51288752       0.00000000 </v>
   <v>       0.00000000       0.00000000     337.26080933 </v>
  </varray>
  <energy>
   <i name="e_fr_energy">   -194.87647577 </i>
   <i name="e_wo_entrp">   -194.87556828 </i>
   <i name="e_0_energy">     -0.00362995 </i>
  </energy>
  <time name="totalsc">   42.18   42.59</time>
 </calculation>
 <calculation>
  <scstep>
   <time name="dav">    6.50    6.50</time>
   <time name="total">    7.08    7.08</time>
   <energy>
    <i name="alphaZ">    164.38274471 </i>
    <i name="ewald">  -4531.29165191 </i>
    <i name="hartreedc">  -1203.48761178 </i>
    <i name="XCdc">    127.21889987 </i>
    <i name="pawpsdc">  23096.25441728 </i>
    <i name="pawaedc"> -22835.40706441 </i>
    <i name="eentropy">     -0.00372902 </i>
    <i name="bandstr">    164.70151561 </i>
    <i name="atom">   4822.75196862 </i>
    <i name="e_fr_energy">   -194.88051102 </i>
    <i name="e_wo_entrp">   -194.87678200 </i>
    <i name="e_0_energy">   -194.87957876 </i>
   </energy>
  </scstep>
  <scstep>
   <time name="diag">    0.89    0.89</time>
   <time name="diis">    4.08    4.08</time>
   <time name="orth">    0.10    0.10</time>
   <time name="total">    5.55    5.66</time>
   <energy>
    <i name="e_fr_energy">   -194.88175907 </i>
    <i name="e_wo_entrp">   -194.87805153 </i>
    <i name="e_0_energy">   -194.88083218 </i>
   </energy>
  </scstep>
  <scstep>
   <time name="diag">    0.95    0.95</time>
   <time name="diis">    3.87    3.87</time>
   <time name="orth">    0.08    0.08</time>
   <time name="total">    5.27    5.27</time>
   <energy>
    <i name="e_fr_energy">   -194.88138038 </i>
    <i name="e_wo_entrp">   -194.87767902 </i>
    <i name="e_0_energy">   -194.88045504 </i>
   </energy>
  </scstep>
  <scstep>
   <time name="diag">    0.89    0.89</time>
   <time name="diis">    2.84    2.84</time>
   <time name="orth">    0.08    0.08</time>
   <time name="total">    3.85    3.86</time>
   <energy>
    <i name="alphaZ">    164.38274471 </i>
    <i name="ewald">  -4531.29165191 </i>
    <i name="hartreedc">  -1203.53302466 </i>
    <i name="XCdc">    127.23736176 </i>
    <i name="pawpsdc">  23155.90480932 </i>
    <i name="pawaedc"> -22895.07954634 </i>
    <i name="eentropy">     -0.00369978 </i>
    <i name="bandstr">    164.74972391 </i>
    <i name="atom">   4822.75196862 </i>
    <i name="e_fr_energy">   -194.88131437 </i>
    <i name="e_wo_entrp">   -194.87761459 </i>
    <i name="e_0_energy">   -194.88038942 </i>
   </energy>
  </scstep>
  <structure>
   <crystal>
    <varray name="basis" >
     <v>       4.05794073      -7.02855952       0.00000000 </v>
     <v>       4.05794073       7.02855952       0.00000000 </v>
     <v>       0.00000000       0.00000000       5.20025091 </v>
    </varray>
    <i name="volume">    296.63768305 </i>
    <varray name="rec_basis" >
     <v>       0.12321521      -0.07113833       0.00000000 </v>
     <v>       0.12321521       0.07113833       0.00000000 </v>
     <v>       0.00000000       0.00000000       0.19229841 </v>
    </varray>
   </crystal>
   <varray name="positions" >
    <v>       0.01903690       0.64727032       0.20068175 </v>
    <v>       0.62823341       0.98096310       0.20068175 </v>
    <v>       0.90756776       0.32048599       0.98802531 </v>
    <v>       0.64727032       0.01903690       0.70068175 </v>
    <v>       0.09243224       0.41291823       0.48802531 </v>
    <v>       0.32048599       0.90756776       0.48802531 </v>
    <v>       0.35272968       0.37176659       0.20068175 </v>
    <v>       0.58708177       0.67951401       0.48802531 </v>
    <v>       0.98096310       0.62823341       0.70068175 </v>
    <v>       0.37176659       0.35272968       0.70068175 </v>
    <v>       0.67951401       0.58708177       0.98802531 </v>
    <v>       0.41291823       0.09243224       0.98802531 </v>
    <v>       0.21439081       0.29769207       0.46212332 </v>
    <v>       0.08330126       0.78560919       0.46212332 </v>
    <v>       0.29769207       0.21439081       0.96212332 </v>
    <v>       0.70230793       0.91669874       0.46212332 </v>
    <v>      -0.00000000      -0.00000000       0.95205009 </v>
    <v>       0.07720064       0.48920112       0.78805461 </v>
    <v>      -0.00000000      -0.00000000       0.45205009 </v>
    <v>       0.66666667       0.33333333       0.52742260 </v>
    <v>       0.58799952       0.51079888       0.28805461 </v>
    <v>       0.78560919       0.08330126       0.96212332 </v>
    <v>       0.91669874       0.70230793       0.96212332 </v>
    <v>       0.33333333       0.66666667       0.02742260 </v>
    <v>       0.92279936       0.41200048       0.28805461 </v>
    <v>       0.41200048       0.92279936       0.78805461 </v>
    <v>       0.51079888       0.58799952       0.78805461 </v>
    <v>       0.48920112       0.07720064       0.28805461 </v>
   </varray>
  </structure>
  <varray name="forces" >
   <v>      -0.02655007      -0.04580837       0.09356080 </v>
   <v>      -0.02639617       0.04589722       0.09356080 </v>
   <v>      -0.09736381      -0.02028684       0.09488321 </v>
   <v>      -0.02655007       0.04580837       0.09356080 </v>
   <v>       0.03111299      -0.09446296       0.09488321 </v>
   <v>      -0.09736381       0.02028684       0.09488321 </v>
   <v>       0.05294624      -0.00008885       0.09356080 </v>
   <v>       0.06625083       0.07417611       0.09488321 </v>
   <v>      -0.02639617      -0.04589722       0.09356080 </v>
   <v>       0.05294624       0.00008885       0.09356080 </v>
   <v>       0.06625083      -0.07417611       0.09488321 </v>
   <v>       0.03111299       0.09446296       0.09488321 </v>
   <v>       0.08330298       0.44304993      -0.30220342 </v>
   <v>       0.34204100      -0.29366746      -0.30220342 </v>
   <v>       0.08330298      -0.44304993      -0.30220342 </v>
   <v>      -0.42534398      -0.14938247      -0.30220342 </v>
   <v>       0.00000000       0.00000000      -0.16512848 </v>
   <v>       0.08271491      -0.33766878       0.24710090 </v>
   <v>       0.00000000       0.00000000      -0.16512848 </v>
   <v>       0.00000000       0.00000000      -0.23489598 </v>
   <v>       0.25107229      -0.24046760       0.24710090 </v>
   <v>       0.34204100       0.29366746      -0.30220342 </v>
   <v>      -0.42534398       0.14938247      -0.30220342 </v>
   <v>       0.00000000       0.00000000      -0.23489598 </v>
   <v>      -0.33378720      -0.09720118       0.24710090 </v>
   <v>      -0.33378720       0.09720118       0.24710090 </v>
   <v>       0.25107229       0.24046760       0.24710090 </v>
   <v>       0.08271491       0.33766878       0.24710090 </v>
  </varray>
  <varray name="stress" >
   <v>     378.86357692       0.00000000      -0.00000000 </v>
   <v>       0.00000000     378.86357692       0.00000000 </v>
   <v>       0.00000000       0.00000000     341.01812525 </v>
  </varray>
  <energy>
   <i name="e_fr_energy">   -194.88131437 </i>
   <i name="e_wo_entrp">   -194.88038942 </i>
   <i name="e_0_energy">     -0.00369978 </i>
  </energy>
  <time name="totalsc">   31.33   31.70</time>
 </calculation>
 <calculation>
  <scstep>
   <time name="dav">    6.38    6.39</time>
[...]
       <r>   -0.8584    1.0000 </r>
       <r>   -0.1305    1.0000 </r>
       <r>    0.1624    1.0000 </r>
       <r>    0.3916    1.0000 </r>
       <r>    0.3916    1.0000 </r>
       <r>    1.0318    1.0000 </r>
       <r>    1.0318    1.0000 </r>
       <r>    1.5172    1.0000 </r>
       <r>    1.5172    1.0000 </r>
       <r>    1.6540    1.0000 </r>
       <r>    2.1627    1.0000 </r>
       <r>    2.3125    1.0000 </r>
       <r>    2.3125    1.0000 </r>
       <r>    2.5169    1.0000 </r>
       <r>    2.7051    1.0000 </r>
       <r>    2.7051    1.0000 </r>
       <r>    2.7980    1.0000 </r>
       <r>    2.9219    1.0000 </r>
       <r>    2.9219    1.0000 </r>
       <r>    3.3795    1.0000 </r>
       <r>    4.1424    1.0000 </r>
       <r>    4.1424    1.0000 </r>
       <r>    4.2978    1.0000 </r>
       <r>    4.4679    1.0000 </r>
       <r>    4.4679    1.0000 </r>
       <r>    4.7800    1.0000 </r>
       <r>    4.7800    1.0000 </r>
       <r>    4.8308    1.0000 </r>
       <r>    4.8660    1.0000 </r>
       <r>    5.7362    1.0000 </r>
       <r>    5.7362    1.0000 </r>
       <r>    6.0195    1.0000 </r>
       <r>    6.0844    1.0000 </r>
       <r>    6.0844    1.0000 </r>
       <r>    6.3233    1.0000 </r>
       <r>    6.5733    1.0000 </r>
       <r>    6.5733    1.0000 </r>
       <r>    7.1442    1.0000 </r>
       <r>    7.1442    1.0000 </r>
       <r>    7.6457    1.0000 </r>
       <r>    7.6457    1.0000 </r>
       <r>    7.8897    1.0000 </r>
       <r>    7.9581    1.0000 </r>
       <r>    8.9108    1.0000 </r>
       <r>    9.6650   -0.0124 </r>
       <r>    9.6650   -0.0124 </r>
       <r>   10.1435    0.0000 </r>
       <r>   11.9856    0.0000 </r>
       <r>   11.9856    0.0000 </r>
       <r>   12.1610    0.0000 </r>
       <r>   12.1610    0.0000 </r>
       <r>   12.8322    0.0000 </r>
       <r>   12.9198    0.0000 </r>
       <r>   13.5315    0.0000 </r>
       <r>   13.5315    0.0000 </r>
       <r>   14.2057    0.0000 </r>
       <r>   14.2588    0.0000 </r>
       <r>   14.2588    0.0000 </r>
       <r>   14.5462    0.0000 </r>
       <r>   14.5462    0.0000 </r>
       <r>   14.6925    0.0000 </r>
       <r>   14.6925    0.0000 </r>
       <r>   14.9272    0.0000 </r>
      </set>
     </set>
    </set>
   </array>
  </eigenvalues>
  <separator name="orbital magnetization" >
   <v name="MAGDIPOLOUT">      0.00000000      0.00000000      0.00000000</v>
  </separator>
  <dos>
   <i name="efermi">      9.51692358 </i>
   <total>
    <array>
     <dimension dim="1">gridpoints</dimension>
     <dimension dim="2">spin</dimension>
     <field>energy</field>
     <field>total</field>
     <field>integrated</field>
     <set>
      <set comment="spin 1">
       <r>   -11.5460     0.0000     0.0000 </r>
       <r>   -11.4524     0.0000     0.0000 </r>
       <r>   -11.3587     0.0000     0.0000 </r>
       <r>   -11.2651     0.0000     0.0000 </r>
       <r>   -11.1714     0.0000     0.0000 </r>
       <r>   -11.0777     0.0000     0.0000 </r>
       <r>   -10.9841     0.0000     0.0000 </r>
       <r>   -10.8904     0.0000     0.0000 </r>
       <r>   -10.7968     0.0000     0.0000 </r>
       <r>   -10.7031     0.0000     0.0000 </r>
       <r>   -10.6095     0.0000     0.0000 </r>
       <r>   -10.5158     0.0005     0.0000 </r>
       <r>   -10.4222     0.0044     0.0005 </r>
       <r>   -10.3285    -0.0338    -0.0027 </r>
       <r>   -10.2348     0.2998     0.0254 </r>
       <r>   -10.1412     1.4867     0.1646 </r>
       <r>   -10.0475     2.4957     0.3983 </r>
       <r>    -9.9539     3.6367     0.7389 </r>
       <r>    -9.8602     2.7026     0.9921 </r>
       <r>    -9.7666     4.3812     1.4024 </r>
       <r>    -9.6729     4.0660     1.7832 </r>
       <r>    -9.5792     5.6286     2.3104 </r>
       <r>    -9.4856     7.5429     3.0168 </r>
       <r>    -9.3919     8.7224     3.8337 </r>
       <r>    -9.2983     6.3008     4.4238 </r>
       <r>    -9.2046     4.2590     4.8227 </r>
       <r>    -9.1110     6.5807     5.4390 </r>
       <r>    -9.0173     1.2910     5.5599 </r>
       <r>    -8.9236     0.5918     5.6154 </r>
       <r>    -8.8300     5.3739     6.1187 </r>
       <r>    -8.7363     3.9102     6.4849 </r>
       <r>    -8.6427     2.6156     6.7299 </r>
       <r>    -8.5490     5.5883     7.2532 </r>
       <r>    -8.4554     5.3788     7.7570 </r>
       <r>    -8.3617     0.6691     7.8197 </r>
       <r>    -8.2680     8.1414     8.5822 </r>
       <r>    -8.1744    12.7001     9.7716 </r>
       <r>    -8.0807     5.6335    10.2992 </r>
       <r>    -7.9871     4.4918    10.7199 </r>
       <r>    -7.8934     4.1860    11.1119 </r>
       <r>    -7.7998     2.9321    11.3866 </r>
       <r>    -7.7061     6.1694    11.9644 </r>
       <r>    -7.6125     9.6078    12.8642 </r>
       <r>    -7.5188    13.0129    14.0829 </r>
       <r>    -7.4251    10.9854    15.1118 </r>
       <r>    -7.3315    13.6240    16.3878 </r>
       <r>    -7.2378    10.5282    17.3738 </r>
       <r>    -7.1442    10.4590    18.3534 </r>
       <r>    -7.0505     6.1988    18.9339 </r>
       <r>    -6.9569     6.2879    19.5228 </r>
       <r>    -6.8632     7.7239    20.2462 </r>
       <r>    -6.7695    20.7586    22.1904 </r>
       <r>    -6.6759    17.8319    23.8605 </r>
       <r>    -6.5822     1.7474    24.0241 </r>
       <r>    -6.4886    -0.3129    23.9948 </r>
       <r>    -6.3949     0.0523    23.9997 </r>
       <r>    -6.3013     0.0028    24.0000 </r>
       <r>    -6.2076     0.0000    24.0000 </r>
       <r>    -6.1139     0.0000    24.0000 </r>
       <r>    -6.0203     0.0000    24.0000 </r>
       <r>    -5.9266     0.0000    24.0000 </r>
       <r>    -5.8330     0.0000    24.0000 </r>
       <r>    -5.7393     0.0000    24.0000 </r>
       <r>    -5.6457     0.0000    24.0000 </r>
       <r>    -5.5520     0.0000    24.0000 </r>
       <r>    -5.4583     0.0000    24.0000 </r>
       <r>    -5.3647     0.0000    24.0000 </r>
       <r>    -5.2710     0.0000    24.0000 </r>
       <r>    -5.1774     0.0000    24.0000 </r>
       <r>    -5.0837     0.0000    24.0000 </r>
       <r>    -4.9901     0.0000    24.0000 </r>
       <r>    -4.8964     0.0000    24.0000 </r>
       <r>    -4.8028     0.0000    24.0000 </r>
       <r>    -4.7091     0.0000    24.0000 </r>
       <r>    -4.6154     0.0000    24.0000 </r>
       <r>    -4.5218     0.0000    24.0000 </r>
       <r>    -4.4281     0.0000    24.0000 </r>
       <r>    -4.3345     0.0000    24.0000 </r>
       <r>    -4.2408     0.0000    24.0000 </r>
       <r>    -4.1472     0.0000    24.0000 </r>
       <r>    -4.0535     0.0000    24.0000 </r>
       <r>    -3.9598     0.0000    24.0000 </r>
       <r>    -3.8662     0.0000    24.0000 </r>
       <r>    -3.7725     0.0000    24.0000 </r>
       <r>    -3.6789     0.0000    24.0000 </r>
       <r>    -3.5852     0.0000    24.0000 </r>
       <r>    -3.4916     0.0000    24.0000 </r>
       <r>    -3.3979     0.0000    24.0000 </r>
       <r>    -3.3042     0.0006    24.0001 </r>
       <r>    -3.2106    -0.0011    23.9999 </r>
       <r>    -3.1169     0.0056    24.0005 </r>
       <r>    -3.0233     0.1992    24.0191 </r>
       <r>    -2.9296     0.8610    24.0998 </r>
       <r>    -2.8360     0.4980    24.1464 </r>
       <r>    -2.7423     1.3705    24.2748 </r>
       <r>    -2.6486     1.4200    24.4078 </r>
       <r>    -2.5550     1.1448    24.5150 </r>
       <r>    -2.4613     2.2646    24.7271 </r>
       <r>    -2.3677     2.2532    24.9381 </r>
       <r>    -2.2740     1.9322    25.1191 </r>
       <r>    -2.1804     2.9202    25.3926 </r>
       <r>    -2.0867     0.3015    25.4208 </r>
       <r>    -1.9931     2.0292    25.6108 </r>
       <r>    -1.8994     2.4501    25.8403 </r>
       <r>    -1.8057     2.8015    26.1027 </r>
       <r>    -1.7121     6.1900    26.6824 </r>
       <r>    -1.6184     6.4345    27.2850 </r>
       <r>    -1.5248     8.2651    28.0591 </r>
       <r>    -1.4311     8.4921    28.8545 </r>
       <r>    -1.3375     5.4501    29.3649 </r>
       <r>    -1.2438     4.9569    29.8292 </r>
       <r>    -1.1501     6.5704    30.4445 </r>
       <r>    -1.0565     5.0826    30.9205 </r>
       <r>    -0.9628     5.2602    31.4132 </r>
       <r>    -0.8692    10.1886    32.3674 </r>
       <r>    -0.7755     9.1718    33.2264 </r>
       <r>    -0.6819     9.4020    34.1070 </r>
       <r>    -0.5882     8.8809    34.9387 </r>
       <r>    -0.4945    10.4083    35.9135 </r>
       <r>    -0.4009     9.1057    36.7663 </r>
       <r>    -0.3072    10.2915    37.7302 </r>
       <r>    -0.2136     9.3050    38.6017 </r>
       <r>    -0.1199     9.6652    39.5069 </r>
       <r>    -0.0263     8.1326    40.2686 </r>
       <r>     0.0674     4.2781    40.6692 </r>
       <r>     0.1611     1.5845    40.8177 </r>
       <r>     0.2547     2.5721    41.0585 </r>
       <r>     0.3484     3.3896    41.3760 </r>
       <r>     0.4420     3.0228    41.6591 </r>
       <r>     0.5357     6.6685    42.2837 </r>
       <r>     0.6293    10.9785    43.3119 </r>
       <r>     0.7230     9.3117    44.1840 </r>
       <r>     0.8166    11.8792    45.2965 </r>
       <r>     0.9103     7.1047    45.9620 </r>
       <r>     1.0040     4.9438    46.4250 </r>
       <r>     1.0976     7.3312    47.1116 </r>
       <r>     1.1913     8.4636    47.9043 </r>
       <r>     1.2849     7.6493    48.6207 </r>
       <r>     1.3786     6.8374    49.2610 </r>
       <r>     1.4722     6.1050    49.8328 </r>
       <r>     1.5659     7.0700    50.4950 </r>
       <r>     1.6596     9.4220    51.3774 </r>
       <r>     1.7532    11.2486    52.4309 </r>
       <r>     1.8469    11.5623    53.5138 </r>
       <r>     1.9405     9.4716    54.4009 </r>
       <r>     2.0342    15.5239    55.8548 </r>
       <r>     2.1278    12.6861    57.0429 </r>
       <r>     2.2215     8.7857    57.8658 </r>
       <r>     2.3152     5.7892    58.4080 </r>
       <r>     2.4088    11.6907    59.5029 </r>
       <r>     2.5025     9.5650    60.3987 </r>
       <r>     2.5961     9.8981    61.3257 </r>
       <r>     2.6898     8.4984    62.1217 </r>
       <r>     2.7834     9.9656    63.0550 </r>
       <r>     2.8771    12.1471    64.1927 </r>
       <r>     2.9707    12.0446    65.3207 </r>
       <r>     3.0644     8.9930    66.1630 </r>
       <r>     3.1581    10.4124    67.1382 </r>
       <r>     3.2517    11.1889    68.1861 </r>
       <r>     3.3454    10.9458    69.2112 </r>
       <r>     3.4390    11.3663    70.2757 </r>
       <r>     3.5327    11.2131    71.3259 </r>
       <r>     3.6263    13.6085    72.6005 </r>
       <r>     3.7200    14.4038    73.9495 </r>
       <r>     3.8137     9.2324    74.8141 </r>
       <r>     3.9073     7.8126    75.5458 </r>
       <r>     4.0010     9.0092    76.3896 </r>
       <r>     4.0946    10.0058    77.3267 </r>
       <r>     4.1883    12.0067    78.4512 </r>
       <r>     4.2819    10.5937    79.4434 </r>
       <r>     4.3756    13.7162    80.7280 </r>
       <r>     4.4693    15.5448    82.1839 </r>
       <r>     4.5629    14.4330    83.5356 </r>
       <r>     4.6566    10.7306    84.5406 </r>
       <r>     4.7502    10.5686    85.5304 </r>
       <r>     4.8439    10.9891    86.5597 </r>
       <r>     4.9375     8.5800    87.3632 </r>
       <r>     5.0312     8.5701    88.1659 </r>
       <r>     5.1249    13.5001    89.4303 </r>
       <r>     5.2185    15.2550    90.8590 </r>
       <r>     5.3122    10.1239    91.8072 </r>
       <r>     5.4058     8.9840    92.6486 </r>
       <r>     5.4995    11.1439    93.6923 </r>
       <r>     5.5931    11.5723    94.7761 </r>
       <r>     5.6868    10.5795    95.7669 </r>
       <r>     5.7804    12.9762    96.9822 </r>
       <r>     5.8741    12.1461    98.1198 </r>
       <r>     5.9678     7.7264    98.8434 </r>
       <r>     6.0614     9.2940    99.7139 </r>
       <r>     6.1551    14.6987   101.0905 </r>
       <r>     6.2487    14.4323   102.4422 </r>
       <r>     6.3424    13.0515   103.6646 </r>
       <r>     6.4360     8.0958   104.4228 </r>
       <r>     6.5297     6.7484   105.0548 </r>
       <r>     6.6234     7.5031   105.7575 </r>
       <r>     6.7170     7.3725   106.4480 </r>
       <r>     6.8107     5.2432   106.9391 </r>
       <r>     6.9043     8.9957   107.7816 </r>
       <r>     6.9980     9.5192   108.6731 </r>
       <r>     7.0916    14.1097   109.9946 </r>
       <r>     7.1853    16.0077   111.4938 </r>
       <r>     7.2790    11.1442   112.5375 </r>
       <r>     7.3726     4.6843   112.9763 </r>
       <r>     7.4663     3.0276   113.2598 </r>
       <r>     7.5599     3.4963   113.5873 </r>
       <r>     7.6536     5.3954   114.0926 </r>
       <r>     7.7472     6.3733   114.6895 </r>
       <r>     7.8409     7.4372   115.3860 </r>
       <r>     7.9346     8.6336   116.1946 </r>
       <r>     8.0282     9.6293   117.0965 </r>
       <r>     8.1219     8.7738   117.9182 </r>
       <r>     8.2155     8.4000   118.7049 </r>
       <r>     8.3092     4.8614   119.1602 </r>
       <r>     8.4028     4.5655   119.5878 </r>
       <r>     8.4965     4.3872   119.9987 </r>
       <r>     8.5901     5.6277   120.5258 </r>
       <r>     8.6838     6.2282   121.1091 </r>
       <r>     8.7775     4.7606   121.5549 </r>
       <r>     8.8711     2.1257   121.7540 </r>
       <r>     8.9648     3.2893   122.0621 </r>
       <r>     9.0584     1.1558   122.1704 </r>
       <r>     9.1521     1.2267   122.2852 </r>
       <r>     9.2457     2.5780   122.5267 </r>
       <r>     9.3394     3.0969   122.8167 </r>
       <r>     9.4331     4.1123   123.2019 </r>
       <r>     9.5267    10.0838   124.1463 </r>
       <r>     9.6204    15.2437   125.5740 </r>
       <r>     9.7140     4.1286   125.9606 </r>
       <r>     9.8077     0.3441   125.9929 </r>
       <r>     9.9013     0.0754   125.9999 </r>
       <r>     9.9950    -0.0083   125.9992 </r>
       <r>    10.0887    -0.0558   125.9939 </r>
       <r>    10.1823     2.5859   126.2361 </r>
       <r>    10.2760     2.1831   126.4406 </r>
       <r>    10.3696     0.0568   126.4459 </r>
       <r>    10.4633    -0.0209   126.4439 </r>
       <r>    10.5569     0.0054   126.4444 </r>
       <r>    10.6506     0.0005   126.4445 </r>
       <r>    10.7443    -0.0037   126.4441 </r>
       <r>    10.8379     0.0694   126.4506 </r>
       <r>    10.9316     0.1336   126.4631 </r>
       <r>    11.0252     0.7902   126.5372 </r>
       <r>    11.1189     0.9784   126.6288 </r>
       <r>    11.2125     1.3815   126.7582 </r>
       <r>    11.3062     1.0503   126.8565 </r>
       <r>    11.3998     4.0565   127.2365 </r>
       <r>    11.4935     6.6568   127.8599 </r>
       <r>    11.5872     5.5558   128.3803 </r>
       <r>    11.6808     5.0980   128.8577 </r>
       <r>    11.7745     8.3526   129.6400 </r>
       <r>    11.8681    13.9876   130.9500 </r>
       <r>    11.9618    11.2821   132.0067 </r>
       <r>    12.0554     6.4381   132.6096 </r>
       <r>    12.1491     7.4434   133.3068 </r>
       <r>    12.2428     7.6043   134.0190 </r>
       <r>    12.3364     5.8462   134.5665 </r>
       <r>    12.4301     5.1772   135.0514 </r>
       <r>    12.5237     5.7804   135.5927 </r>
       <r>    12.6174     3.8582   135.9541 </r>
       <r>    12.7110     2.8427   136.2203 </r>
       <r>    12.8047     4.3889   136.6314 </r>
       <r>    12.8984     6.1605   137.2083 </r>
       <r>    12.9920     6.9911   137.8631 </r>
       <r>    13.0857     7.5987   138.5748 </r>
       <r>    13.1793     7.7829   139.3037 </r>
       <r>    13.2730     7.4875   140.0049 </r>
       <r>    13.3666     5.6897   140.5378 </r>
       <r>    13.4603     9.4047   141.4186 </r>
       <r>    13.5540    11.1568   142.4636 </r>
       <r>    13.6476    10.5731   143.4538 </r>
       <r>    13.7413     5.6573   143.9836 </r>
       <r>    13.8349     7.1469   144.6530 </r>
       <r>    13.9286     7.4446   145.3502 </r>
       <r>    14.0222    11.7831   146.4538 </r>
       <r>    14.1159    10.4908   147.4363 </r>
       <r>    14.2095    10.9009   148.4573 </r>
       <r>    14.3032     9.9322   149.3875 </r>
       <r>    14.3969    11.0007   150.4178 </r>
       <r>    14.4905    14.1160   151.7399 </r>
       <r>    14.5842    10.8577   152.7567 </r>
       <r>    14.6778    14.0410   154.0718 </r>
       <r>    14.7715    17.5878   155.7190 </r>
       <r>    14.8651    11.8096   156.8250 </r>
       <r>    14.9588    11.4894   157.9011 </r>
       <r>    15.0525    11.2262   158.9525 </r>
       <r>    15.1461     6.9087   159.5995 </r>
       <r>    15.2398     3.8264   159.9579 </r>
       <r>    15.3334     0.4971   160.0045 </r>
       <r>    15.4271    -0.0585   159.9990 </r>
       <r>    15.5207     0.0099   159.9999 </r>
       <r>    15.6144     0.0009   160.0000 </r>
       <r>    15.7081     0.0000   160.0000 </r>
       <r>    15.8017     0.0000   160.0000 </r>
       <r>    15.8954     0.0000   160.0000 </r>
       <r>    15.9890     0.0000   160.0000 </r>
       <r>    16.0827     0.0000   160.0000 </r>
       <r>    16.1763     0.0000   160.0000 </r>
       <r>    16.2700     0.0000   160.0000 </r>
       <r>    16.3637     0.0000   160.0000 </r>
       <r>    16.4573     0.0000   160.0000 </r>
       <r>    16.5510     0.0000   160.0000 </r>
      </set>
     </set>
    </array>
   </total>
  </dos>
 </calculation>
 <structure name="finalpos" >
  <crystal>
   <varray name="basis" >
    <v>       4.05794073      -7.02855952       0.00000000 </v>
    <v>       4.05794073       7.02855952       0.00000000 </v>
    <v>       0.00000000       0.00000000       5.20025091 </v>
   </varray>
   <i name="volume">    296.63768305 </i>
   <varray name="rec_basis" >
    <v>       0.12321521      -0.07113833       0.00000000 </v>
    <v>       0.12321521       0.07113833       0.00000000 </v>
    <v>       0.00000000       0.00000000       0.19229841 </v>
   </varray>
  </crystal>
  <varray name="positions" >
   <v>       0.01724516       0.64464226       0.20101684 </v>
   <v>       0.62739710       0.98275484       0.20101684 </v>
   <v>       0.90839630       0.32002193       0.99551996 </v>
   <v>       0.64464226       0.01724516       0.70101684 </v>
   <v>       0.09160370       0.41162563       0.49551996 </v>
   <v>       0.32002193       0.90839630       0.49551996 </v>
   <v>       0.35535774       0.37260290       0.20101684 </v>
   <v>       0.58837437       0.67997807       0.49551996 </v>
   <v>       0.98275484       0.62739710       0.70101684 </v>
   <v>       0.37260290       0.35535774       0.70101684 </v>
   <v>       0.67997807       0.58837437       0.99551996 </v>
   <v>       0.41162563       0.09160370       0.99551996 </v>
   <v>       0.21401255       0.29854461       0.45991464 </v>
   <v>       0.08453206       0.78598745       0.45991464 </v>
   <v>       0.29854461       0.21401255       0.95991464 </v>
   <v>       0.70145539       0.91546794       0.45991464 </v>
   <v>       0.00000000      -0.00000000       0.90196227 </v>
   <v>       0.07949221       0.48876180       0.79655091 </v>
   <v>       0.00000000      -0.00000000       0.40196227 </v>
   <v>       0.66666667       0.33333333       0.53515837 </v>
   <v>       0.59073041       0.51123820       0.29655091 </v>
   <v>       0.78598745       0.08453206       0.95991464 </v>
   <v>       0.91546794       0.70145539       0.95991464 </v>
   <v>       0.33333333       0.66666667       0.03515837 </v>
   <v>       0.92050779       0.40926959       0.29655091 </v>
   <v>       0.40926959       0.92050779       0.79655091 </v>
   <v>       0.51123820       0.59073041       0.79655091 </v>
   <v>       0.48876180       0.07949221       0.29655091 </v>
  </varray>
 </structure>
</modeling>
