unknown system                          
           1
     4.057941   -7.028560    0.000000
     4.057941    7.028560    0.000000
     0.000000    0.000000    5.200251
   Si   N 
  12  16
Direct configuration=     1
   0.00847736  0.64712623  0.21326215
   0.63864887  0.99152264  0.21326215
   0.91417805  0.32157747  0.99187268
   0.64712623  0.00847736  0.71326215
   0.08582195  0.40739942  0.49187268
   0.32157747  0.91417805  0.49187268
   0.35287377  0.36135113  0.21326215
   0.59260058  0.67842253  0.49187268
   0.99152264  0.63864887  0.71326215
   0.36135113  0.35287377  0.71326215
   0.67842253  0.59260058  0.99187268
   0.40739942  0.08582195  0.99187268
   0.21311138  0.30040483  0.46674092
   0.08729345  0.78688862  0.46674092
   0.30040483  0.21311138  0.96674092
   0.69959517  0.91270655  0.46674092
   0.00000000  0.00000000  0.95692726
   0.06686359  0.48449764  0.78259872
   0.00000000  0.00000000  0.45692726
   0.66666667  0.33333333  0.47577702
   0.58236595  0.51550236  0.28259872
   0.78688862  0.08729345  0.96674092
   0.91270655  0.69959517  0.96674092
   0.33333333  0.66666667  0.97577702
   0.93313641  0.41763405  0.28259872
   0.41763405  0.93313641  0.78259872
   0.51550236  0.58236595  0.78259872
   0.48449764  0.06686359  0.28259872
Direct configuration=     2
   0.01308222  0.64800868  0.20800773
   0.63492646  0.98691778  0.20800773
   0.91173270  0.32103026  0.98800142
   0.64800868  0.01308222  0.70800773
   0.08826730  0.40929756  0.48800142
   0.32103026  0.91173270  0.48800142
   0.35199132  0.36507354  0.20800773
   0.59070244  0.67896974  0.48800142
   0.98691778  0.63492646  0.70800773
   0.36507354  0.35199132  0.70800773
   0.67896974  0.59070244  0.98800142
   0.40929756  0.08826730  0.98800142
   0.20807604  0.29343974  0.46645553
   0.08536370  0.79192396  0.46645553
   0.29343974  0.20807604  0.96645553
   0.70656026  0.91463630  0.46645553
  -0.00000000 -0.00000000  0.95604633
   0.07092223  0.48422324  0.78682331
  -0.00000000 -0.00000000  0.45604633
   0.66666667  0.33333333  0.49221737
   0.58669899  0.51577676  0.28682331
   0.79192396  0.08536370  0.96645553
   0.91463630  0.70656026  0.96645553
   0.33333333  0.66666667  0.99221737
   0.92907777  0.41330101  0.28682331
   0.41330101  0.92907777  0.78682331
   0.51577676  0.58669899  0.78682331
   0.48422324  0.07092223  0.28682331
Direct configuration=     3
   0.01251655  0.64790028  0.20865320
   0.63538373  0.98748345  0.20865320
   0.91203310  0.32109748  0.98847698
   0.64790028  0.01251655  0.70865320
   0.08796690  0.40906438  0.48847698
   0.32109748  0.91203310  0.48847698
   0.35209972  0.36461627  0.20865320
   0.59093562  0.67890252  0.48847698
   0.98748345  0.63538373  0.70865320
   0.36461627  0.35209972  0.70865320
   0.67890252  0.59093562  0.98847698
   0.40906438  0.08796690  0.98847698
   0.20869460  0.29429535  0.46649059
   0.08560076  0.79130540  0.46649059
   0.29429535  0.20869460  0.96649059
   0.70570465  0.91439924  0.46649059
  -0.00000000 -0.00000000  0.95615455
   0.07042366  0.48425695  0.78630435
  -0.00000000 -0.00000000  0.45615455
   0.66666667  0.33333333  0.49019779
   0.58616671  0.51574305  0.28630435
   0.79130540  0.08560076  0.96649059
   0.91439924  0.70570465  0.96649059
   0.33333333  0.66666667  0.99019779
   0.92957634  0.41383329  0.28630435
   0.41383329  0.92957634  0.78630435
   0.51574305  0.58616671  0.78630435
   0.48425695  0.07042366  0.28630435
Direct configuration=     4
   0.01697503  0.64974625  0.20531115
   0.63277122  0.98302497  0.20531115
   0.90855920  0.31935461  0.98867952
   0.64974625  0.01697503  0.70531115
   0.09144080  0.41079541  0.48867952
   0.31935461  0.90855920  0.48867952
   0.35025375  0.36722878  0.20531115
   0.58920459  0.68064539  0.48867952
   0.98302497  0.63277122  0.70531115
   0.36722878  0.35025375  0.70531115
   0.68064539  0.58920459  0.98867952
   0.41079541  0.09144080  0.98867952
   0.21136641  0.29492089  0.46374481
   0.08355449  0.78863359  0.46374481
   0.29492089  0.21136641  0.96374481
   0.70507911  0.91644551  0.46374481
  -0.00000000 -0.00000000  0.95443993
   0.07505973  0.48703429  0.78625907
  -0.00000000 -0.00000000  0.45443993
   0.66666667  0.33333333  0.50970408
   0.58802544  0.51296571  0.28625907
   0.78863359  0.08355449  0.96374481
   0.91644551  0.70507911  0.96374481
   0.33333333  0.66666667  0.00970408
   0.92494027  0.41197456  0.28625907
   0.41197456  0.92494027  0.78625907
   0.51296571  0.58802544  0.78625907
   0.48703429  0.07505973  0.28625907
Direct configuration=     5
   0.01827409  0.65028411  0.20433738
   0.63201002  0.98172591  0.20433738
   0.90754701  0.31884679  0.98873853
   0.65028411  0.01827409  0.70433738
   0.09245299  0.41129978  0.48873853
   0.31884679  0.90754701  0.48873853
   0.34971589  0.36798998  0.20433738
   0.58870022  0.68115321  0.48873853
   0.98172591  0.63201002  0.70433738
   0.36798998  0.34971589  0.70433738
   0.68115321  0.58870022  0.98873853
   0.41129978  0.09245299  0.98873853
   0.21214489  0.29510316  0.46294478
   0.08295827  0.78785511  0.46294478
   0.29510316  0.21214489  0.96294478
   0.70489684  0.91704173  0.46294478
  -0.00000000 -0.00000000  0.95394034
   0.07641054  0.48784352  0.78624587
  -0.00000000 -0.00000000  0.45394034
   0.66666667  0.33333333  0.51538763
   0.58856702  0.51215648  0.28624587
   0.78785511  0.08295827  0.96294478
   0.91704173  0.70489684  0.96294478
   0.33333333  0.66666667  0.01538763
   0.92358946  0.41143298  0.28624587
   0.41143298  0.92358946  0.78624587
   0.51215648  0.58856702  0.78624587
   0.48784352  0.07641054  0.28624587
Direct configuration=     6
   0.01916898  0.64674851  0.20004882
   0.62757953  0.98083102  0.20004882
   0.90757136  0.32076980  0.98790183
   0.64674851  0.01916898  0.70004882
   0.09242864  0.41319845  0.48790183
   0.32076980  0.90757136  0.48790183
   0.35325149  0.37242047  0.20004882
   0.58680155  0.67923020  0.48790183
   0.98083102  0.62757953  0.70004882
   0.37242047  0.35325149  0.70004882
   0.67923020  0.58680155  0.98790183
   0.41319845  0.09242864  0.98790183
   0.21477966  0.29814031  0.46198109
   0.08336065  0.78522034  0.46198109
   0.29814031  0.21477966  0.96198109
   0.70185969  0.91663935  0.46198109
   0.00000000 -0.00000000  0.95172282
   0.07733744  0.48943618  0.78836777
   0.00000000 -0.00000000  0.45172282
   0.66666667  0.33333333  0.52950633
   0.58790127  0.51056382  0.28836777
   0.78522034  0.08336065  0.96198109
   0.91663935  0.70185969  0.96198109
   0.33333333  0.66666667  0.02950633
   0.92266256  0.41209873  0.28836777
   0.41209873  0.92266256  0.78836777
   0.51056382  0.58790127  0.78836777
   0.48943618  0.07733744  0.28836777
Direct configuration=     7
   0.01903690  0.64727032  0.20068175
   0.62823341  0.98096310  0.20068175
   0.90756776  0.32048599  0.98802531
   0.64727032  0.01903690  0.70068175
   0.09243224  0.41291823  0.48802531
   0.32048599  0.90756776  0.48802531
   0.35272968  0.37176659  0.20068175
   0.58708177  0.67951401  0.48802531
   0.98096310  0.62823341  0.70068175
   0.37176659  0.35272968  0.70068175
   0.67951401  0.58708177  0.98802531
   0.41291823  0.09243224  0.98802531
   0.21439081  0.29769207  0.46212332
   0.08330126  0.78560919  0.46212332
   0.29769207  0.21439081  0.96212332
   0.70230793  0.91669874  0.46212332
  -0.00000000 -0.00000000  0.95205009
   0.07720064  0.48920112  0.78805461
  -0.00000000 -0.00000000  0.45205009
   0.66666667  0.33333333  0.52742260
   0.58799952  0.51079888  0.28805461
   0.78560919  0.08330126  0.96212332
   0.91669874  0.70230793  0.96212332
   0.33333333  0.66666667  0.02742260
   0.92279936  0.41200048  0.28805461
   0.41200048  0.92279936  0.78805461
   0.51079888  0.58799952  0.78805461
   0.48920112  0.07720064  0.28805461
Direct configuration=     8
   0.01932537  0.64587872  0.19998582
   0.62655335  0.98067463  0.19998582
   0.90717159  0.32059238  0.98845368
   0.64587872  0.01932537  0.69998582
   0.09282841  0.41342079  0.48845368
   0.32059238  0.90717159  0.48845368
   0.35412128  0.37344665  0.19998582
   0.58657921  0.67940762  0.48845368
   0.98067463  0.62655335  0.69998582
   0.37344665  0.35412128  0.69998582
   0.67940762  0.58657921  0.98845368
   0.41342079  0.09282841  0.98845368
   0.21442787  0.30027231  0.45958735
   0.08584444  0.78557213  0.45958735
   0.30027231  0.21442787  0.95958735
   0.69972769  0.91415556  0.45958735
   0.00000000 -0.00000000  0.95011842
   0.07880973  0.48918592  0.79055889
   0.00000000 -0.00000000  0.45011842
   0.66666667  0.33333333  0.53025207
   0.58962381  0.51081408  0.29055889
   0.78557213  0.08584444  0.95958735
   0.91415556  0.69972769  0.95958735
   0.33333333  0.66666667  0.03025207
   0.92119027  0.41037619  0.29055889
   0.41037619  0.92119027  0.79055889
   0.51081408  0.58962381  0.79055889
   0.48918592  0.07880973  0.29055889
Direct configuration=     9
   0.01929154  0.64604189  0.20006742
   0.62675035  0.98070846  0.20006742
   0.90721805  0.32057991  0.98840345
   0.64604189  0.01929154  0.70006742
   0.09278195  0.41336186  0.48840345
   0.32057991  0.90721805  0.48840345
   0.35395811  0.37324965  0.20006742
   0.58663814  0.67942009  0.48840345
   0.98070846  0.62675035  0.70006742
   0.37324965  0.35395811  0.70006742
   0.67942009  0.58663814  0.98840345
   0.41336186  0.09278195  0.98840345
   0.21442352  0.29996976  0.45988471
   0.08554623  0.78557648  0.45988471
   0.29996976  0.21442352  0.95988471
   0.70003024  0.91445377  0.45988471
   0.00000000 -0.00000000  0.95034492
   0.07862106  0.48918771  0.79026524
   0.00000000 -0.00000000  0.45034492
   0.66666667  0.33333333  0.52992030
   0.58943335  0.51081229  0.29026524
   0.78557648  0.08554623  0.95988471
   0.91445377  0.70003024  0.95988471
   0.33333333  0.66666667  0.02992030
   0.92137894  0.41056665  0.29026524
   0.41056665  0.92137894  0.79026524
   0.51081229  0.58943335  0.79026524
   0.48918771  0.07862106  0.29026524
Direct configuration=    10
   0.01840634  0.64511059  0.19852294
   0.62670426  0.98159366  0.19852294
   0.90745249  0.32181037  0.99018097
   0.64511059  0.01840634  0.69852294
   0.09254751  0.41435787  0.49018097
   0.32181037  0.90745249  0.49018097
   0.35488941  0.37329574  0.19852294
   0.58564213  0.67818963  0.49018097
   0.98159366  0.62670426  0.69852294
   0.37329574  0.35488941  0.69852294
   0.67818963  0.58564213  0.99018097
   0.41435787  0.09254751  0.99018097
   0.21493716  0.30060251  0.45842076
   0.08566535  0.78506284  0.45842076
   0.30060251  0.21493716  0.95842076
   0.69939749  0.91433465  0.45842076
  -0.00000000 -0.00000000  0.94832532
   0.08005214  0.48885118  0.79200823
  -0.00000000 -0.00000000  0.44832532
   0.66666667  0.33333333  0.53040364
   0.59120096  0.51114882  0.29200823
   0.78506284  0.08566535  0.95842076
   0.91433465  0.69939749  0.95842076
   0.33333333  0.66666667  0.03040364
   0.91994786  0.40879904  0.29200823
   0.40879904  0.91994786  0.79200823
   0.51114882  0.59120096  0.79200823
   0.48885118  0.08005214  0.29200823
Direct configuration=    11
   0.01860097  0.64531536  0.19886253
   0.62671439  0.98139903  0.19886253
   0.90740095  0.32153982  0.98979014
   0.64531536  0.01860097  0.69886253
   0.09259905  0.41413888  0.48979014
   0.32153982  0.90740095  0.48979014
   0.35468464  0.37328561  0.19886253
   0.58586112  0.67846018  0.48979014
   0.98139903  0.62671439  0.69886253
   0.37328561  0.35468464  0.69886253
   0.67846018  0.58586112  0.98979014
   0.41413888  0.09259905  0.98979014
   0.21482423  0.30046338  0.45874265
   0.08563916  0.78517577  0.45874265
   0.30046338  0.21482423  0.95874265
   0.69953662  0.91436084  0.45874265
  -0.00000000 -0.00000000  0.94876937
   0.07973748  0.48892517  0.79162500
  -0.00000000 -0.00000000  0.44876937
   0.66666667  0.33333333  0.53029737
   0.59081231  0.51107483  0.29162500
   0.78517577  0.08563916  0.95874265
   0.91436084  0.69953662  0.95874265
   0.33333333  0.66666667  0.03029737
   0.92026252  0.40918769  0.29162500
   0.40918769  0.92026252  0.79162500
   0.51107483  0.59081231  0.79162500
   0.48892517  0.07973748  0.29162500
Direct configuration=    12
   0.01765675  0.64468729  0.19855198
   0.62703054  0.98234325  0.19855198
   0.90707830  0.32108776  0.99051702
   0.64468729  0.01765675  0.69855198
   0.09292170  0.41400946  0.49051702
   0.32108776  0.90707830  0.49051702
   0.35531271  0.37296946  0.19855198
   0.58599054  0.67891224  0.49051702
   0.98234325  0.62703054  0.69855198
   0.37296946  0.35531271  0.69855198
   0.67891224  0.58599054  0.99051702
   0.41400946  0.09292170  0.99051702
   0.21478746  0.30029818  0.45780946
   0.08551072  0.78521254  0.45780946
   0.30029818  0.21478746  0.95780946
   0.69970182  0.91448928  0.45780946
  -0.00000000 -0.00000000  0.94716869
   0.07991414  0.48907022  0.79248019
  -0.00000000 -0.00000000  0.44716869
   0.66666667  0.33333333  0.53088305
   0.59084392  0.51092978  0.29248019
   0.78521254  0.08551072  0.95780946
   0.91448928  0.69970182  0.95780946
   0.33333333  0.66666667  0.03088305
   0.92008586  0.40915608  0.29248019
   0.40915608  0.92008586  0.79248019
   0.51092978  0.59084392  0.79248019
   0.48907022  0.07991414  0.29248019
Direct configuration=    13
   0.01676702  0.64409547  0.19825934
   0.62732845  0.98323298  0.19825934
   0.90677427  0.32066179  0.99120195
   0.64409547  0.01676702  0.69825934
   0.09322573  0.41388752  0.49120195
   0.32066179  0.90677427  0.49120195
   0.35590453  0.37267155  0.19825934
   0.58611248  0.67933821  0.49120195
   0.98323298  0.62732845  0.69825934
   0.37267155  0.35590453  0.69825934
   0.67933821  0.58611248  0.99120195
   0.41388752  0.09322573  0.99120195
   0.21475282  0.30014250  0.45693012
   0.08538969  0.78524718  0.45693012
   0.30014250  0.21475282  0.95693012
   0.69985750  0.91461031  0.45693012
  -0.00000000 -0.00000000  0.94566037
   0.08008061  0.48920691  0.79328604
  -0.00000000 -0.00000000  0.44566037
   0.66666667  0.33333333  0.53143495
   0.59087370  0.51079309  0.29328604
   0.78524718  0.08538969  0.95693012
   0.91461031  0.69985750  0.95693012
   0.33333333  0.66666667  0.03143495
   0.91991939  0.40912630  0.29328604
   0.40912630  0.91991939  0.79328604
   0.51079309  0.59087370  0.79328604
   0.48920691  0.08008061  0.29328604
Direct configuration=    14
   0.01598965  0.64391291  0.19839315
   0.62792326  0.98401035  0.19839315
   0.90700314  0.32067671  0.99144857
   0.64391291  0.01598965  0.69839315
   0.09299686  0.41367357  0.49144857
   0.32067671  0.90700314  0.49144857
   0.35608709  0.37207674  0.19839315
   0.58632643  0.67932329  0.49144857
   0.98401035  0.62792326  0.69839315
   0.37207674  0.35608709  0.69839315
   0.67932329  0.58632643  0.99144857
   0.41367357  0.09299686  0.99144857
   0.21496591  0.30002780  0.45600701
   0.08506189  0.78503409  0.45600701
   0.30002780  0.21496591  0.95600701
   0.69997220  0.91493811  0.45600701
  -0.00000000 -0.00000000  0.94342828
   0.07968725  0.48874068  0.79405090
  -0.00000000 -0.00000000  0.44342828
   0.66666667  0.33333333  0.53300049
   0.59094657  0.51125932  0.29405090
   0.78503409  0.08506189  0.95600701
   0.91493811  0.69997220  0.95600701
   0.33333333  0.66666667  0.03300049
   0.92031275  0.40905343  0.29405090
   0.40905343  0.92031275  0.79405090
   0.51125932  0.59094657  0.79405090
   0.48874068  0.07968725  0.29405090
Direct configuration=    15
   0.01602073  0.64392021  0.19838780
   0.62789948  0.98397927  0.19838780
   0.90699399  0.32067612  0.99143871
   0.64392021  0.01602073  0.69838780
   0.09300601  0.41368213  0.49143871
   0.32067612  0.90699399  0.49143871
   0.35607979  0.37210052  0.19838780
   0.58631787  0.67932388  0.49143871
   0.98397927  0.62789948  0.69838780
   0.37210052  0.35607979  0.69838780
   0.67932388  0.58631787  0.99143871
   0.41368213  0.09300601  0.99143871
   0.21495739  0.30003238  0.45604391
   0.08507499  0.78504261  0.45604391
   0.30003238  0.21495739  0.95604391
   0.69996762  0.91492501  0.45604391
  -0.00000000 -0.00000000  0.94351751
   0.07970297  0.48875932  0.79402033
  -0.00000000 -0.00000000  0.44351751
   0.66666667  0.33333333  0.53293790
   0.59094365  0.51124068  0.29402033
   0.78504261  0.08507499  0.95604391
   0.91492501  0.69996762  0.95604391
   0.33333333  0.66666667  0.03293790
   0.92029703  0.40905635  0.29402033
   0.40905635  0.92029703  0.79402033
   0.51124068  0.59094365  0.79402033
   0.48875932  0.07970297  0.29402033
Direct configuration=    16
   0.01560053  0.64379206  0.19839392
   0.62819154  0.98439947  0.19839392
   0.90706278  0.32045460  0.99154280
   0.64379206  0.01560053  0.69839392
   0.09293722  0.41339182  0.49154280
   0.32045460  0.90706278  0.49154280
   0.35620794  0.37180846  0.19839392
   0.58660818  0.67954540  0.49154280
   0.98439947  0.62819154  0.69839392
   0.37180846  0.35620794  0.69839392
   0.67954540  0.58660818  0.99154280
   0.41339182  0.09293722  0.99154280
   0.21476223  0.30002306  0.45618556
   0.08526083  0.78523777  0.45618556
   0.30002306  0.21476223  0.95618556
   0.69997694  0.91473917  0.45618556
  -0.00000000 -0.00000000  0.94159788
   0.07965028  0.48848054  0.79407830
  -0.00000000 -0.00000000  0.44159788
   0.66666667  0.33333333  0.53392807
   0.59116974  0.51151946  0.29407830
   0.78523777  0.08526083  0.95618556
   0.91473917  0.69997694  0.95618556
   0.33333333  0.66666667  0.03392807
   0.92034972  0.40883026  0.29407830
   0.40883026  0.92034972  0.79407830
   0.51151946  0.59116974  0.79407830
   0.48848054  0.07965028  0.29407830
Direct configuration=    17
   0.01549658  0.64376037  0.19839543
   0.62826378  0.98450342  0.19839543
   0.90707980  0.32039980  0.99156855
   0.64376037  0.01549658  0.69839543
   0.09292020  0.41332000  0.49156855
   0.32039980  0.90707980  0.49156855
   0.35623963  0.37173622  0.19839543
   0.58668000  0.67960020  0.49156855
   0.98450342  0.62826378  0.69839543
   0.37173622  0.35623963  0.69839543
   0.67960020  0.58668000  0.99156855
   0.41332000  0.09292020  0.99156855
   0.21471396  0.30002076  0.45622060
   0.08530680  0.78528604  0.45622060
   0.30002076  0.21471396  0.95622060
   0.69997924  0.91469320  0.45622060
  -0.00000000 -0.00000000  0.94112303
   0.07963725  0.48841158  0.79409264
  -0.00000000 -0.00000000  0.44112303
   0.66666667  0.33333333  0.53417300
   0.59122567  0.51158842  0.29409264
   0.78528604  0.08530680  0.95622060
   0.91469320  0.69997924  0.95622060
   0.33333333  0.66666667  0.03417300
   0.92036275  0.40877433  0.29409264
   0.40877433  0.92036275  0.79409264
   0.51158842  0.59122567  0.79409264
   0.48841158  0.07963725  0.29409264
Direct configuration=    18
   0.01530179  0.64364518  0.19870781
   0.62834338  0.98469821  0.19870781
   0.90722301  0.32040758  0.99161461
   0.64364518  0.01530179  0.69870781
   0.09277699  0.41318457  0.49161461
   0.32040758  0.90722301  0.49161461
   0.35635482  0.37165662  0.19870781
   0.58681543  0.67959242  0.49161461
   0.98469821  0.62834338  0.69870781
   0.37165662  0.35635482  0.69870781
   0.67959242  0.58681543  0.99161461
   0.41318457  0.09277699  0.99161461
   0.21467228  0.29993559  0.45634052
   0.08526331  0.78532772  0.45634052
   0.29993559  0.21467228  0.95634052
   0.70006441  0.91473669  0.45634052
  -0.00000000 -0.00000000  0.93928127
   0.07983406  0.48844346  0.79408794
  -0.00000000 -0.00000000  0.43928127
   0.66666667  0.33333333  0.53459377
   0.59139060  0.51155654  0.29408794
   0.78532772  0.08526331  0.95634052
   0.91473669  0.70006441  0.95634052
   0.33333333  0.66666667  0.03459377
   0.92016594  0.40860940  0.29408794
   0.40860940  0.92016594  0.79408794
   0.51155654  0.59139060  0.79408794
   0.48844346  0.07983406  0.29408794
Direct configuration=    19
   0.01471742  0.64329962  0.19964496
   0.62858219  0.98528258  0.19964496
   0.90765263  0.32043089  0.99175278
   0.64329962  0.01471742  0.69964496
   0.09234737  0.41277826  0.49175278
   0.32043089  0.90765263  0.49175278
   0.35670038  0.37141781  0.19964496
   0.58722174  0.67956911  0.49175278
   0.98528258  0.62858219  0.69964496
   0.37141781  0.35670038  0.69964496
   0.67956911  0.58722174  0.99175278
   0.41277826  0.09234737  0.99175278
   0.21454725  0.29968009  0.45670030
   0.08513284  0.78545275  0.45670030
   0.29968009  0.21454725  0.95670030
   0.70031991  0.91486716  0.45670030
   0.00000000 -0.00000000  0.93375597
   0.08042449  0.48853908  0.79407384
   0.00000000 -0.00000000  0.43375597
   0.66666667  0.33333333  0.53585609
   0.59188541  0.51146092  0.29407384
   0.78545275  0.08513284  0.95670030
   0.91486716  0.70031991  0.95670030
   0.33333333  0.66666667  0.03585609
   0.91957551  0.40811459  0.29407384
   0.40811459  0.91957551  0.79407384
   0.51146092  0.59188541  0.79407384
   0.48853908  0.08042449  0.29407384
Direct configuration=    20
   0.01354869  0.64260850  0.20151926
   0.62905981  0.98645131  0.20151926
   0.90851188  0.32047752  0.99202912
   0.64260850  0.01354869  0.70151926
   0.09148812  0.41196564  0.49202912
   0.32047752  0.90851188  0.49202912
   0.35739150  0.37094019  0.20151926
   0.58803436  0.67952248  0.49202912
   0.98645131  0.62905981  0.70151926
   0.37094019  0.35739150  0.70151926
   0.67952248  0.58803436  0.99202912
   0.41196564  0.09148812  0.99202912
   0.21429719  0.29916909  0.45741985
   0.08487190  0.78570281  0.45741985
   0.29916909  0.21429719  0.95741985
   0.70083091  0.91512810  0.45741985
   0.00000000 -0.00000000  0.92270539
   0.08160535  0.48873033  0.79404563
   0.00000000 -0.00000000  0.42270539
   0.66666667  0.33333333  0.53838073
   0.59287502  0.51126967  0.29404563
   0.78570281  0.08487190  0.95741985
   0.91512810  0.70083091  0.95741985
   0.33333333  0.66666667  0.03838073
   0.91839465  0.40712498  0.29404563
   0.40712498  0.91839465  0.79404563
   0.51126967  0.59287502  0.79404563
   0.48873033  0.08160535  0.29404563
Direct configuration=    21
   0.01339523  0.64254377  0.20166849
   0.62914854  0.98660477  0.20166849
   0.90860161  0.32042555  0.99197937
   0.64254377  0.01339523  0.70166849
   0.09139839  0.41182395  0.49197937
   0.32042555  0.90860161  0.49197937
   0.35745623  0.37085146  0.20166849
   0.58817605  0.67957445  0.49197937
   0.98660477  0.62914854  0.70166849
   0.37085146  0.35745623  0.70166849
   0.67957445  0.58817605  0.99197937
   0.41182395  0.09139839  0.99197937
   0.21434388  0.29917436  0.45766766
   0.08483048  0.78565612  0.45766766
   0.29917436  0.21434388  0.95766766
   0.70082564  0.91516952  0.45766766
   0.00000000 -0.00000000  0.92092172
   0.08175874  0.48880917  0.79421649
   0.00000000 -0.00000000  0.42092172
   0.66666667  0.33333333  0.53860994
   0.59294957  0.51119083  0.29421649
   0.78565612  0.08483048  0.95766766
   0.91516952  0.70082564  0.95766766
   0.33333333  0.66666667  0.03860994
   0.91824126  0.40705043  0.29421649
   0.40705043  0.91824126  0.79421649
   0.51119083  0.59294957  0.79421649
   0.48880917  0.08175874  0.29421649
Direct configuration=    22
   0.01298160  0.64236930  0.20207072
   0.62938770  0.98701840  0.20207072
   0.90884346  0.32028549  0.99184528
   0.64236930  0.01298160  0.70207072
   0.09115654  0.41144203  0.49184528
   0.32028549  0.90884346  0.49184528
   0.35763070  0.37061230  0.20207072
   0.58855797  0.67971451  0.49184528
   0.98701840  0.62938770  0.70207072
   0.37061230  0.35763070  0.70207072
   0.67971451  0.58855797  0.99184528
   0.41144203  0.09115654  0.99184528
   0.21446973  0.29918859  0.45833559
   0.08471886  0.78553027  0.45833559
   0.29918859  0.21446973  0.95833559
   0.70081141  0.91528114  0.45833559
   0.00000000 -0.00000000  0.91611416
   0.08217219  0.48902169  0.79467699
   0.00000000 -0.00000000  0.41611416
   0.66666667  0.33333333  0.53922776
   0.59315051  0.51097831  0.29467699
   0.78553027  0.08471886  0.95833559
   0.91528114  0.70081141  0.95833559
   0.33333333  0.66666667  0.03922776
   0.91782781  0.40684949  0.29467699
   0.40684949  0.91782781  0.79467699
   0.51097831  0.59315051  0.79467699
   0.48902169  0.08217219  0.29467699
Direct configuration=    23
   0.01305636  0.64237881  0.20205767
   0.62932246  0.98694364  0.20205767
   0.90879680  0.32027947  0.99190928
   0.64237881  0.01305636  0.70205767
   0.09120320  0.41148267  0.49190928
   0.32027947  0.90879680  0.49190928
   0.35762119  0.37067754  0.20205767
   0.58851733  0.67972053  0.49190928
   0.98694364  0.62932246  0.70205767
   0.37067754  0.35762119  0.70205767
   0.67972053  0.58851733  0.99190928
   0.41148267  0.09120320  0.99190928
   0.21447509  0.29918290  0.45837061
   0.08470780  0.78552491  0.45837061
   0.29918290  0.21447509  0.95837061
   0.70081710  0.91529220  0.45837061
   0.00000000 -0.00000000  0.91568209
   0.08207607  0.48900470  0.79476032
   0.00000000 -0.00000000  0.41568209
   0.66666667  0.33333333  0.53915191
   0.59307138  0.51099530  0.29476032
   0.78552491  0.08470780  0.95837061
   0.91529220  0.70081710  0.95837061
   0.33333333  0.66666667  0.03915191
   0.91792393  0.40692862  0.29476032
   0.40692862  0.91792393  0.79476032
   0.51099530  0.59307138  0.79476032
   0.48900470  0.08207607  0.29476032
Direct configuration=    24
   0.01328062  0.64240733  0.20201853
   0.62912672  0.98671938  0.20201853
   0.90865681  0.32026140  0.99210129
   0.64240733  0.01328062  0.70201853
   0.09134319  0.41160459  0.49210129
   0.32026140  0.90865681  0.49210129
   0.35759267  0.37087328  0.20201853
   0.58839541  0.67973860  0.49210129
   0.98671938  0.62912672  0.70201853
   0.37087328  0.35759267  0.70201853
   0.67973860  0.58839541  0.99210129
   0.41160459  0.09134319  0.99210129
   0.21449118  0.29916583  0.45847569
   0.08467465  0.78550882  0.45847569
   0.29916583  0.21449118  0.95847569
   0.70083417  0.91532535  0.45847569
   0.00000000 -0.00000000  0.91438588
   0.08178771  0.48895373  0.79501030
   0.00000000 -0.00000000  0.41438588
   0.66666667  0.33333333  0.53892436
   0.59283398  0.51104627  0.29501030
   0.78550882  0.08467465  0.95847569
   0.91532535  0.70083417  0.95847569
   0.33333333  0.66666667  0.03892436
   0.91821229  0.40716602  0.29501030
   0.40716602  0.91821229  0.79501030
   0.51104627  0.59283398  0.79501030
   0.48895373  0.08178771  0.29501030
Direct configuration=    25
   0.01372914  0.64246438  0.20194024
   0.62873524  0.98627086  0.20194024
   0.90837684  0.32022526  0.99248531
   0.64246438  0.01372914  0.70194024
   0.09162316  0.41184842  0.49248531
   0.32022526  0.90837684  0.49248531
   0.35753562  0.37126476  0.20194024
   0.58815158  0.67977474  0.49248531
   0.98627086  0.62873524  0.70194024
   0.37126476  0.35753562  0.70194024
   0.67977474  0.58815158  0.99248531
   0.41184842  0.09162316  0.99248531
   0.21452335  0.29913169  0.45868584
   0.08460834  0.78547665  0.45868584
   0.29913169  0.21452335  0.95868584
   0.70086831  0.91539166  0.45868584
   0.00000000 -0.00000000  0.91179347
   0.08121099  0.48885179  0.79551026
   0.00000000 -0.00000000  0.41179347
   0.66666667  0.33333333  0.53846926
   0.59235920  0.51114821  0.29551026
   0.78547665  0.08460834  0.95868584
   0.91539166  0.70086831  0.95868584
   0.33333333  0.66666667  0.03846926
   0.91878901  0.40764080  0.29551026
   0.40764080  0.91878901  0.79551026
   0.51114821  0.59235920  0.79551026
   0.48885179  0.08121099  0.29551026
Direct configuration=    26
   0.01462618  0.64257847  0.20178366
   0.62795229  0.98537382  0.20178366
   0.90781689  0.32015297  0.99325334
   0.64257847  0.01462618  0.70178366
   0.09218311  0.41233608  0.49325334
   0.32015297  0.90781689  0.49325334
   0.35742153  0.37204771  0.20178366
   0.58766392  0.67984703  0.49325334
   0.98537382  0.62795229  0.70178366
   0.37204771  0.35742153  0.70178366
   0.67984703  0.58766392  0.99325334
   0.41233608  0.09218311  0.99325334
   0.21458770  0.29906342  0.45910614
   0.08447572  0.78541230  0.45910614
   0.29906342  0.21458770  0.95910614
   0.70093658  0.91552428  0.45910614
   0.00000000 -0.00000000  0.90660865
   0.08005754  0.48864791  0.79651018
   0.00000000 -0.00000000  0.40660865
   0.66666667  0.33333333  0.53755906
   0.59140963  0.51135209  0.29651018
   0.78541230  0.08447572  0.95910614
   0.91552428  0.70093658  0.95910614
   0.33333333  0.66666667  0.03755906
   0.91994246  0.40859037  0.29651018
   0.40859037  0.91994246  0.79651018
   0.51135209  0.59140963  0.79651018
   0.48864791  0.08005754  0.29651018
Direct configuration=    27
   0.01480584  0.64295928  0.20170237
   0.62815344  0.98519416  0.20170237
   0.90769584  0.32001847  0.99360251
   0.64295928  0.01480584  0.70170237
   0.09230416  0.41232264  0.49360251
   0.32001847  0.90769584  0.49360251
   0.35704072  0.37184656  0.20170237
   0.58767736  0.67998153  0.49360251
   0.98519416  0.62815344  0.70170237
   0.37184656  0.35704072  0.70170237
   0.67998153  0.58767736  0.99360251
   0.41232264  0.09230416  0.99360251
   0.21455214  0.29908633  0.45911508
   0.08453419  0.78544786  0.45911508
   0.29908633  0.21455214  0.95911508
   0.70091367  0.91546581  0.45911508
   0.00000000 -0.00000000  0.90653218
   0.08028914  0.48856462  0.79631431
   0.00000000 -0.00000000  0.40653218
   0.66666667  0.33333333  0.53739268
   0.59172452  0.51143538  0.29631431
   0.78544786  0.08453419  0.95911508
   0.91546581  0.70091367  0.95911508
   0.33333333  0.66666667  0.03739268
   0.91971086  0.40827548  0.29631431
   0.40827548  0.91971086  0.79631431
   0.51143538  0.59172452  0.79631431
   0.48856462  0.08028914  0.29631431
Direct configuration=    28
   0.01493567  0.64323449  0.20164363
   0.62829881  0.98506433  0.20164363
   0.90760835  0.31992127  0.99385485
   0.64323449  0.01493567  0.70164363
   0.09239165  0.41231292  0.49385485
   0.31992127  0.90760835  0.49385485
   0.35676551  0.37170119  0.20164363