  14  14   0   0
  0.1200050E+02  0.8200917E-09  0.8200917E-09  0.2884509E-09  0.5000000E-15
  1.000000000000000E-004
  CAR 
 unknown system                          
     14.55950873    -11.74735657  301      8.64582526      1.00000000
    -11.747  0.0000E+00  0.0000E+00
    -11.660  0.0000E+00  0.0000E+00
    -11.572  0.0000E+00  0.0000E+00
    -11.484  0.0000E+00  0.0000E+00
    -11.397  0.3151E-32  0.2763E-33
    -11.309  0.2858E-26  0.2506E-27
    -11.221  0.5362E-21  0.4702E-22
    -11.134  0.2074E-16  0.1818E-17
    -11.046  0.1639E-12  0.1437E-13
    -10.958  0.2636E-09  0.2313E-10
    -10.870  0.8458E-07  0.7440E-08
    -10.783  0.4895E-05  0.4367E-06
    -10.695  0.2283E-04  0.2438E-05
    -10.607 -0.2055E-03 -0.1558E-04
    -10.520  0.1635E-02  0.1278E-03
    -10.432  0.7794E-02  0.8112E-03
    -10.344  0.1300E-01  0.1951E-02
    -10.257  0.2062E-01  0.3759E-02
    -10.169  0.1563E-01  0.5130E-02
    -10.081  0.1620E-01  0.6550E-02
     -9.994  0.2468E-01  0.8714E-02
     -9.906  0.2784E-01  0.1116E-01
     -9.818  0.4439E-01  0.1505E-01
     -9.730  0.4286E-01  0.1881E-01
     -9.643  0.4208E-01  0.2250E-01
     -9.555  0.3276E-01  0.2537E-01
     -9.467  0.1912E-01  0.2705E-01
     -9.380  0.2950E-01  0.2963E-01
     -9.292  0.2320E-01  0.3167E-01
     -9.204  0.2631E-01  0.3397E-01
     -9.117  0.2320E-01  0.3601E-01
     -9.029  0.1298E-01  0.3715E-01
     -8.941  0.3824E-01  0.4050E-01
     -8.854  0.6188E-01  0.4593E-01
     -8.766  0.6458E-01  0.5159E-01
     -8.678  0.4965E-01  0.5594E-01
     -8.591  0.5278E-01  0.6057E-01
     -8.503  0.5521E-01  0.6541E-01
     -8.415  0.5731E-01  0.7044E-01
     -8.327  0.2911E-01  0.7299E-01
     -8.240  0.6529E-01  0.7872E-01
     -8.152  0.7587E-01  0.8537E-01
     -8.064  0.7564E-01  0.9200E-01
     -7.977  0.1096E+00  0.1016E+00
     -7.889  0.8484E-01  0.1091E+00
     -7.801  0.5118E-01  0.1135E+00
     -7.714  0.4485E-01  0.1175E+00
     -7.626  0.2836E-01  0.1200E+00
     -7.538  0.7681E-03  0.1200E+00
     -7.451 -0.4731E-03  0.1200E+00
     -7.363  0.1143E-03  0.1200E+00
     -7.275  0.4248E-05  0.1200E+00
     -7.187  0.2027E-07  0.1200E+00
     -7.100  0.1712E-10  0.1200E+00
     -7.012  0.2814E-14  0.1200E+00
     -6.924  0.0000E+00  0.1200E+00
     -6.837  0.0000E+00  0.1200E+00
     -6.749  0.0000E+00  0.1200E+00
     -6.661  0.0000E+00  0.1200E+00
     -6.574  0.0000E+00  0.1200E+00
     -6.486  0.0000E+00  0.1200E+00
     -6.398  0.0000E+00  0.1200E+00
     -6.311  0.0000E+00  0.1200E+00
     -6.223  0.0000E+00  0.1200E+00
     -6.135  0.0000E+00  0.1200E+00
     -6.048  0.0000E+00  0.1200E+00
     -5.960  0.0000E+00  0.1200E+00
     -5.872  0.0000E+00  0.1200E+00
     -5.784  0.0000E+00  0.1200E+00
     -5.697  0.0000E+00  0.1200E+00
     -5.609  0.0000E+00  0.1200E+00
     -5.521  0.0000E+00  0.1200E+00
     -5.434  0.0000E+00  0.1200E+00
     -5.346  0.0000E+00  0.1200E+00
     -5.258  0.0000E+00  0.1200E+00
     -5.171  0.0000E+00  0.1200E+00
     -5.083  0.0000E+00  0.1200E+00
     -4.995  0.0000E+00  0.1200E+00
     -4.908  0.0000E+00  0.1200E+00
     -4.820  0.0000E+00  0.1200E+00
     -4.732  0.0000E+00  0.1200E+00
     -4.645  0.0000E+00  0.1200E+00
     -4.557  0.0000E+00  0.1200E+00
     -4.469  0.0000E+00  0.1200E+00
     -4.381  0.0000E+00  0.1200E+00
     -4.294  0.0000E+00  0.1200E+00
     -4.206  0.0000E+00  0.1200E+00
     -4.118  0.0000E+00  0.1200E+00
     -4.031  0.1768E-33  0.1200E+00
     -3.943  0.2334E-27  0.1200E+00
     -3.855  0.6341E-22  0.1200E+00
     -3.768  0.3504E-17  0.1200E+00
     -3.680  0.3879E-13  0.1200E+00
     -3.592  0.8356E-10  0.1200E+00
     -3.505  0.3388E-07  0.1200E+00
     -3.417  0.2466E-05  0.1200E+00
     -3.329  0.2651E-04  0.1200E+00
     -3.241 -0.1126E-03  0.1200E+00
     -3.154  0.3314E-03  0.1200E+00
     -3.066  0.9320E-02  0.1208E+00
     -2.978  0.1104E-01  0.1218E+00
     -2.891  0.1388E-01  0.1230E+00
     -2.803  0.1356E-01  0.1242E+00
     -2.715  0.6218E-02  0.1248E+00
     -2.628  0.1361E-01  0.1260E+00
     -2.540  0.1001E-01  0.1268E+00
     -2.452  0.8568E-02  0.1276E+00
     -2.365  0.9392E-02  0.1284E+00
     -2.277  0.9957E-02  0.1293E+00
     -2.189  0.1240E-01  0.1304E+00
     -2.102  0.1389E-01  0.1316E+00
     -2.014  0.5183E-01  0.1361E+00
     -1.926  0.7600E-01  0.1428E+00
     -1.838  0.7334E-01  0.1492E+00
     -1.751  0.7400E-01  0.1557E+00
     -1.663  0.8372E-01  0.1631E+00
     -1.575  0.6269E-01  0.1686E+00
     -1.488  0.5011E-01  0.1729E+00
     -1.400  0.4400E-01  0.1768E+00
     -1.312  0.6534E-01  0.1825E+00
     -1.225  0.5772E-01  0.1876E+00
     -1.137  0.5694E-01  0.1926E+00
     -1.049  0.4890E-01  0.1969E+00
     -0.962  0.6172E-01  0.2023E+00
     -0.874  0.4601E-01  0.2063E+00
     -0.786  0.5226E-01  0.2109E+00
     -0.698  0.4267E-01  0.2146E+00
     -0.611  0.2597E-01  0.2169E+00
     -0.523  0.4139E-01  0.2206E+00
     -0.435  0.1716E-01  0.2221E+00
     -0.348  0.6178E-02  0.2226E+00
     -0.260  0.1621E-01  0.2240E+00
     -0.172  0.3978E-01  0.2275E+00
     -0.085  0.4062E-01  0.2311E+00
      0.003  0.1473E-01  0.2324E+00
      0.091  0.1777E-01  0.2339E+00
      0.178  0.4094E-01  0.2375E+00
      0.266  0.3457E-01  0.2405E+00
      0.354  0.3086E-01  0.2432E+00
      0.441  0.3977E-01  0.2467E+00
      0.529  0.6949E-01  0.2528E+00
      0.617  0.4517E-01  0.2568E+00
      0.705  0.2082E-01  0.2586E+00
      0.792  0.3970E-01  0.2621E+00
      0.880  0.5264E-01  0.2667E+00
      0.968  0.6019E-01  0.2720E+00
      1.055  0.5862E-01  0.2771E+00
      1.143  0.8787E-01  0.2848E+00
      1.231  0.6349E-01  0.2904E+00
      1.318  0.5688E-01  0.2954E+00
      1.406  0.5662E-01  0.3004E+00
      1.494  0.5766E-01  0.3054E+00
      1.581  0.6250E-01  0.3109E+00
      1.669  0.5499E-01  0.3157E+00
      1.757  0.5129E-01  0.3202E+00
      1.845  0.3710E-01  0.3235E+00
      1.932  0.4972E-01  0.3278E+00
      2.020  0.8177E-01  0.3350E+00
      2.108  0.8088E-01  0.3421E+00
      2.195  0.6314E-01  0.3476E+00
      2.283  0.5296E-01  0.3523E+00
      2.371  0.4432E-01  0.3562E+00
      2.458  0.4443E-01  0.3601E+00
      2.546  0.6532E-01  0.3658E+00
      2.634  0.5738E-01  0.3708E+00
      2.721  0.4917E-01  0.3751E+00
      2.809  0.7623E-01  0.3818E+00
      2.897  0.5786E-01  0.3869E+00
      2.984  0.6500E-01  0.3926E+00
      3.072  0.5693E-01  0.3976E+00
      3.160  0.5159E-01  0.4021E+00
      3.248  0.4697E-01  0.4062E+00
      3.335  0.5252E-01  0.4108E+00
      3.423  0.5880E-01  0.4160E+00
      3.511  0.6075E-01  0.4213E+00
      3.598  0.9949E-01  0.4300E+00
      3.686  0.9018E-01  0.4379E+00
      3.774  0.5820E-01  0.4430E+00
      3.861  0.7563E-01  0.4497E+00
      3.949  0.7266E-01  0.4560E+00
      4.037  0.4861E-01  0.4603E+00
      4.124  0.7050E-01  0.4665E+00
      4.212  0.5239E-01  0.4711E+00
      4.300  0.3469E-01  0.4741E+00
      4.388  0.4735E-01  0.4783E+00
      4.475  0.7745E-02  0.4790E+00
      4.563  0.1671E-02  0.4791E+00
      4.651  0.1249E-01  0.4802E+00
      4.738  0.2601E-01  0.4825E+00
      4.826  0.4412E-01  0.4863E+00
      4.914  0.3568E-01  0.4895E+00
      5.001  0.2151E-01  0.4914E+00
      5.089  0.2233E-01  0.4933E+00
      5.177  0.3436E-01  0.4963E+00
      5.264  0.3336E-01  0.4993E+00
      5.352  0.1516E-01  0.5006E+00
      5.440  0.2861E-01  0.5031E+00
      5.527  0.4037E-01  0.5066E+00
      5.615  0.3077E-01  0.5093E+00
      5.703  0.6112E-01  0.5147E+00
      5.791  0.8858E-01  0.5225E+00
      5.878  0.7721E-01  0.5292E+00
      5.966  0.8959E-01  0.5371E+00
      6.054  0.8473E-01  0.5445E+00
      6.141  0.6168E-01  0.5499E+00
      6.229  0.5723E-01  0.5549E+00
      6.317  0.4991E-01  0.5593E+00
      6.404  0.5855E-01  0.5645E+00
      6.492  0.6336E-01  0.5700E+00
      6.580  0.1783E-01  0.5716E+00
      6.667  0.1005E-01  0.5725E+00
      6.755  0.8414E-02  0.5732E+00
      6.843  0.1851E-01  0.5748E+00
      6.931  0.2804E-01  0.5773E+00
      7.018  0.2441E-01  0.5794E+00
      7.106  0.1465E-01  0.5807E+00
      7.194  0.1527E-01  0.5820E+00
      7.281  0.1542E-01  0.5834E+00
      7.369  0.1169E-01  0.5844E+00
      7.457  0.8920E-02  0.5852E+00
      7.544  0.1456E-01  0.5865E+00
      7.632  0.9753E-02  0.5873E+00
      7.720  0.1817E-01  0.5889E+00
      7.807  0.2404E-01  0.5910E+00
      7.895  0.2549E-01  0.5933E+00
      7.983  0.2815E-01  0.5957E+00
      8.070  0.4324E-01  0.5995E+00
      8.158  0.3207E-01  0.6023E+00
      8.246  0.3570E-01  0.6055E+00
      8.334  0.4632E-01  0.6095E+00
      8.421  0.2459E-01  0.6117E+00
      8.509  0.1853E-01  0.6133E+00
      8.597  0.4763E-01  0.6175E+00
      8.684  0.4840E-01  0.6217E+00
      8.772  0.5486E-01  0.6265E+00
      8.860  0.6055E-01  0.6319E+00
      8.947  0.2943E-01  0.6344E+00
      9.035  0.1819E-01  0.6360E+00
      9.123  0.1886E-01  0.6377E+00
      9.210  0.1841E-01  0.6393E+00
      9.298  0.1857E-01  0.6409E+00
      9.386  0.8967E-02  0.6417E+00
      9.474  0.1700E-01  0.6432E+00
      9.561  0.2125E-01  0.6451E+00
      9.649  0.4535E-01  0.6490E+00
      9.737  0.4548E-01  0.6530E+00
      9.824  0.3028E-01  0.6557E+00
      9.912  0.3292E-01  0.6586E+00
     10.000  0.3283E-01  0.6615E+00
     10.087  0.4520E-01  0.6654E+00
     10.175  0.4151E-01  0.6691E+00
     10.263  0.2965E-01  0.6717E+00
     10.350  0.2290E-01  0.6737E+00
     10.438  0.5044E-01  0.6781E+00
     10.526  0.5575E-01  0.6830E+00
     10.613  0.2025E-01  0.6848E+00
     10.701  0.2904E-01  0.6873E+00
     10.789  0.3917E-01  0.6907E+00
     10.877  0.4562E-01  0.6947E+00
     10.964  0.3285E-01  0.6976E+00
     11.052  0.3362E-01  0.7006E+00
     11.140  0.3510E-01  0.7036E+00
     11.227  0.4439E-01  0.7075E+00
     11.315  0.4586E-01  0.7116E+00
     11.403  0.5792E-01  0.7166E+00
     11.490  0.6441E-01  0.7223E+00
     11.578  0.5539E-01  0.7271E+00
     11.666  0.9551E-01  0.7355E+00
     11.753  0.9340E-01  0.7437E+00
     11.841  0.6556E-01  0.7495E+00
     11.929  0.4590E-01  0.7535E+00
     12.017  0.4850E-01  0.7577E+00
     12.104  0.4418E-01  0.7616E+00
     12.192  0.3830E-01  0.7650E+00
     12.280  0.3474E-01  0.7680E+00
     12.367  0.3787E-01  0.7713E+00
     12.455  0.4364E-01  0.7752E+00
     12.543  0.5047E-01  0.7796E+00
     12.630  0.4299E-01  0.7834E+00
     12.718  0.4543E-01  0.7873E+00
     12.806  0.3615E-01  0.7905E+00
     12.893  0.3287E-01  0.7934E+00
     12.981  0.2614E-01  0.7957E+00
     13.069  0.2181E-01  0.7976E+00
     13.156  0.1249E-01  0.7987E+00
     13.244  0.8575E-02  0.7994E+00
     13.332  0.4100E-02  0.7998E+00
     13.420  0.2340E-02  0.8000E+00
     13.507 -0.5473E-04  0.8000E+00
     13.595 -0.1938E-04  0.8000E+00
     13.683  0.8424E-05  0.8000E+00
     13.770  0.2072E-06  0.8000E+00
     13.858  0.7039E-09  0.8000E+00
     13.946  0.4260E-12  0.8000E+00
     14.033  0.4981E-16  0.8000E+00
     14.121  0.0000E+00  0.8000E+00
     14.209  0.0000E+00  0.8000E+00
     14.296  0.0000E+00  0.8000E+00
     14.384  0.0000E+00  0.8000E+00
     14.472  0.0000E+00  0.8000E+00
     14.560  0.0000E+00  0.8000E+00
