   14   14  100    1
  0.1200050E+02  0.8200917E-09  0.8200917E-09  0.2884509E-09  0.5000000E-15
  1.000000000000000E-004
  CAR 
 unknown system                          
     62     72     40
 
  0.3742002E-15  0.3742002E-15  0.3742002E-15  0.1736111E-02
    1      -10.551590   1.000000
    2       -9.755690   1.000000
    3       -9.755689   1.000000
    4       -8.877401   1.000000
    5       -8.877401   1.000000
    6       -8.365644   1.000000
    7       -2.287572   1.000000
    8       -2.093075   1.000000
    9       -2.083684   1.000000
   10       -2.083683   1.000000
   11       -0.689901   1.000000
   12        0.692495   1.000000
   13        0.692495   1.000000
   14        1.960254   1.000000
   15        1.960255   1.000000
   16        2.918982   1.000000
   17        2.918983   1.000000
   18        3.044629   1.000000
   19        3.230823   1.000000
   20        3.670641   1.000000
   21        3.670641   1.000000
   22        4.308214   1.000000
   23        4.308215   1.000000
   24        4.319695   1.000000
   25        4.653946   1.000000
   26        5.279136   1.000000
   27        6.311668   1.000000
   28        6.311669   1.000000
   29        7.449392   1.000000
   30        8.049908   1.000000
   31        8.049909   1.000000
   32       11.114108   0.000000
   33       11.114109   0.000000
   34       11.227451   0.000000
   35       11.638313   0.000000
   36       11.638314   0.000000
   37       12.284815   0.000000
   38       13.035006   0.000000
   39       13.035006   0.000000
   40       13.363742   0.000000
 
  0.1666667E+00  0.3723418E-15  0.3742002E-15  0.1041667E-01
    1      -10.511722   1.000000
    2       -9.819811   1.000000
    3       -9.776028   1.000000
    4       -8.929277   1.000000
    5       -8.840745   1.000000
    6       -8.283734   1.000000
    7       -2.597111   1.000000
    8       -2.218598   1.000000
    9       -2.061782   1.000000
   10       -1.555563   1.000000
   11       -0.814879   1.000000
   12        0.564797   1.000000
   13        0.787220   1.000000
   14        1.828240   1.000000
   15        1.978382   1.000000
   16        2.784611   1.000000
   17        2.991993   1.000000
   18        3.250352   1.000000
   19        3.256949   1.000000
   20        3.645032   1.000000
   21        3.664571   1.000000
   22        4.296151   1.000000
   23        4.319100   1.000000
   24        4.473599   1.000000
   25        4.674522   1.000000
   26        5.447728   1.000000
   27        6.007730   1.000000
   28        6.112985   1.000000
   29        7.377551   1.000000
   30        8.239972   0.999999
   31        8.330688   0.999857
   32       10.893394   0.000000
   33       11.128097   0.000000
   34       11.241705   0.000000
   35       11.461379   0.000000
   36       11.638638   0.000000
   37       12.427092   0.000000
   38       12.731309   0.000000
   39       12.961309   0.000000
   40       13.351683   0.000000
 
  0.3333333E+00  0.3761933E-15  0.3742002E-15  0.1041667E-01
    1      -10.400799   1.000000
    2       -9.980786   1.000000
    3       -9.813075   1.000000
    4       -8.995071   1.000000
    5       -8.770076   1.000000
    6       -8.157364   1.000000
    7       -2.952561   1.000000
    8       -2.037725   1.000000
    9       -2.007649   1.000000
   10       -1.288033   1.000000
   11       -0.967342   1.000000
   12        0.330426   1.000000
   13        1.054180   1.000000
   14        1.613004   1.000000
   15        1.853300   1.000000
   16        2.705590   1.000000
   17        3.213550   1.000000
   18        3.296717   1.000000
   19        3.538442   1.000000
   20        3.585940   1.000000
   21        3.651704   1.000000
   22        4.274222   1.000000
   23        4.338765   1.000000
   24        4.610952   1.000000
   25        4.708016   1.000000
   26        5.384101   1.000000
   27        5.863897   1.000000
   28        6.020087   1.000000
   29        7.128783   1.000000
   30        8.492899   1.008881
   31        8.921945   0.000832
   32       10.361160   0.000000
   33       10.935318   0.000000
   34       11.138508   0.000000
   35       11.454705   0.000000
   36       11.662414   0.000000
   37       12.315354   0.000000
   38       12.736296   0.000000
   39       12.767842   0.000000
   40       13.011083   0.000000
 
  0.5000000E+00  0.3248185E-15  0.3742002E-15  0.5208333E-02
    1      -10.289724   1.000000
    2      -10.116968   1.000000
    3       -9.830139   1.000000
    4       -9.017850   1.000000
    5       -8.735705   1.000000
    6       -8.104734   1.000000
    7       -3.079715   1.000000
    8       -1.992113   1.000000
    9       -1.861605   1.000000
   10       -1.436033   1.000000
   11       -0.881143   1.000000
   12        0.219679   1.000000
   13        1.286417   1.000000
   14        1.559312   1.000000
   15        1.638603   1.000000
   16        2.679515   1.000000
   17        3.328660   1.000000
   18        3.365534   1.000000
   19        3.546605   1.000000
   20        3.645851   1.000000
   21        3.673504   1.000000
   22        4.264834   1.000000
   23        4.347297   1.000000
   24        4.658666   1.000000
   25        4.721659   1.000000
   26        5.051793   1.000000
   27        5.813587   1.000000
   28        6.457246   1.000000
   29        6.832607   1.000000
   30        8.566464   1.040282
   31        9.553421   0.000000
   32        9.723694   0.000000
   33       10.757637   0.000000
   34       11.082988   0.000000
   35       11.563189   0.000000
   36       11.700103   0.000000
   37       12.207763   0.000000
   38       12.641603   0.000000
   39       12.824285   0.000000
   40       12.870610   0.000000
 
  0.1666667E+00  0.1666667E+00  0.3742002E-15  0.1041667E-01
    1      -10.436058   1.000000
    2       -9.909155   1.000000
    3       -9.832832   1.000000
    4       -8.959635   1.000000
    5       -8.805839   1.000000
    6       -8.184791   1.000000
    7       -2.887155   1.000000
    8       -2.099941   1.000000
    9       -1.976406   1.000000
   10       -1.331197   1.000000
   11       -0.981058   1.000000
   12        0.464694   1.000000
   13        0.898292   1.000000
   14        1.602754   1.000000
   15        2.063922   1.000000
   16        2.645831   1.000000
   17        3.085782   1.000000
   18        3.283141   1.000000
   19        3.521262   1.000000
   20        3.609578   1.000000
   21        3.646838   1.000000
   22        4.284518   1.000000
   23        4.328902   1.000000
   24        4.583806   1.000000
   25        4.700312   1.000000
   26        5.630591   1.000000
   27        5.722620   1.000000
   28        5.951568   1.000000
   29        7.228640   1.000000
   30        8.506405   1.019488
   31        8.685563   0.127107
   32       10.555826   0.000000
   33       10.861537   0.000000
   34       11.321716   0.000000
   35       11.384989   0.000000
   36       11.645024   0.000000
   37       12.415350   0.000000
   38       12.631283   0.000000
   39       12.841141   0.000000
   40       13.088955   0.000000
 
  0.3333333E+00  0.1666667E+00  0.3742002E-15  0.1041667E-01
    1      -10.309179   1.000000
    2      -10.050641   1.000000
    3       -9.891985   1.000000
    4       -8.962267   1.000000
    5       -8.779213   1.000000
    6       -8.101787   1.000000
    7       -3.094474   1.000000
    8       -1.938798   1.000000
    9       -1.801225   1.000000
   10       -1.448624   1.000000
   11       -1.076050   1.000000
   12        0.473940   1.000000
   13        1.041338   1.000000
   14        1.396002   1.000000
   15        2.034897   1.000000
   16        2.723107   1.000000
   17        3.033368   1.000000
   18        3.326472   1.000000
   19        3.565904   1.000000
   20        3.626699   1.000000
   21        3.767067   1.000000
   22        4.279508   1.000000
   23        4.335037   1.000000
   24        4.637515   1.000000
   25        4.723724   1.000000
   26        5.307986   1.000000
   27        5.608570   1.000000
   28        6.394710   1.000000
   29        6.946413   1.000000
   30        8.725570  -0.040849
   31        9.193403   0.000000
   32       10.093355   0.000000
   33       10.350401   0.000000
   34       11.232390   0.000000
   35       11.605051   0.000000
   36       11.734301   0.000000
   37       12.269938   0.000000
   38       12.575387   0.000000
   39       12.807515   0.000000
   40       12.930269   0.000000
 
  0.5000000E+00  0.1666667E+00  0.3742002E-15  0.1041667E-01
    1      -10.309203   1.000000
    2      -10.050628   1.000000
    3       -9.891955   1.000000
    4       -8.962323   1.000000
    5       -8.779164   1.000000
    6       -8.101828   1.000000
    7       -3.094520   1.000000
    8       -1.922988   1.000000
    9       -1.826529   1.000000
   10       -1.433471   1.000000
   11       -1.081273   1.000000
   12        0.464968   1.000000
   13        1.112978   1.000000
   14        1.290121   1.000000
   15        2.183817   1.000000
   16        2.522541   1.000000
   17        3.130691   1.000000
   18        3.326598   1.000000
   19        3.565864   1.000000
   20        3.626528   1.000000
   21        3.775860   1.000000
   22        4.280392   1.000000
   23        4.335282   1.000000
   24        4.645181   1.000000
   25        4.722626   1.000000
   26        5.227993   1.000000
   27        5.679309   1.000000
   28        6.380427   1.000000
   29        6.955440   1.000000
   30        8.685750   0.125768
   31        9.275155   0.000000
   32        9.935747   0.000000
   33       10.495070   0.000000
   34       11.194058   0.000000
   35       11.600532   0.000000
   36       11.751867   0.000000
   37       12.237717   0.000000
   38       12.660233   0.000000
   39       12.745207   0.000000
   40       12.893797   0.000000
 
  0.3333333E+00  0.3333333E+00  0.3742002E-15  0.3472222E-02
    1      -10.242579   1.000000
    2      -10.022572   1.000000
    3      -10.022572   1.000000
    4       -8.860860   1.000000
    5       -8.860860   1.000000
    6       -8.074432   1.000000
    7       -3.164376   1.000000
    8       -1.718826   1.000000
    9       -1.718825   1.000000
   10       -1.435898   1.000000
   11       -1.435897   1.000000
   12        0.916042   1.000000
   13        0.916042   1.000000
   14        1.036686   1.000000
   15        2.527437   1.000000
   16        2.654616   1.000000
   17        2.654617   1.000000
   18        3.343467   1.000000
   19        3.584442   1.000000
   20        3.584443   1.000000
   21        3.859108   1.000000
   22        4.309367   1.000000
   23        4.309368   1.000000
   24        4.721550   1.000000
   25        4.730100   1.000000
   26        5.371469   1.000000
   27        5.371469   1.000000
   28        6.729634   1.000000
   29        6.729635   1.000000
   30        8.920859   0.000868
   31        9.571787   0.000000
   32        9.571787   0.000000
   33       10.123250   0.000000
   34       11.118875   0.000000
   35       11.827363   0.000000
   36       11.827367   0.000000
   37       12.260788   0.000000
   38       12.563888   0.000000
   39       12.563899   0.000000
   40       13.162741   0.000000
 
  0.3742002E-15  0.3742002E-15  0.6250000E-01  0.3472222E-02
    1      -10.503666   1.000000
    2       -9.712827   1.000000
    3       -9.712827   1.000000
    4       -8.840657   1.000000
    5       -8.840657   1.000000
    6       -8.336179   1.000000
    7       -2.228519   1.000000
    8       -2.050939   1.000000
    9       -2.050938   1.000000
   10       -2.042651   1.000000
   11       -0.660641   1.000000
   12        0.710352   1.000000
   13        0.710352   1.000000
   14        2.007044   1.000000
   15        2.007044   1.000000
   16        2.908104   1.000000
   17        2.908105   1.000000
   18        3.005043   1.000000
   19        3.039138   1.000000
   20        3.439314   1.000000
   21        3.439314   1.000000
   22        4.076327   1.000000
   23        4.105037   1.000000
   24        4.105037   1.000000
   25        4.608436   1.000000
   26        5.431691   1.000000
   27        6.335648   1.000000
   28        6.335648   1.000000
   29        7.422188   1.000000
   30        8.150889   1.000000
   31        8.150890   1.000000
   32       11.048439   0.000000
   33       11.048439   0.000000
   34       11.058444   0.000000
   35       11.765740   0.000000
   36       11.765740   0.000000
   37       12.402234   0.000000
   38       12.929885   0.000000
   39       13.202536   0.000000
   40       13.202547   0.000000
 
  0.1666667E+00  0.3723418E-15  0.6250000E-01  0.2083333E-01
    1      -10.464085   1.000000
    2       -9.776445   1.000000
    3       -9.732937   1.000000
    4       -8.892343   1.000000
    5       -8.804508   1.000000
    6       -8.254940   1.000000
    7       -2.550408   1.000000
    8       -2.160143   1.000000
    9       -2.027857   1.000000
   10       -1.518518   1.000000
   11       -0.780871   1.000000
   12        0.583722   1.000000
   13        0.802164   1.000000
   14        1.873817   1.000000
   15        2.003692   1.000000
   16        2.758334   1.000000
   17        2.953233   1.000000
   18        3.065800   1.000000
   19        3.231370   1.000000
   20        3.424033   1.000000
   21        3.460165   1.000000
   22        4.068027   1.000000
   23        4.119712   1.000000
   24        4.218878   1.000000
   25        4.683641   1.000000
   26        5.585465   1.000000
   27        6.042097   1.000000
   28        6.145347   1.000000
   29        7.356490   1.000000
   30        8.316722   0.999931
   31        8.409841   0.996950
   32       10.875703   0.000000
   33       11.062910   0.000000
   34       11.110264   0.000000
   35       11.558686   0.000000
   36       11.733032   0.000000
   37       12.535080   0.000000
   38       12.811565   0.000000
   39       12.919577   0.000000
   40       13.136967   0.000000
 
  0.3333333E+00  0.3761933E-15  0.6250000E-01  0.2083333E-01
    1      -10.353843   1.000000
    2       -9.936246   1.000000
    3       -9.769662   1.000000
    4       -8.957988   1.000000
    5       -8.735030   1.000000
    6       -8.129914   1.000000
    7       -2.902818   1.000000
    8       -1.991339   1.000000
    9       -1.961132   1.000000
   10       -1.241943   1.000000
   11       -0.937439   1.000000
   12        0.349576   1.000000
   13        1.059494   1.000000
   14        1.657141   1.000000
   15        1.861501   1.000000
   16        2.661352   1.000000
   17        2.963534   1.000000
   18        3.284962   1.000000
   19        3.354923   1.000000
   20        3.403908   1.000000
   21        3.633350   1.000000
   22        4.050338   1.000000
   23        4.147905   1.000000
   24        4.339942   1.000000
   25        4.790330   1.000000
   26        5.444444   1.000000
   27        5.890250   1.000000
   28        6.076429   1.000000
   29        7.124639   1.000000
   30        8.536146   1.046276
   31        8.976755   0.000062
   32       10.410719   0.000000
   33       10.971854   0.000000
   34       11.069646   0.000000
   35       11.413750   0.000000
   36       11.672729   0.000000
   37       12.446487   0.000000
   38       12.688772   0.000000
   39       12.835172   0.000000
   40       12.990336   0.000000
 
  0.5000000E+00  0.3248185E-15  0.6250000E-01  0.1041667E-01
    1      -10.243454   1.000000
    2      -10.071466   1.000000
    3       -9.786530   1.000000
    4       -8.980661   1.000000
    5       -8.701225   1.000000
    6       -8.077834   1.000000
    7       -3.028905   1.000000
    8       -1.955146   1.000000
    9       -1.806700   1.000000
   10       -1.381792   1.000000
   11       -0.855356   1.000000
   12        0.238631   1.000000
   13        1.285697   1.000000
   14        1.579810   1.000000
   15        1.668932   1.000000
   16        2.644990   1.000000
   17        2.939157   1.000000
   18        3.331974   1.000000
   19        3.362901   1.000000
   20        3.500173   1.000000
   21        3.775064   1.000000
   22        4.077602   1.000000
   23        4.158737   1.000000
   24        4.347462   1.000000
   25        4.845946   1.000000
   26        5.100971   1.000000
   27        5.832270   1.000000
   28        6.466807   1.000000
   29        6.856000   1.000000
   30        8.601907   0.901658
   31        9.597842   0.000000
   32        9.783875   0.000000
   33       10.810585   0.000000
   34       11.043396   0.000000
   35       11.508698   0.000000
   36       11.659306   0.000000
   37       12.291932   0.000000
   38       12.708557   0.000000
   39       12.813674   0.000000
   40       12.941596   0.000000
 
  0.1666667E+00  0.1666667E+00  0.6250000E-01  0.2083333E-01
    1      -10.388925   1.000000
    2       -9.865169   1.000000
    3       -9.789269   1.000000
    4       -8.922857   1.000000
    5       -8.770305   1.000000
    6       -8.157016   1.000000
    7       -2.838197   1.000000
    8       -2.044364   1.000000
    9       -1.939734   1.000000
   10       -1.290810   1.000000
   11       -0.945390   1.000000
   12        0.481069   1.000000
   13        0.911486   1.000000
   14        1.637048   1.000000
   15        2.072761   1.000000
   16        2.619081   1.000000
   17        2.985211   1.000000
   18        3.114095   1.000000
   19        3.354306   1.000000
   20        3.456321   1.000000
   21        3.580051   1.000000
   22        4.051816   1.000000
   23        4.138975   1.000000
   24        4.317891   1.000000
   25        4.765728   1.000000
   26        5.696914   1.000000
   27        5.772833   1.000000
   28        5.999352   1.000000
   29        7.215057   1.000000
   30        8.557280   1.049622
   31        8.744639  -0.051338
   32       10.587331   0.000000
   33       10.875747   0.000000
   34       11.234000   0.000000
   35       11.404690   0.000000
   36       11.647206   0.000000
   37       12.557582   0.000000
   38       12.641212   0.000000
   39       12.847728   0.000000
   40       13.002295   0.000000
 
  0.3333333E+00  0.1666667E+00  0.6250000E-01  0.2083333E-01
    1      -10.262794   1.000000
    2      -10.005593   1.000000
    3       -9.847935   1.000000
    4       -8.925661   1.000000
    5       -8.744250   1.000000
    6       -8.074884   1.000000
    7       -3.043859   1.000000
    8       -1.893074   1.000000
    9       -1.756374   1.000000
   10       -1.396054   1.000000
   11       -1.043788   1.000000
   12        0.485511   1.000000
   13        1.059108   1.000000
   14        1.410435   1.000000
   15        2.047556   1.000000
   16        2.662520   1.000000
   17        2.912439   1.000000
   18        3.136070   1.000000
   19        3.362664   1.000000
   20        3.481123   1.000000
   21        3.829552   1.000000
   22        4.064006   1.000000
   23        4.143753   1.000000
   24        4.361822   1.000000
   25        4.814815   1.000000
   26        5.360949   1.000000
   27        5.639913   1.000000
   28        6.415407   1.000000
   29        6.949175   1.000000
   30        8.750620  -0.049220
   31        9.256792   0.000000
   32       10.141413   0.000000
   33       10.408194   0.000000
   34       11.267011   0.000000
   35       11.518808   0.000000
   36       11.604450   0.000000
   37       12.426254   0.000000
   38       12.533710   0.000000
   39       12.867166   0.000000
   40       12.986118   0.000000
 
  0.5000000E+00  0.1666667E+00  0.6250000E-01  0.2083333E-01
    1      -10.262784   1.000000
    2      -10.005594   1.000000
    3       -9.847913   1.000000
    4       -8.925661   1.000000
    5       -8.744247   1.000000
    6       -8.074923   1.000000
    7       -3.043852   1.000000
    8       -1.875818   1.000000
    9       -1.783767   1.000000
   10       -1.379609   1.000000
   11       -1.049854   1.000000
   12        0.477008   1.000000
   13        1.122867   1.000000
   14        1.315644   1.000000
   15        2.182247   1.000000
   16        2.505201   1.000000
   17        2.926749   1.000000
   18        3.178100   1.000000
   19        3.360353   1.000000
   20        3.496346   1.000000
   21        3.821102   1.000000
   22        4.079900   1.000000
   23        4.147433   1.000000
   24        4.351865   1.000000
   25        4.828934   1.000000
   26        5.278625   1.000000
   27        5.706954   1.000000
   28        6.405333   1.000000
   29        6.955366   1.000000
   30        8.720833  -0.032651
   31        9.321863   0.000000
   32       10.003985   0.000000
   33       10.533184   0.000000
   34       11.253371   0.000000
   35       11.470917   0.000000
   36       11.644946   0.000000
   37       12.349609   0.000000
   38       12.679631   0.000000
   39       12.811402   0.000000
   40       12.930429   0.000000
 
  0.3333333E+00  0.3333333E+00  0.6250000E-01  0.6944444E-02
    1      -10.196650   1.000000
    2       -9.977661   1.000000
    3       -9.977660   1.000000
    4       -8.825298   1.000000
    5       -8.825298   1.000000
    6       -8.047893   1.000000
    7       -3.113444   1.000000
    8       -1.671958   1.000000
    9       -1.671957   1.000000
   10       -1.393345   1.000000
   11       -1.393345   1.000000
   12        0.912284   1.000000
   13        0.912284   1.000000
   14        1.084574   1.000000
   15        2.505521   1.000000
   16        2.606818   1.000000
   17        2.606818   1.000000
   18        3.085555   1.000000
   19        3.433114   1.000000
   20        3.433114   1.000000
   21        3.899807   1.000000
   22        4.102283   1.000000
   23        4.102283   1.000000
   24        4.387390   1.000000
   25        4.889047   1.000000
   26        5.410785   1.000000
   27        5.410785   1.000000
   28        6.732380   1.000000
   29        6.732381   1.000000
   30        8.934080   0.000504
   31        9.641249   0.000000
   32        9.641250   0.000000
   33       10.177602   0.000000
   34       11.215744   0.000000
   35       11.621718   0.000000
   36       11.621720   0.000000
   37       12.500861   0.000000
   38       12.593045   0.000000
   39       12.593056   0.000000
   40       13.192914   0.000000
 
  0.3742002E-15  0.3742002E-15  0.1250000E+00  0.3472222E-02
    1      -10.361789   1.000000
    2       -9.586277   1.000000
    3       -9.586276   1.000000
    4       -8.733643   1.000000
    5       -8.733643   1.000000
    6       -8.252426   1.000000
    7       -2.052429   1.000000
    8       -1.960312   1.000000
    9       -1.960312   1.000000
   10       -1.894971   1.000000
   11       -0.588127   1.000000
   12        0.740480   1.000000
   13        0.740480   1.000000
   14        2.141123   1.000000
   15        2.141123   1.000000
   16        2.448693   1.000000
   17        2.810168   1.000000
   18        2.810169   1.000000
   19        2.869856   1.000000
   20        2.869856   1.000000
   21        3.008664   1.000000
   22        3.394684   1.000000
   23        3.688573   1.000000
   24        3.688573   1.000000
   25        4.711844   1.000000
   26        5.671584   1.000000
   27        6.377991   1.000000
   28        6.377991   1.000000
   29        7.307487   1.000000
   30        8.386307   0.998471
   31        8.386307   0.998471
   32       10.417799   0.000000
   33       10.761293   0.000000
   34       10.761293   0.000000
   35       11.676528   0.000000
   36       12.027198   0.000000
   37       12.027199   0.000000
   38       12.733990   0.000000
   39       12.820659   0.000000
   40       12.820659   0.000000
 
  0.1666667E+00  0.3723418E-15  0.1250000E+00  0.2083333E-01
    1      -10.322944   1.000000
    2       -9.648373   1.000000
    3       -9.605812   1.000000
    4       -8.785036   1.000000
    5       -8.699202   1.000000
    6       -8.173150   1.000000
    7       -2.415395   1.000000
    8       -1.986479   1.000000
    9       -1.933745   1.000000
   10       -1.414510   1.000000
   11       -0.690652   1.000000
   12        0.618100   1.000000
   13        0.822221   1.000000
   14        2.001187   1.000000
   15        2.013688   1.000000
   16        2.477206   1.000000
   17        2.656148   1.000000
   18        2.756983   1.000000
   19        2.921806   1.000000
   20        3.035814   1.000000
   21        3.212710   1.000000
   22        3.495999   1.000000
   23        3.685456   1.000000
   24        3.720004   1.000000
   25        4.821106   1.000000
   26        5.805578   1.000000
   27        6.110358   1.000000
   28        6.205512   1.000000
   29        7.258690   1.000000
   30        8.496293   1.011268
   31        8.598464   0.923359
   32       10.447353   0.000000
   33       10.719191   0.000000
   34       10.822910   0.000000
   35       11.620265   0.000000
   36       11.762844   0.000000
   37       11.950569   0.000000
   38       12.728070   0.000000
   39       12.777570   0.000000
   40       12.876846   0.000000
 
  0.3333333E+00  0.3761933E-15  0.1250000E+00  0.2083333E-01
    1      -10.214526   1.000000
    2       -9.804479   1.000000
    3       -9.641290   1.000000
    4       -8.849924   1.000000
    5       -8.633086   1.000000
    6       -8.051894   1.000000
    7       -2.756067   1.000000
    8       -1.884673   1.000000
    9       -1.799184   1.000000
   10       -1.111162   1.000000
   11       -0.854498   1.000000
   12        0.387190   1.000000
   13        1.046327   1.000000
   14        1.762456   1.000000
   15        1.858709   1.000000
   16        2.296212   1.000000
   17        2.530060   1.000000
   18        2.822183   1.000000
   19        2.992758   1.000000
   20        3.214373   1.000000
   21        3.526403   1.000000
   22        3.594250   1.000000
   23        3.792606   1.000000
   24        3.816234   1.000000
   25        4.965745   1.000000
   26        5.559906   1.000000
   27        5.941280   1.000000
   28        6.184866   1.000000
   29        7.079388   1.000000
   30        8.641292   0.547878
   31        9.109978   0.000000
   32       10.469930   0.000000
   33       10.539227   0.000000
   34       10.830445   0.000000
   35       11.191244   0.000000
   36       11.609528   0.000000
   37       11.874181   0.000000
   38       12.599797   0.000000
   39       12.752226   0.000000
   40       13.059816   0.000000
 
  0.5000000E+00  0.3248185E-15  0.1250000E+00  0.1041667E-01
    1      -10.106236   1.000000
    2       -9.936790   1.000000
    3       -9.657627   1.000000
    4       -8.872362   1.000000
    5       -8.601058   1.000000
    6       -8.001549   1.000000
    7       -2.878310   1.000000
    8       -1.853385   1.000000
    9       -1.644489   1.000000
   10       -1.220580   1.000000
   11       -0.788869   1.000000
   12        0.275927   1.000000
   13        1.238495   1.000000
   14        1.606560   1.000000
   15        1.773394   1.000000
   16        2.284798   1.000000
   17        2.408990   1.000000
   18        2.810023   1.000000
   19        3.027224   1.000000
   20        3.271971   1.000000
   21        3.666530   1.000000
   22        3.681351   1.000000
   23        3.871309   1.000000
   24        3.906459   1.000000
   25        5.017816   1.000000
   26        5.215992   1.000000
   27        5.867661   1.000000
   28        6.479482   1.000000
   29        6.877365   1.000000
   30        8.688070   0.109544
   31        9.706601   0.000000
   32        9.915374   0.000000
   33       10.615676   0.000000
   34       10.721164   0.000000
   35       11.028642   0.000000
   36       11.566353   0.000000
   37       11.962531   0.000000
   38       12.519496   0.000000
   39       12.698130   0.000000
   40       13.062170   0.000000
 
  0.1666667E+00  0.1666667E+00  0.1250000E+00  0.2083333E-01
    1      -10.249038   1.000000
    2       -9.735002   1.000000
    3       -9.660547   1.000000
    4       -8.815656   1.000000
    5       -8.666934   1.000000
    6       -8.078157   1.000000
    7       -2.694204   1.000000
    8       -1.889842   1.000000
    9       -1.827755   1.000000
   10       -1.178364   1.000000
   11       -0.844638   1.000000
   12        0.509627   1.000000
   13        0.923314   1.000000
   14        1.731348   1.000000
   15        1.998328   1.000000
   16        2.380244   1.000000
   17        2.576363   1.000000
   18        2.825459   1.000000
   19        2.890392   1.000000
   20        3.189322   1.000000
   21        3.439618   1.000000
   22        3.559929   1.000000
   23        3.727806   1.000000
   24        3.826187   1.000000
   25        4.934698   1.000000
   26        5.782877   1.000000
   27        5.892971   1.000000
   28        6.101819   1.000000
   29        7.146274   1.000000
   30        8.669409   0.260997
   31        8.897652   0.001962
   32       10.477579   0.000000
   33       10.617947   0.000000
   34       10.826716   0.000000
   35       11.340664   0.000000
   36       11.639114   0.000000
   37       11.809351   0.000000
   38       12.641889   0.000000
   39       12.760895   0.000000
   40       13.025601   0.000000
 
  0.3333333E+00  0.1666667E+00  0.1250000E+00  0.2083333E-01
    1      -10.125223   1.000000
    2       -9.872368   1.000000
    3       -9.717778   1.000000
    4       -8.819039   1.000000
    5       -8.642785   1.000000
    6       -7.998722   1.000000
    7       -2.893983   1.000000
    8       -1.771918   1.000000
    9       -1.619402   1.000000
   10       -1.241206   1.000000
   11       -0.955305   1.000000
   12        0.498219   1.000000
   13        1.065664   1.000000
   14        1.461602   1.000000
   15        2.022583   1.000000
   16        2.248424   1.000000
   17        2.494555   1.000000
   18        2.777599   1.000000
   19        3.025462   1.000000
   20        3.277655   1.000000
   21        3.612239   1.000000