       N       E                     dE             d eps       ncg     rms          rms(c)
DAV:   1     0.224365691208E+03    0.22437E+03   -0.25035E+04  5776   0.113E+03
DAV:   2    -0.802845179777E+02   -0.30465E+03   -0.29165E+03  7352   0.236E+02
DAV:   3    -0.103214695536E+03   -0.22930E+02   -0.22480E+02  7216   0.681E+01
DAV:   4    -0.103828195868E+03   -0.61350E+00   -0.60948E+00  7424   0.115E+01
DAV:   5    -0.103842376908E+03   -0.14181E-01   -0.14171E-01  7240   0.172E+00    0.215E+01
RMM:   6    -0.956215614864E+02    0.82208E+01   -0.48153E+01  5760   0.234E+01    0.986E+00
RMM:   7    -0.951180381309E+02    0.50352E+00   -0.10454E+00  5816   0.363E+00    0.563E+00
RMM:   8    -0.950414315803E+02    0.76607E-01   -0.71592E-01  5771   0.284E+00    0.106E+00
RMM:   9    -0.950155081601E+02    0.25923E-01   -0.21419E-01  5805   0.162E+00    0.507E-01
RMM:  10    -0.950140368300E+02    0.14713E-02   -0.10777E-02  5798   0.438E-01    0.155E-01
RMM:  11    -0.950146366943E+02   -0.59986E-03   -0.53050E-03  5786   0.272E-01    0.915E-02
RMM:  12    -0.950146196370E+02    0.17057E-04   -0.62202E-04  4992   0.960E-02
   1 F= -.95014620E+02 E0= -.95015171E+02  d E =-.950146E+02
       N       E                     dE             d eps       ncg     rms          rms(c)
DAV:   1    -0.950523837915E+02   -0.37747E-01   -0.69150E+00  6392   0.144E+01    0.568E-01
RMM:   2    -0.950592700377E+02   -0.68862E-02   -0.14449E-01  5784   0.178E+00    0.370E-01
RMM:   3    -0.950569380278E+02    0.23320E-02   -0.17568E-02  5924   0.488E-01    0.192E-01
RMM:   4    -0.950568016064E+02    0.13642E-03   -0.22712E-03  5975   0.172E-01    0.992E-02
RMM:   5    -0.950568283087E+02   -0.26702E-04   -0.21630E-04  3594   0.629E-02
   2 F= -.95056828E+02 E0= -.95057111E+02  d E =-.422087E-01
       N       E                     dE             d eps       ncg     rms          rms(c)
DAV:   1    -0.950607675304E+02   -0.39659E-02   -0.37365E-01  6800   0.335E+00    0.136E-01
RMM:   2    -0.950610951572E+02   -0.32763E-03   -0.75180E-03  5783   0.406E-01    0.865E-02
RMM:   3    -0.950609751512E+02    0.12001E-03   -0.85490E-04  5520   0.110E-01    0.483E-02
RMM:   4    -0.950609635591E+02    0.11592E-04   -0.96051E-05  3389   0.413E-02
   3 F= -.95060964E+02 E0= -.95061395E+02  d E =-.463439E-01
       N       E                     dE             d eps       ncg     rms          rms(c)
DAV:   1    -0.950626957325E+02   -0.17206E-02   -0.46271E-01  6280   0.368E+00    0.189E-01
RMM:   2    -0.950637464885E+02   -0.10508E-02   -0.12411E-02  5760   0.503E-01    0.713E-02
RMM:   3    -0.950636363940E+02    0.11009E-03   -0.49084E-04  4366   0.952E-02    0.418E-02
RMM:   4    -0.950636034358E+02    0.32958E-04   -0.18518E-04  3398   0.598E-02
   4 F= -.95063603E+02 E0= -.95063988E+02  d E =-.263988E-02
       N       E                     dE             d eps       ncg     rms          rms(c)
DAV:   1    -0.950636681284E+02   -0.31734E-04   -0.10315E-01  6672   0.174E+00    0.908E-02
RMM:   2    -0.950639099927E+02   -0.24186E-03   -0.28489E-03  5759   0.241E-01    0.365E-02
RMM:   3    -0.950638850281E+02    0.24965E-04   -0.98738E-05  3243   0.466E-02
   5 F= -.95063885E+02 E0= -.95064241E+02  d E =-.292147E-02
       N       E                     dE             d eps       ncg     rms          rms(c)
DAV:   1    -0.950658493743E+02   -0.19394E-02   -0.46591E-01  6000   0.366E+00    0.151E-01
RMM:   2    -0.950665071733E+02   -0.65780E-03   -0.89468E-03  5760   0.434E-01    0.540E-02
RMM:   3    -0.950664496290E+02    0.57544E-04   -0.39471E-04  4082   0.838E-02
   6 F= -.95066450E+02 E0= -.95066679E+02  d E =-.256460E-02
       N       E                     dE             d eps       ncg     rms          rms(c)
DAV:   1    -0.950681218905E+02   -0.16147E-02   -0.41906E+00  5776   0.110E+01    0.455E-01
RMM:   2    -0.950744262125E+02   -0.63043E-02   -0.82764E-02  5760   0.132E+00    0.168E-01
RMM:   3    -0.950738914380E+02    0.53477E-03   -0.39717E-03  5964   0.256E-01    0.115E-01
RMM:   4    -0.950737545650E+02    0.13687E-03   -0.70008E-04  5396   0.107E-01    0.492E-02
RMM:   5    -0.950737607299E+02   -0.61649E-05   -0.77550E-05  3481   0.395E-02
   7 F= -.95073761E+02 E0= -.95073927E+02  d E =-.987570E-02
       N       E                     dE             d eps       ncg     rms          rms(c)
DAV:   1    -0.950693039895E+02    0.44506E-02   -0.16847E+01  5760   0.220E+01    0.103E+00
RMM:   2    -0.950911065017E+02   -0.21803E-01   -0.34608E-01  5760   0.272E+00    0.319E-01
RMM:   3    -0.950892448780E+02    0.18616E-02   -0.15417E-02  5953   0.512E-01    0.228E-01
RMM:   4    -0.950887305639E+02    0.51431E-03   -0.30689E-03  5854   0.224E-01    0.947E-02
RMM:   5    -0.950887490406E+02   -0.18477E-04   -0.23242E-04  3700   0.620E-02
   8 F= -.95088749E+02 E0= -.95087323E+02  d E =-.248640E-01
       N       E                     dE             d eps       ncg     rms          rms(c)
DAV:   1    -0.950483989208E+02    0.40332E-01   -0.67225E+01  5760   0.440E+01    0.219E+00
RMM:   2    -0.951644192097E+02   -0.11602E+00   -0.15355E+00  5760   0.582E+00    0.753E-01
RMM:   3    -0.951526530429E+02    0.11766E-01   -0.67111E-02  5943   0.108E+00    0.543E-01
RMM:   4    -0.951501979677E+02    0.24551E-02   -0.10828E-02  5892   0.431E-01    0.274E-01
RMM:   5    -0.951501349586E+02    0.63009E-04   -0.20168E-03  5830   0.172E-01    0.732E-02
RMM:   6    -0.951501915684E+02   -0.56610E-04   -0.56767E-04  4862   0.878E-02
   9 F= -.95150192E+02 E0= -.95149935E+02  d E =-.863065E-01
       N       E                     dE             d eps       ncg     rms          rms(c)
DAV:   1    -0.945136931515E+02    0.63644E+00   -0.26551E+02  5792   0.874E+01    0.585E+00
RMM:   2    -0.952518698672E+02   -0.73818E+00   -0.85206E+00  5764   0.140E+01    0.208E+00
RMM:   3    -0.951743108446E+02    0.77559E-01   -0.29576E-01  5947   0.233E+00    0.171E+00
RMM:   4    -0.951524615546E+02    0.21849E-01   -0.98030E-02  5777   0.124E+00    0.784E-01
RMM:   5    -0.951530447986E+02   -0.58324E-03   -0.11124E-02  5814   0.391E-01    0.360E-01
RMM:   6    -0.951513911807E+02    0.16536E-02   -0.64396E-03  5765   0.284E-01    0.752E-02
RMM:   7    -0.951515757088E+02   -0.18453E-03   -0.17553E-03  5821   0.144E-01    0.650E-02
RMM:   8    -0.951514577310E+02    0.11798E-03   -0.16845E-04  3544   0.522E-02    0.300E-02
RMM:   9    -0.951514548127E+02    0.29183E-05   -0.15490E-04  3455   0.490E-02
  10 F= -.95151455E+02 E0= -.95151597E+02  d E =-.875698E-01
       N       E                     dE             d eps       ncg     rms          rms(c)
DAV:   1    -0.950815549441E+02    0.69903E-01   -0.84866E+01  5792   0.492E+01    0.181E+00
RMM:   2    -0.951866595456E+02   -0.10510E+00   -0.14379E+00  5760   0.555E+00    0.793E-01
RMM:   3    -0.951782883901E+02    0.83712E-02   -0.56985E-02  6003   0.988E-01    0.595E-01
RMM:   4    -0.951747510024E+02    0.35374E-02   -0.30139E-02  5767   0.652E-01    0.139E-01
RMM:   5    -0.951746615308E+02    0.89472E-04   -0.10003E-03  5569   0.124E-01    0.999E-02
RMM:   6    -0.951747262588E+02   -0.64728E-04   -0.35232E-04  4137   0.741E-02
  11 F= -.95174726E+02 E0= -.95174236E+02  d E =-.110841E+00
       N       E                     dE             d eps       ncg     rms          rms(c)
DAV:   1    -0.951764440350E+02   -0.17825E-02   -0.66062E+00  6032   0.143E+01    0.642E-01
RMM:   2    -0.951865669464E+02   -0.10123E-01   -0.13723E-01  5761   0.171E+00    0.283E-01
RMM:   3    -0.951851845668E+02    0.13824E-02   -0.83390E-03  5983   0.359E-01    0.159E-01
RMM:   4    -0.951848092669E+02    0.37530E-03   -0.19827E-03  5803   0.174E-01    0.550E-02
RMM:   5    -0.951848244690E+02   -0.15202E-04   -0.11680E-04  3518   0.441E-02
  12 F= -.95184824E+02 E0= -.95184752E+02  d E =-.100982E-01
       N       E                     dE             d eps       ncg     rms          rms(c)
DAV:   1    -0.951862149524E+02   -0.14057E-02   -0.54947E-01  6296   0.414E+00    0.182E-01
RMM:   2    -0.951869772688E+02   -0.76232E-03   -0.10986E-02  5760   0.483E-01    0.829E-02
RMM:   3    -0.951868617641E+02    0.11550E-03   -0.61337E-04  4863   0.101E-01    0.498E-02
RMM:   4    -0.951868261217E+02    0.35642E-04   -0.18780E-04  3340   0.587E-02
  13 F= -.95186826E+02 E0= -.95186620E+02  d E =-.120999E-01
       N       E                     dE             d eps       ncg     rms          rms(c)
DAV:   1    -0.951972435402E+02   -0.10382E-01   -0.22053E+00  5888   0.819E+00    0.289E-01
RMM:   2    -0.952009748408E+02   -0.37313E-02   -0.43249E-02  5760   0.959E-01    0.153E-01
RMM:   3    -0.952009581077E+02    0.16733E-04   -0.22932E-03  6148   0.192E-01    0.104E-01
RMM:   4    -0.952009015103E+02    0.56597E-04   -0.39047E-04  4422   0.916E-02
  14 F= -.95200902E+02 E0= -.95200924E+02  d E =-.140754E-01
       N       E                     dE             d eps       ncg     rms          rms(c)
DAV:   1    -0.951984194595E+02    0.25386E-02   -0.66766E+00  5776   0.142E+01    0.509E-01
RMM:   2    -0.952101845563E+02   -0.11765E-01   -0.13222E-01  5760   0.168E+00    0.278E-01
RMM:   3    -0.952101614048E+02    0.23151E-04   -0.72300E-03  6166   0.338E-01    0.192E-01
RMM:   4    -0.952100047109E+02    0.15669E-03   -0.12193E-03  5810   0.158E-01    0.558E-02
RMM:   5    -0.952100257728E+02   -0.21062E-04   -0.85320E-05  3470   0.431E-02
  15 F= -.95210026E+02 E0= -.95210335E+02  d E =-.231997E-01
       N       E                     dE             d eps       ncg     rms          rms(c)
DAV:   1    -0.952151871433E+02   -0.51824E-02   -0.21640E+00  5936   0.815E+00    0.291E-01
RMM:   2    -0.952184717239E+02   -0.32846E-02   -0.40653E-02  5760   0.891E-01    0.125E-01
RMM:   3    -0.952182148278E+02    0.25690E-03   -0.20427E-03  6086   0.176E-01    0.798E-02
RMM:   4    -0.952180833067E+02    0.13152E-03   -0.67167E-04  5319   0.107E-01    0.156E-02
RMM:   5    -0.952180848909E+02   -0.15842E-05   -0.18556E-05  3119   0.203E-02
  16 F= -.95218085E+02 E0= -.95218426E+02  d E =-.805912E-02
       N       E                     dE             d eps       ncg     rms          rms(c)
DAV:   1    -0.952076831821E+02    0.10400E-01   -0.13749E+01  5760   0.205E+01    0.752E-01
RMM:   2    -0.952288433892E+02   -0.21160E-01   -0.26185E-01  5760   0.227E+00    0.324E-01
RMM:   3    -0.952271437672E+02    0.16996E-02   -0.12977E-02  6091   0.444E-01    0.211E-01
RMM:   4    -0.952262431206E+02    0.90065E-03   -0.40641E-03  5775   0.263E-01    0.456E-02
RMM:   5    -0.952262568216E+02   -0.13701E-04   -0.11571E-04  3574   0.433E-02
  17 F= -.95226257E+02 E0= -.95226503E+02  d E =-.162310E-01
       N       E                     dE             d eps       ncg     rms          rms(c)
DAV:   1    -0.952263958613E+02   -0.15274E-03   -0.11776E-02  6952   0.601E-01    0.210E-02
RMM:   2    -0.952264076961E+02   -0.11835E-04   -0.18872E-04  3514   0.627E-02
  18 F= -.95226408E+02 E0= -.95226656E+02  d E =-.150875E-03
       N       E                     dE             d eps       ncg     rms          rms(c)
DAV:   1    -0.952265669739E+02   -0.17111E-03   -0.10351E-01  5960   0.179E+00    0.613E-02
RMM:   2    -0.952266897125E+02   -0.12274E-03   -0.18386E-03  5731   0.188E-01    0.302E-02
RMM:   3    -0.952266728170E+02    0.16896E-04   -0.83918E-05  3254   0.408E-02
  19 F= -.95226673E+02 E0= -.95226928E+02  d E =-.415995E-03
