 vasp.5.4.4.18Apr17-6-g9f103f2a35 (build Nov 01 2019 12:17:22) complex          
  
 executed on             LinuxIFC date 2023.05.19  18:18:47
 running on   16 total cores
 distrk:  each k-point on   16 cores,    1 groups
 distr:  one band on NCORES_PER_BAND=   4 cores,    4 groups


--------------------------------------------------------------------------------------------------------


 INCAR:
 POTCAR:    PAW_PBE N 08Apr2002                   
 POTCAR:    PAW_PBE Si 05Jan2001                  
 POTCAR:    PAW_PBE N 08Apr2002                   
   VRHFIN =N: s2p3                                                              
   LEXCH  = PE                                                                  
   EATOM  =   264.5486 eV,   19.4438 Ry                                         
                                                                                
   TITEL  = PAW_PBE N 08Apr2002                                                 
   LULTRA =        F    use ultrasoft PP ?                                      
   IUNSCR =        1    unscreen: 0-lin 1-nonlin 2-no                           
   RPACOR =    1.200    partial core radius                                     
   POMASS =   14.001; ZVAL   =    5.000    mass and valenz                      
   RCORE  =    1.500    outmost cutoff radius                                   
   RWIGS  =    1.400; RWIGS  =    0.741    wigner-seitz radius (au A)           
   ENMAX  =  400.000; ENMIN  =  300.000 eV                                      
   ICORE  =        2    local potential                                         
   LCOR   =        T    correct aug charges                                     
   LPAW   =        T    paw PP                                                  
   EAUG   =  627.112                                                            
   DEXC   =    0.000                                                            
   RMAX   =    1.529    core radius for proj-oper                               
   RAUG   =    1.300    factor for augmentation sphere                          
   RDEP   =    1.514    radius for radial grids                                 
   RDEPT  =    1.338    core radius for aug-charge                              
                                                                                
   Atomic configuration                                                         
    4 entries                                                                   
     n  l   j            E        occ.                                          
     1  0  0.50      -384.7179   2.0000                                         
     2  0  0.50       -18.5828   2.0000                                         
     2  1  0.50        -7.0898   3.0000                                         
     3  2  1.50        -6.8029   0.0000                                         
   Description                                                                  
     l       E           TYP  RCUT    TYP  RCUT                                 
     0    -18.5828119     23  1.200                                             
     0    -13.5018863     23  1.200                                             
     1     -7.0897853     23  1.500                                             
     1      9.5240782     23  1.500                                             
     2     -6.8029130      7  1.500                                             
  local pseudopotential read in
  partial core-charges read in
  partial kinetic energy density read in
  atomic valenz-charges read in
  non local Contribution for L=           0  read in
    real space projection operators read in
  non local Contribution for L=           0  read in
    real space projection operators read in
  non local Contribution for L=           1  read in
    real space projection operators read in
  non local Contribution for L=           1  read in
    real space projection operators read in
    PAW grid and wavefunctions read in
 
   number of l-projection  operators is LMAX  =           4
   number of lm-projection operators is LMMAX =           8
 
 POTCAR:    PAW_PBE Si 05Jan2001                  
   VRHFIN =Si: s2p2                                                             
   LEXCH  = PE                                                                  
   EATOM  =   103.0669 eV,    7.5752 Ry                                         
                                                                                
   TITEL  = PAW_PBE Si 05Jan2001                                                
   LULTRA =        F    use ultrasoft PP ?                                      
   IUNSCR =        1    unscreen: 0-lin 1-nonlin 2-no                           
   RPACOR =    1.500    partial core radius                                     
   POMASS =   28.085; ZVAL   =    4.000    mass and valenz                      
   RCORE  =    1.900    outmost cutoff radius                                   
   RWIGS  =    2.480; RWIGS  =    1.312    wigner-seitz radius (au A)           
   ENMAX  =  245.345; ENMIN  =  184.009 eV                                      
   ICORE  =        2    local potential                                         
   LCOR   =        T    correct aug charges                                     
   LPAW   =        T    paw PP                                                  
   EAUG   =  322.069                                                            
   DEXC   =    0.000                                                            
   RMAX   =    1.950    core radius for proj-oper                               
   RAUG   =    1.300    factor for augmentation sphere                          
   RDEP   =    1.993    radius for radial grids                                 
   RDEPT  =    1.837    core radius for aug-charge                              
                                                                                
   Atomic configuration                                                         
    6 entries                                                                   
     n  l   j            E        occ.                                          
     1  0  0.50     -1785.8828   2.0000                                         
     2  0  0.50      -139.4969   2.0000                                         
     2  1  1.50       -95.5546   6.0000                                         
     3  0  0.50       -10.8127   2.0000                                         
     3  1  0.50        -4.0811   2.0000                                         
     3  2  1.50        -4.0817   0.0000                                         
   Description                                                                  
     l       E           TYP  RCUT    TYP  RCUT                                 
     0    -10.8127223     23  1.900                                             
     0     -7.6451159     23  1.900                                             
     1     -4.0811372     23  1.900                                             
     1      2.4879257     23  1.900                                             
     2     -4.0817478      7  1.900                                             
  local pseudopotential read in
  partial core-charges read in
  partial kinetic energy density read in
  atomic valenz-charges read in
  non local Contribution for L=           0  read in
    real space projection operators read in
  non local Contribution for L=           0  read in
    real space projection operators read in
  non local Contribution for L=           1  read in
    real space projection operators read in
  non local Contribution for L=           1  read in
    real space projection operators read in
    PAW grid and wavefunctions read in
 
   number of l-projection  operators is LMAX  =           4
   number of lm-projection operators is LMMAX =           8
 
 Optimization of the real space projectors (new method)

 maximal supplied QI-value         = 25.13
 optimisation between [QCUT,QGAM] = [ 10.05, 20.36] = [ 28.30,116.06] Ry 
 Optimized for a Real-space Cutoff    1.70 Angstroem

   l    n(q)    QCUT    max X(q) W(low)/X(q) W(high)/X(q)  e(spline) 
   0     10    10.053    79.467    0.61E-04    0.98E-04    0.61E-06
   0     10    10.053    66.151    0.60E-04    0.98E-04    0.61E-06
   1     10    10.053     8.350    0.17E-03    0.71E-03    0.45E-05
   1     10    10.053     5.531    0.18E-03    0.77E-03    0.49E-05
 Optimization of the real space projectors (new method)

 maximal supplied QI-value         = 19.84
 optimisation between [QCUT,QGAM] = [ 10.12, 20.44] = [ 28.68,116.96] Ry 
 Optimized for a Real-space Cutoff    1.38 Angstroem

   l    n(q)    QCUT    max X(q) W(low)/X(q) W(high)/X(q)  e(spline) 
   0      8    10.119   159.560    0.58E-04    0.11E-03    0.54E-07
   0      8    10.119   115.863    0.56E-04    0.11E-03    0.54E-07
   1      8    10.119    88.339    0.22E-03    0.17E-03    0.19E-06
   1      8    10.119    48.592    0.22E-03    0.17E-03    0.18E-06
  PAW_PBE N 08Apr2002                   :
 energy of atom  1       EATOM= -264.5486
 kinetic energy error for atom=    0.0736 (will be added to EATOM!!)
  PAW_PBE Si 05Jan2001                  :
 energy of atom  2       EATOM= -103.0669
 kinetic energy error for atom=    0.0012 (will be added to EATOM!!)
 
 
 POSCAR: Si6 N8                                  
  positions in direct lattice
  No initial velocities read in
 exchange correlation table for  LEXCH =        8
   RHO(1)=    0.500       N(1)  =     2000
   RHO(2)=  100.500       N(2)  =     4000
 


--------------------------------------------------------------------------------------------------------


 ion  position               nearest neighbor table
   1  0.197  0.832  0.750-   9 1.86  10 1.87  10 1.87   7 2.14
   2  0.366  0.197  0.250-  10 1.86  12 1.87  12 1.87   8 2.14
   3  0.832  0.634  0.250-  11 1.86   9 1.87   9 1.87   8 2.14
   4  0.168  0.366  0.750-  12 1.86  13 1.87  13 1.87   7 2.14
   5  0.634  0.803  0.750-  14 1.86  11 1.87  11 1.87   7 2.14
   6  0.803  0.168  0.250-  13 1.86  14 1.87  14 1.87   8 2.14
   7  0.333  0.667  0.750-   5 2.14   4 2.14   1 2.14  11 2.77  11 2.77  13 2.77  13 2.77  10 2.77
                            10 2.77  12 2.84  14 2.84   9 2.84
   8  0.667  0.333  0.250-   2 2.14   3 2.14   6 2.14  12 2.77  12 2.77   9 2.77   9 2.77  14 2.77
                            14 2.77  11 2.84  10 2.84  13 2.84
   9  0.964  0.612  0.750-   1 1.86   3 1.87   3 1.87  13 2.63  13 2.63   8 2.77   8 2.77   7 2.84

  10  0.351  0.964  0.250-   2 1.86   1 1.87   1 1.87  14 2.63  14 2.63   7 2.77   7 2.77   8 2.84

  11  0.612  0.649  0.250-   3 1.86   5 1.87   5 1.87  12 2.63  12 2.63   7 2.77   7 2.77   8 2.84

  12  0.388  0.351  0.750-   4 1.86   2 1.87   2 1.87  11 2.63  11 2.63   8 2.77   8 2.77   7 2.84

  13  0.036  0.388  0.250-   6 1.86   4 1.87   4 1.87   9 2.63   9 2.63   7 2.77   7 2.77   8 2.84

  14  0.649  0.036  0.750-   5 1.86   6 1.87   6 1.87  10 2.63  10 2.63   8 2.77   8 2.77   7 2.84

 
  LATTYP: Found a hexagonal cell.
 ALAT       =     8.2009173273
 C/A-ratio  =     0.3517300815
  
  Lattice vectors:
  
 A1 = (   4.1004586690,  -7.1022027367,   0.0000000000)
 A2 = (   4.1004586583,   7.1022027429,   0.0000000000)
 A3 = (   0.0000000000,   0.0000000000,   2.8845093195)


Analysis of symmetry for initial positions (statically):
=====================================================================
 Subroutine PRICEL returns:
 Original cell was already a primitive cell.
 

 Routine SETGRP: Setting up the symmetry group for a 
 hexagonal supercell.


 Subroutine GETGRP returns: Found 12 space group operations
 (whereof  6 operations were pure point group operations)
 out of a pool of 24 trial point group operations.


The static configuration has the point symmetry S_6 .
 The point group associated with its full space group is C_6h.


Analysis of symmetry for dynamics (positions and initial velocities):
=====================================================================
 Subroutine PRICEL returns:
 Original cell was already a primitive cell.
 

 Routine SETGRP: Setting up the symmetry group for a 
 hexagonal supercell.


 Subroutine GETGRP returns: Found 12 space group operations
 (whereof  6 operations were pure point group operations)
 out of a pool of 24 trial point group operations.


The dynamic configuration has the point symmetry S_6 .
 The point group associated with its full space group is C_6h.


 Subroutine INISYM returns: Found 12 space group operations
 (whereof  6 operations are pure point group operations),
 and found     1 'primitive' translations

 
 
 KPOINTS: Automatic mesh                          

Automatic generation of k-mesh.
 generate k-points for:    6    6   16
Space group operators:
 irot       det(A)        alpha          n_x          n_y          n_z        tau_x        tau_y        tau_z
    1     1.000000     0.000000     1.000000     0.000000     0.000000     0.000000     0.000000     0.000000
    2    -1.000000     0.000000     1.000000     0.000000     0.000000     0.000000     0.000000     0.000000
    3     1.000000   120.000000     0.000000     0.000000    -1.000000     0.000000     0.000000     0.000000
    4    -1.000000   120.000000     0.000000     0.000000    -1.000000     0.000000     0.000000     0.000000
    5     1.000000   120.000000     0.000000     0.000000     1.000000     0.000000     0.000000     0.000000
    6    -1.000000   120.000000     0.000000     0.000000     1.000000     0.000000     0.000000     0.000000
    7     1.000000    60.000000     0.000000     0.000000    -1.000000     0.000000     0.000000     0.500000
    8    -1.000000    60.000000     0.000000     0.000000    -1.000000     0.000000     0.000000     0.500000
    9     1.000000   180.000000     0.000000     0.000000     1.000000     0.000000     0.000000     0.500000
   10    -1.000000   180.000000     0.000000     0.000000     1.000000     0.000000     0.000000     0.500000
   11     1.000000    60.000000     0.000000     0.000000     1.000000     0.000000     0.000000     0.500000
   12    -1.000000    60.000000     0.000000     0.000000     1.000000     0.000000     0.000000     0.500000
 
 Subroutine IBZKPT returns following result:
 ===========================================
 
 Found     72 irreducible k-points:
 
 Following reciprocal coordinates:
            Coordinates               Weight
  0.000000  0.000000  0.000000      1.000000
  0.166667  0.000000  0.000000      6.000000
  0.333333  0.000000  0.000000      6.000000
  0.500000  0.000000  0.000000      3.000000
  0.166667  0.166667  0.000000      6.000000
  0.333333  0.166667  0.000000      6.000000
  0.500000  0.166667  0.000000      6.000000
  0.333333  0.333333  0.000000      2.000000
  0.000000  0.000000  0.062500      2.000000
  0.166667  0.000000  0.062500     12.000000
  0.333333  0.000000  0.062500     12.000000
  0.500000  0.000000  0.062500      6.000000
  0.166667  0.166667  0.062500     12.000000
  0.333333  0.166667  0.062500     12.000000
  0.500000  0.166667  0.062500     12.000000
  0.333333  0.333333  0.062500      4.000000
  0.000000  0.000000  0.125000      2.000000
  0.166667  0.000000  0.125000     12.000000
  0.333333  0.000000  0.125000     12.000000
  0.500000  0.000000  0.125000      6.000000
  0.166667  0.166667  0.125000     12.000000
  0.333333  0.166667  0.125000     12.000000
  0.500000  0.166667  0.125000     12.000000
  0.333333  0.333333  0.125000      4.000000
  0.000000  0.000000  0.187500      2.000000
  0.166667  0.000000  0.187500     12.000000
  0.333333  0.000000  0.187500     12.000000
  0.500000  0.000000  0.187500      6.000000
  0.166667  0.166667  0.187500     12.000000
  0.333333  0.166667  0.187500     12.000000
  0.500000  0.166667  0.187500     12.000000
  0.333333  0.333333  0.187500      4.000000
  0.000000  0.000000  0.250000      2.000000
  0.166667  0.000000  0.250000     12.000000
  0.333333  0.000000  0.250000     12.000000
  0.500000  0.000000  0.250000      6.000000
  0.166667  0.166667  0.250000     12.000000
  0.333333  0.166667  0.250000     12.000000
  0.500000  0.166667  0.250000     12.000000
  0.333333  0.333333  0.250000      4.000000
  0.000000  0.000000  0.312500      2.000000
  0.166667  0.000000  0.312500     12.000000
  0.333333  0.000000  0.312500     12.000000
  0.500000  0.000000  0.312500      6.000000
  0.166667  0.166667  0.312500     12.000000
  0.333333  0.166667  0.312500     12.000000
  0.500000  0.166667  0.312500     12.000000
  0.333333  0.333333  0.312500      4.000000
  0.000000  0.000000  0.375000      2.000000
  0.166667  0.000000  0.375000     12.000000
  0.333333  0.000000  0.375000     12.000000
  0.500000  0.000000  0.375000      6.000000
  0.166667  0.166667  0.375000     12.000000
  0.333333  0.166667  0.375000     12.000000
  0.500000  0.166667  0.375000     12.000000
  0.333333  0.333333  0.375000      4.000000
  0.000000  0.000000  0.437500      2.000000
  0.166667  0.000000  0.437500     12.000000
  0.333333  0.000000  0.437500     12.000000
  0.500000  0.000000  0.437500      6.000000
  0.166667  0.166667  0.437500     12.000000
  0.333333  0.166667  0.437500     12.000000
  0.500000  0.166667  0.437500     12.000000
  0.333333  0.333333  0.437500      4.000000
  0.000000  0.000000  0.500000      1.000000
  0.166667  0.000000  0.500000      6.000000
  0.333333  0.000000  0.500000      6.000000
  0.500000  0.000000  0.500000      3.000000
  0.166667  0.166667  0.500000      6.000000
  0.333333  0.166667  0.500000      6.000000
  0.500000  0.166667  0.500000      6.000000
  0.333333  0.333333  0.500000      2.000000
 
 Following cartesian coordinates:
            Coordinates               Weight
  0.000000  0.000000  0.000000      1.000000
  0.020323 -0.011733  0.000000      6.000000
  0.040646 -0.023467  0.000000      6.000000
  0.060969 -0.035200  0.000000      3.000000
  0.040646  0.000000  0.000000      6.000000
  0.060969 -0.011733  0.000000      6.000000
  0.081292 -0.023467  0.000000      6.000000
  0.081292  0.000000  0.000000      2.000000
  0.000000  0.000000  0.021667      2.000000
  0.020323 -0.011733  0.021667     12.000000
  0.040646 -0.023467  0.021667     12.000000
  0.060969 -0.035200  0.021667      6.000000
  0.040646  0.000000  0.021667     12.000000
  0.060969 -0.011733  0.021667     12.000000
  0.081292 -0.023467  0.021667     12.000000
  0.081292  0.000000  0.021667      4.000000
  0.000000  0.000000  0.043335      2.000000
  0.020323 -0.011733  0.043335     12.000000
  0.040646 -0.023467  0.043335     12.000000
  0.060969 -0.035200  0.043335      6.000000
  0.040646  0.000000  0.043335     12.000000
  0.060969 -0.011733  0.043335     12.000000
  0.081292 -0.023467  0.043335     12.000000
  0.081292  0.000000  0.043335      4.000000
  0.000000  0.000000  0.065002      2.000000
  0.020323 -0.011733  0.065002     12.000000
  0.040646 -0.023467  0.065002     12.000000
  0.060969 -0.035200  0.065002      6.000000
  0.040646  0.000000  0.065002     12.000000
  0.060969 -0.011733  0.065002     12.000000
  0.081292 -0.023467  0.065002     12.000000
  0.081292  0.000000  0.065002      4.000000
  0.000000  0.000000  0.086670      2.000000
  0.020323 -0.011733  0.086670     12.000000
  0.040646 -0.023467  0.086670     12.000000
  0.060969 -0.035200  0.086670      6.000000
  0.040646  0.000000  0.086670     12.000000
  0.060969 -0.011733  0.086670     12.000000
  0.081292 -0.023467  0.086670     12.000000
  0.081292  0.000000  0.086670      4.000000
  0.000000  0.000000  0.108337      2.000000
  0.020323 -0.011733  0.108337     12.000000
  0.040646 -0.023467  0.108337     12.000000
  0.060969 -0.035200  0.108337      6.000000
  0.040646  0.000000  0.108337     12.000000
  0.060969 -0.011733  0.108337     12.000000
  0.081292 -0.023467  0.108337     12.000000
  0.081292  0.000000  0.108337      4.000000
  0.000000  0.000000  0.130005      2.000000
  0.020323 -0.011733  0.130005     12.000000
  0.040646 -0.023467  0.130005     12.000000
  0.060969 -0.035200  0.130005      6.000000
  0.040646  0.000000  0.130005     12.000000
  0.060969 -0.011733  0.130005     12.000000
  0.081292 -0.023467  0.130005     12.000000
  0.081292  0.000000  0.130005      4.000000
  0.000000  0.000000  0.151672      2.000000
  0.020323 -0.011733  0.151672     12.000000
  0.040646 -0.023467  0.151672     12.000000
  0.060969 -0.035200  0.151672      6.000000
  0.040646  0.000000  0.151672     12.000000
  0.060969 -0.011733  0.151672     12.000000
  0.081292 -0.023467  0.151672     12.000000
  0.081292  0.000000  0.151672      4.000000
  0.000000  0.000000  0.173340      1.000000
  0.020323 -0.011733  0.173340      6.000000
  0.040646 -0.023467  0.173340      6.000000
  0.060969 -0.035200  0.173340      3.000000
  0.040646  0.000000  0.173340      6.000000
  0.060969 -0.011733  0.173340      6.000000
  0.081292 -0.023467  0.173340      6.000000
  0.081292  0.000000  0.173340      2.000000
 


--------------------------------------------------------------------------------------------------------




 Dimension of arrays:
   k-points           NKPTS =     72   k-points in BZ     NKDIM =     72   number of bands    NBANDS=     40
   number of dos      NEDOS =    301   number of ions     NIONS =     14
   non local maximal  LDIM  =      4   non local SUM 2l+1 LMDIM =      8
   total plane-waves  NPLWV =  58320
   max r-space proj   IRMAX =   7167   max aug-charges    IRDMAX=  11804
   dimension x,y,z NGX =    54 NGY =   54 NGZ =   20
   dimension x,y,z NGXF=   108 NGYF=  108 NGZF=   40
   support grid    NGXF=   108 NGYF=  108 NGZF=   40
   ions per type =               6   8
   NGX,Y,Z   is equivalent  to a cutoff of  10.95, 10.95, 11.53 a.u.
   NGXF,Y,Z  is equivalent  to a cutoff of  21.89, 21.89, 23.05 a.u.

 SYSTEM =  unknown system                          
 POSCAR =  Si6 N8                                  

 Startparameter for this run:
   NWRITE =      2    write-flag & timer
   PREC   = accura    normal or accurate (medium, high low for compatibility)
   ISTART =      0    job   : 0-new  1-cont  2-samecut
   ICHARG =      2    charge: 1-file 2-atom 10-const
   ISPIN  =      1    spin polarized calculation?
   LNONCOLLINEAR =      F non collinear calculations
   LSORBIT =      F    spin-orbit coupling
   INIWAV =      1    electr: 0-lowe 1-rand  2-diag
   LASPH  =      F    aspherical Exc in radial PAW
   METAGGA=      F    non-selfconsistent MetaGGA calc.

 Electronic Relaxation 1
   ENCUT  =  400.0 eV  29.40 Ry    5.42 a.u.  13.37 13.37  4.70*2*pi/ulx,y,z
   ENINI  =  400.0     initial cutoff
   ENAUG  =  627.1 eV  augmentation charge cutoff
   NELM   =     60;   NELMIN=  2; NELMDL= -5     # of ELM steps 
   EDIFF  = 0.1E-03   stopping-criterion for ELM
   LREAL  =      T    real-space projection
   NLSPLINE    = F    spline interpolate recip. space projectors
   LCOMPAT=      F    compatible to vasp.4.4
   GGA_COMPAT  = T    GGA compatible to vasp.4.4-vasp.4.6
   LMAXPAW     = -100 max onsite density
   LMAXMIX     =    2 max onsite mixed and CHGCAR
   VOSKOWN=      0    Vosko Wilk Nusair interpolation
   ROPT   =   -0.00025  -0.00025
 Ionic relaxation
   EDIFFG = 0.1E-02   stopping-criterion for IOM
   NSW    =    100    number of steps for IOM
   NBLOCK =      1;   KBLOCK =    100    inner block; outer block 
   IBRION =      2    ionic relax: 0-MD 1-quasi-New 2-CG
   NFREE  =      1    steps in history (QN), initial steepest desc. (CG)
   ISIF   =      2    stress and relaxation
   IWAVPR =     11    prediction:  0-non 1-charg 2-wave 3-comb
   ISYM   =      2    0-nonsym 1-usesym 2-fastsym
   LCORR  =      T    Harris-Foulkes like correction to forces

   POTIM  = 0.5000    time-step for ionic-motion
   TEIN   =    0.0    initial temperature
   TEBEG  =    0.0;   TEEND  =   0.0 temperature during run
   SMASS  =  -3.00    Nose mass-parameter (am)
   estimated Nose-frequenzy (Omega)   =  0.10E-29 period in steps =****** mass=  -0.154E-26a.u.
   SCALEE = 1.0000    scale energy and forces
   NPACO  =    256;   APACO  = 16.0  distance and # of slots for P.C.
   PSTRESS=    0.0 pullay stress

  Mass of Ions in am
   POMASS =  14.00 28.09
  Ionic Valenz
   ZVAL   =   5.00  4.00
  Atomic Wigner-Seitz radii
   RWIGS  =  -1.00 -1.00
  virtual crystal weights 
   VCA    =   1.00  1.00
   NELECT =      62.0000    total number of electrons
   NUPDOWN=      -1.0000    fix difference up-down

 DOS related values:
   EMIN   =  10.00;   EMAX   =-10.00  energy-range for DOS
   EFERMI =   0.00
   ISMEAR =     2;   SIGMA  =   0.10  broadening in eV -4-tet -1-fermi 0-gaus

 Electronic relaxation 2 (details)
   IALGO  =     68    algorithm
   LDIAG  =      T    sub-space diagonalisation (order eigenvalues)
   LSUBROT=      F    optimize rotation matrix (better conditioning)
   TURBO    =      0    0=normal 1=particle mesh
   IRESTART =      0    0=no restart 2=restart with 2 vectors
   NREBOOT  =      0    no. of reboots
   NMIN     =      0    reboot dimension
   EREF     =   0.00    reference energy to select bands
   IMIX   =      4    mixing-type and parameters
     AMIX     =   0.40;   BMIX     =  1.00
     AMIX_MAG =   1.60;   BMIX_MAG =  1.00
     AMIN     =   0.10
     WC   =   100.;   INIMIX=   1;  MIXPRE=   1;  MAXMIX= -45

 Intra band minimization:
   WEIMIN = 0.0010     energy-eigenvalue tresh-hold
   EBREAK =  0.63E-06  absolut break condition
   DEPER  =   0.30     relativ break condition  

   TIME   =   0.40     timestep for ELM

  volume/ion in A,a.u.               =      12.00        80.98
  Fermi-wavevector in a.u.,A,eV,Ry     =   1.174256  2.219023 18.760773  1.378878
  Thomas-Fermi vector in A             =   2.310656
 
 Write flags
   LWAVE        =      F    write WAVECAR
   LDOWNSAMPLE  =      F    k-point downsampling of WAVECAR
   LCHARG       =      F    write CHGCAR
   LVTOT        =      F    write LOCPOT, total local potential
   LVHAR        =      F    write LOCPOT, Hartree potential only
   LELF         =      F    write electronic localiz. function (ELF)
   LORBIT       =      0    0 simple, 1 ext, 2 COOP (PROOUT), +10 PAW based schemes


 Dipole corrections
   LMONO  =      F    monopole corrections only (constant potential shift)
   LDIPOL =      F    correct potential (dipole corrections)
   IDIPOL =      0    1-x, 2-y, 3-z, 4-all directions 
   EPSILON=  1.0000000 bulk dielectric constant

 Exchange correlation treatment:
   GGA     =    --    GGA type
   LEXCH   =     8    internal setting for exchange type
   VOSKOWN=      0    Vosko Wilk Nusair interpolation
   LHFCALC =     F    Hartree Fock is set to
   LHFONE  =     F    Hartree Fock one center treatment
   AEXX    =    0.0000 exact exchange contribution

 Linear response parameters
   LEPSILON=     F    determine dielectric tensor
   LRPA    =     F    only Hartree local field effects (RPA)
   LNABLA  =     F    use nabla operator in PAW spheres
   LVEL    =     F    velocity operator in full k-point grid
   LINTERFAST=   F  fast interpolation
   KINTER  =     0    interpolate to denser k-point grid
   CSHIFT  =0.1000    complex shift for real part using Kramers Kronig
   OMEGAMAX=  -1.0    maximum frequency
   DEG_THRESHOLD= 0.2000000E-02 threshold for treating states as degnerate
   RTIME   =   -0.100 relaxation time in fs
  (WPLASMAI=    0.000 imaginary part of plasma frequency in eV, 0.658/RTIME)
   DFIELD  = 0.0000000 0.0000000 0.0000000 field for delta impulse in time
 
 Orbital magnetization related:
   ORBITALMAG=     F  switch on orbital magnetization
   LCHIMAG   =     F  perturbation theory with respect to B field
   DQ        =  0.001000  dq finite difference perturbation B field
   LLRAUG    =     F  two centre corrections for induced B field



--------------------------------------------------------------------------------------------------------


 conjugate gradient relaxation of ions
 charge density and potential will be updated during run
 non-spin polarized calculation
 RMM-DIIS sequential band-by-band and
  variant of blocked Davidson during initial phase
 perform sub-space diagonalisation
    before iterative eigenvector-optimisation
 modified Broyden-mixing scheme, WC =      100.0
 initial mixing is a Kerker type mixing with AMIX =  0.4000 and BMIX =      1.0000
 Hartree-type preconditioning will be used
 using additional bands            9
 real space projection scheme for non local part
 use partial core corrections
 calculate Harris-corrections to forces 
   (improved forces if not selfconsistent)
 use gradient corrections 
 use of overlap-Matrix (Vanderbilt PP)
 Methfessel and Paxton  Order N= 2 SIGMA  =   0.10


--------------------------------------------------------------------------------------------------------


  energy-cutoff  :      400.00
  volume of cell :      168.01
      direct lattice vectors                 reciprocal lattice vectors
     4.100458669 -7.102202737  0.000000000     0.121937579 -0.070400694  0.000000000
     4.100458658  7.102202743  0.000000000     0.121937578  0.070400694  0.000000000
     0.000000000  0.000000000  2.884509320     0.000000000  0.000000000  0.346679414

  length of vectors
     8.200917327  8.200917327  2.884509320     0.140801387  0.140801387  0.346679414


 
 k-points in units of 2pi/SCALE and weight: Automatic mesh                          
   0.00000000  0.00000000  0.00000000       0.002
   0.02032293 -0.01173345  0.00000000       0.010
   0.04064586 -0.02346690  0.00000000       0.010
   0.06096879 -0.03520035  0.00000000       0.005
   0.04064586  0.00000000  0.00000000       0.010
   0.06096879 -0.01173345  0.00000000       0.010
   0.08129172 -0.02346690  0.00000000       0.010
   0.08129172  0.00000000  0.00000000       0.003
   0.00000000  0.00000000  0.02166746       0.003
   0.02032293 -0.01173345  0.02166746       0.021
   0.04064586 -0.02346690  0.02166746       0.021
   0.06096879 -0.03520035  0.02166746       0.010
   0.04064586  0.00000000  0.02166746       0.021
   0.06096879 -0.01173345  0.02166746       0.021
   0.08129172 -0.02346690  0.02166746       0.021
   0.08129172  0.00000000  0.02166746       0.007
   0.00000000  0.00000000  0.04333493       0.003
   0.02032293 -0.01173345  0.04333493       0.021
   0.04064586 -0.02346690  0.04333493       0.021
   0.06096879 -0.03520035  0.04333493       0.010
   0.04064586  0.00000000  0.04333493       0.021
   0.06096879 -0.01173345  0.04333493       0.021
   0.08129172 -0.02346690  0.04333493       0.021
   0.08129172  0.00000000  0.04333493       0.007
   0.00000000  0.00000000  0.06500239       0.003
   0.02032293 -0.01173345  0.06500239       0.021
   0.04064586 -0.02346690  0.06500239       0.021
   0.06096879 -0.03520035  0.06500239       0.010
   0.04064586  0.00000000  0.06500239       0.021
   0.06096879 -0.01173345  0.06500239       0.021
   0.08129172 -0.02346690  0.06500239       0.021
   0.08129172  0.00000000  0.06500239       0.007
   0.00000000  0.00000000  0.08666985       0.003
   0.02032293 -0.01173345  0.08666985       0.021
   0.04064586 -0.02346690  0.08666985       0.021
   0.06096879 -0.03520035  0.08666985       0.010
   0.04064586  0.00000000  0.08666985       0.021
   0.06096879 -0.01173345  0.08666985       0.021
   0.08129172 -0.02346690  0.08666985       0.021
   0.08129172  0.00000000  0.08666985       0.007
   0.00000000  0.00000000  0.10833732       0.003
   0.02032293 -0.01173345  0.10833732       0.021
   0.04064586 -0.02346690  0.10833732       0.021
   0.06096879 -0.03520035  0.10833732       0.010
   0.04064586  0.00000000  0.10833732       0.021
   0.06096879 -0.01173345  0.10833732       0.021
   0.08129172 -0.02346690  0.10833732       0.021
   0.08129172  0.00000000  0.10833732       0.007
   0.00000000  0.00000000  0.13000478       0.003
   0.02032293 -0.01173345  0.13000478       0.021
   0.04064586 -0.02346690  0.13000478       0.021
   0.06096879 -0.03520035  0.13000478       0.010
   0.04064586  0.00000000  0.13000478       0.021
   0.06096879 -0.01173345  0.13000478       0.021
   0.08129172 -0.02346690  0.13000478       0.021
   0.08129172  0.00000000  0.13000478       0.007
   0.00000000  0.00000000  0.15167224       0.003
   0.02032293 -0.01173345  0.15167224       0.021
   0.04064586 -0.02346690  0.15167224       0.021
   0.06096879 -0.03520035  0.15167224       0.010
   0.04064586  0.00000000  0.15167224       0.021
   0.06096879 -0.01173345  0.15167224       0.021
   0.08129172 -0.02346690  0.15167224       0.021
   0.08129172  0.00000000  0.15167224       0.007
   0.00000000  0.00000000  0.17333971       0.002
   0.02032293 -0.01173345  0.17333971       0.010
   0.04064586 -0.02346690  0.17333971       0.010
   0.06096879 -0.03520035  0.17333971       0.005
   0.04064586  0.00000000  0.17333971       0.010
   0.06096879 -0.01173345  0.17333971       0.010
   0.08129172 -0.02346690  0.17333971       0.010
   0.08129172  0.00000000  0.17333971       0.003
 
 k-points in reciprocal lattice and weights: Automatic mesh                          
   0.00000000  0.00000000  0.00000000       0.002
   0.16666667  0.00000000  0.00000000       0.010
   0.33333333  0.00000000  0.00000000       0.010
   0.50000000  0.00000000  0.00000000       0.005
   0.16666667  0.16666667  0.00000000       0.010
   0.33333333  0.16666667  0.00000000       0.010
   0.50000000  0.16666667  0.00000000       0.010
   0.33333333  0.33333333  0.00000000       0.003
   0.00000000  0.00000000  0.06250000       0.003
   0.16666667  0.00000000  0.06250000       0.021
   0.33333333  0.00000000  0.06250000       0.021
   0.50000000  0.00000000  0.06250000       0.010
   0.16666667  0.16666667  0.06250000       0.021
   0.33333333  0.16666667  0.06250000       0.021
   0.50000000  0.16666667  0.06250000       0.021
   0.33333333  0.33333333  0.06250000       0.007
   0.00000000  0.00000000  0.12500000       0.003
   0.16666667  0.00000000  0.12500000       0.021
   0.33333333  0.00000000  0.12500000       0.021
   0.50000000  0.00000000  0.12500000       0.010
   0.16666667  0.16666667  0.12500000       0.021
   0.33333333  0.16666667  0.12500000       0.021
   0.50000000  0.16666667  0.12500000       0.021
   0.33333333  0.33333333  0.12500000       0.007
   0.00000000  0.00000000  0.18750000       0.003
   0.16666667  0.00000000  0.18750000       0.021
   0.33333333  0.00000000  0.18750000       0.021
   0.50000000  0.00000000  0.18750000       0.010
   0.16666667  0.16666667  0.18750000       0.021
   0.33333333  0.16666667  0.18750000       0.021
   0.50000000  0.16666667  0.18750000       0.021
   0.33333333  0.33333333  0.18750000       0.007
   0.00000000  0.00000000  0.25000000       0.003
   0.16666667  0.00000000  0.25000000       0.021
   0.33333333  0.00000000  0.25000000       0.021
   0.50000000  0.00000000  0.25000000       0.010
   0.16666667  0.16666667  0.25000000       0.021
   0.33333333  0.16666667  0.25000000       0.021
   0.50000000  0.16666667  0.25000000       0.021
   0.33333333  0.33333333  0.25000000       0.007
   0.00000000  0.00000000  0.31250000       0.003
   0.16666667  0.00000000  0.31250000       0.021
   0.33333333  0.00000000  0.31250000       0.021
   0.50000000  0.00000000  0.31250000       0.010
   0.16666667  0.16666667  0.31250000       0.021
   0.33333333  0.16666667  0.31250000       0.021
   0.50000000  0.16666667  0.31250000       0.021
   0.33333333  0.33333333  0.31250000       0.007
   0.00000000  0.00000000  0.37500000       0.003
   0.16666667  0.00000000  0.37500000       0.021
   0.33333333  0.00000000  0.37500000       0.021
   0.50000000  0.00000000  0.37500000       0.010
   0.16666667  0.16666667  0.37500000       0.021
   0.33333333  0.16666667  0.37500000       0.021
   0.50000000  0.16666667  0.37500000       0.021
   0.33333333  0.33333333  0.37500000       0.007
   0.00000000  0.00000000  0.43750000       0.003
   0.16666667  0.00000000  0.43750000       0.021
   0.33333333  0.00000000  0.43750000       0.021
   0.50000000  0.00000000  0.43750000       0.010
   0.16666667  0.16666667  0.43750000       0.021
   0.33333333  0.16666667  0.43750000       0.021
   0.50000000  0.16666667  0.43750000       0.021
   0.33333333  0.33333333  0.43750000       0.007
   0.00000000  0.00000000  0.50000000       0.002
   0.16666667  0.00000000  0.50000000       0.010
   0.33333333  0.00000000  0.50000000       0.010
   0.50000000  0.00000000  0.50000000       0.005
   0.16666667  0.16666667  0.50000000       0.010
   0.33333333  0.16666667  0.50000000       0.010
   0.50000000  0.16666667  0.50000000       0.010
   0.33333333  0.33333333  0.50000000       0.003
 
 position of ions in fractional coordinates (direct lattice) 
   0.19708959  0.83151770  0.75000000
   0.36557189  0.19708959  0.25000000
   0.83151770  0.63442811  0.25000000
   0.16848230  0.36557189  0.75000000
   0.63442811  0.80291041  0.75000000
   0.80291041  0.16848230  0.25000000
   0.33333333  0.66666667  0.75000000
   0.66666667  0.33333333  0.25000000
   0.96358754  0.61246345  0.75000000
   0.35112409  0.96358754  0.25000000
   0.61246345  0.64887591  0.25000000
   0.38753655  0.35112409  0.75000000
   0.03641246  0.38753655  0.25000000
   0.64887591  0.03641246  0.75000000
 
 position of ions in cartesian coordinates  (Angst):
   4.21776169  4.50583706  2.16338199
   2.30717015 -1.19659543  0.72112733
   6.01105021 -1.39977024  0.72112733
   2.18986712  1.39977025  2.16338199
   5.89374718  1.19659544  2.16338199
   3.98315564 -4.50583706  0.72112733
   4.10045866  2.36740092  2.16338199
   4.10045867 -2.36740091  0.72112733
   6.46253194 -2.49375448  2.16338199
   5.39092070  4.34983960  0.72112733
   5.17206990  0.25860867  0.72112733
   3.02884743 -0.25860866  2.16338199
   1.73838539  2.49375448  0.72112733
   2.80999663 -4.34983959  2.16338199
 


--------------------------------------------------------------------------------------------------------


 k-point  1 :   0.0000 0.0000 0.0000  plane waves:    3087
 k-point  2 :   0.1667 0.0000 0.0000  plane waves:    3069
 k-point  3 :   0.3333 0.0000 0.0000  plane waves:    3061
 k-point  4 :   0.5000 0.0000 0.0000  plane waves:    3066
 k-point  5 :   0.1667 0.1667 0.0000  plane waves:    3063
 k-point  6 :   0.3333 0.1667 0.0000  plane waves:    3055
 k-point  7 :   0.5000 0.1667 0.0000  plane waves:    3055
 k-point  8 :   0.3333 0.3333 0.0000  plane waves:    3036
 k-point  9 :   0.0000 0.0000 0.0625  plane waves:    3075
 k-point 10 :   0.1667 0.0000 0.0625  plane waves:    3057
 k-point 11 :   0.3333 0.0000 0.0625  plane waves:    3065
 k-point 12 :   0.5000 0.0000 0.0625  plane waves:    3066
 k-point 13 :   0.1667 0.1667 0.0625  plane waves:    3070
 k-point 14 :   0.3333 0.1667 0.0625  plane waves:    3054
 k-point 15 :   0.5000 0.1667 0.0625  plane waves:    3054
 k-point 16 :   0.3333 0.3333 0.0625  plane waves:    3048
 k-point 17 :   0.0000 0.0000 0.1250  plane waves:    3075
 k-point 18 :   0.1667 0.0000 0.1250  plane waves:    3061
 k-point 19 :   0.3333 0.0000 0.1250  plane waves:    3044
 k-point 20 :   0.5000 0.0000 0.1250  plane waves:    3046
 k-point 21 :   0.1667 0.1667 0.1250  plane waves:    3060
 k-point 22 :   0.3333 0.1667 0.1250  plane waves:    3054
 k-point 23 :   0.5000 0.1667 0.1250  plane waves:    3054
 k-point 24 :   0.3333 0.3333 0.1250  plane waves:    3066
 k-point 25 :   0.0000 0.0000 0.1875  plane waves:    3051
 k-point 26 :   0.1667 0.0000 0.1875  plane waves:    3043
 k-point 27 :   0.3333 0.0000 0.1875  plane waves:    3059
 k-point 28 :   0.5000 0.0000 0.1875  plane waves:    3052
 k-point 29 :   0.1667 0.1667 0.1875  plane waves:    3049
 k-point 30 :   0.3333 0.1667 0.1875  plane waves:    3058
 k-point 31 :   0.5000 0.1667 0.1875  plane waves:    3058
 k-point 32 :   0.3333 0.3333 0.1875  plane waves:    3051
 k-point 33 :   0.0000 0.0000 0.2500  plane waves:    3045
 k-point 34 :   0.1667 0.0000 0.2500  plane waves:    3044
 k-point 35 :   0.3333 0.0000 0.2500  plane waves:    3054
 k-point 36 :   0.5000 0.0000 0.2500  plane waves:    3046
 k-point 37 :   0.1667 0.1667 0.2500  plane waves:    3045
 k-point 38 :   0.3333 0.1667 0.2500  plane waves:    3049
 k-point 39 :   0.5000 0.1667 0.2500  plane waves:    3049
 k-point 40 :   0.3333 0.3333 0.2500  plane waves:    3045
 k-point 41 :   0.0000 0.0000 0.3125  plane waves:    3040
 k-point 42 :   0.1667 0.0000 0.3125  plane waves:    3057
 k-point 43 :   0.3333 0.0000 0.3125  plane waves:    3034
 k-point 44 :   0.5000 0.0000 0.3125  plane waves:    3036
 k-point 45 :   0.1667 0.1667 0.3125  plane waves:    3045
 k-point 46 :   0.3333 0.1667 0.3125  plane waves:    3038
 k-point 47 :   0.5000 0.1667 0.3125  plane waves:    3038
 k-point 48 :   0.3333 0.3333 0.3125  plane waves:    3048
 k-point 49 :   0.0000 0.0000 0.3750  plane waves:    3064
 k-point 50 :   0.1667 0.0000 0.3750  plane waves:    3055
 k-point 51 :   0.3333 0.0000 0.3750  plane waves:    3050
 k-point 52 :   0.5000 0.0000 0.3750  plane waves:    3056
 k-point 53 :   0.1667 0.1667 0.3750  plane waves:    3056
 k-point 54 :   0.3333 0.1667 0.3750  plane waves:    3041
 k-point 55 :   0.5000 0.1667 0.3750  plane waves:    3041
 k-point 56 :   0.3333 0.3333 0.3750  plane waves:    3036
 k-point 57 :   0.0000 0.0000 0.4375  plane waves:    3052
 k-point 58 :   0.1667 0.0000 0.4375  plane waves:    3063
 k-point 59 :   0.3333 0.0000 0.4375  plane waves:    3057
 k-point 60 :   0.5000 0.0000 0.4375  plane waves:    3050
 k-point 61 :   0.1667 0.1667 0.4375  plane waves:    3052
 k-point 62 :   0.3333 0.1667 0.4375  plane waves:    3042
 k-point 63 :   0.5000 0.1667 0.4375  plane waves:    3042
 k-point 64 :   0.3333 0.3333 0.4375  plane waves:    3027
 k-point 65 :   0.0000 0.0000 0.5000  plane waves:    3010
 k-point 66 :   0.1667 0.0000 0.5000  plane waves:    3064
 k-point 67 :   0.3333 0.0000 0.5000  plane waves:    3044
 k-point 68 :   0.5000 0.0000 0.5000  plane waves:    3060
 k-point 69 :   0.1667 0.1667 0.5000  plane waves:    3052
 k-point 70 :   0.3333 0.1667 0.5000  plane waves:    3052
 k-point 71 :   0.5000 0.1667 0.5000  plane waves:    3052
 k-point 72 :   0.3333 0.3333 0.5000  plane waves:    3036

 maximum and minimum number of plane-waves per node :       792      736

 maximum number of plane-waves:      3087
 maximum index in each direction: 
   IXMAX=   13   IYMAX=   13   IZMAX=    4
   IXMIN=  -13   IYMIN=  -13   IZMIN=   -5


 real space projection operators:
  total allocation   :       4449.88 KBytes
  max/ min on nodes  :       1150.25       1072.50


 parallel 3D FFT for wavefunctions:
    minimum data exchange during FFTs selected (reduces bandwidth)
 parallel 3D FFT for charge:
    minimum data exchange during FFTs selected (reduces bandwidth)


 total amount of memory used by VASP MPI-rank0    46503. kBytes
=======================================================================

   base      :      30000. kBytes
   nonlr-proj:       3115. kBytes
   fftplans  :       1514. kBytes
   grid      :       2370. kBytes
   one-center:         12. kBytes
   wavefun   :       9492. kBytes
 
     INWAV:  cpu time    0.0000: real time    0.0000
 Broyden mixing: mesh for mixing (old mesh)
   NGX = 27   NGY = 27   NGZ =  9
  (NGX  =108   NGY  =108   NGZ  = 40)
  gives a total of   6561 points

 initial charge density was supplied:
 charge density of overlapping atoms calculated
 number of electron      62.0000000 magnetization 
 keeping initial charge density in first step


--------------------------------------------------------------------------------------------------------


 Maximum index for non-local projection operator         1846
 Maximum index for augmentation-charges          929 (set IRDMAX)


--------------------------------------------------------------------------------------------------------


 First call to EWALD:  gamma=   0.321
 Maximum number of real-space cells 2x 2x 5
 Maximum number of reciprocal cells 4x 4x 2

    FEWALD:  cpu time    0.0697: real time    0.0697


--------------------------------------- Iteration      1(   1)  ---------------------------------------


    POTLOK:  cpu time    0.4169: real time    0.8443
    SETDIJ:  cpu time    0.0517: real time    0.1037
     EDDAV:  cpu time    2.2574: real time    2.2577
       DOS:  cpu time    0.0027: real time    0.0027
    --------------------------------------------
      LOOP:  cpu time    2.7286: real time    3.2084

 eigenvalue-minimisations  :  5776
 total energy-change (2. order) : 0.2243657E+03  (-0.2503522E+04)
 number of electron      62.0000000 magnetization 
 augmentation part       62.0000000 magnetization 

 Free energy of the ion-electron system (eV)
  ---------------------------------------------------
  alpha Z        PSCENC =        72.55963857
  Ewald energy   TEWEN  =     -2180.68470621
  -Hartree energ DENC   =      -531.31480603
  -exchange      EXHF   =         0.00000000
  -V(xc)+E(xc)   XCENC  =        49.87536917
  PAW double counting   =      1934.58678659    -1800.98643654
  entropy T*S    EENTRO =        -0.00056539
  eigenvalues    EBANDS =       268.95442672
  atomic energy  EATOM  =      2411.37598431
  Solvation  Ediel_sol  =         0.00000000
  ---------------------------------------------------
  free energy    TOTEN  =       224.36569121 eV

  energy without entropy =      224.36625659  energy(sigma->0) =      224.36583255


--------------------------------------------------------------------------------------------------------




--------------------------------------- Iteration      1(   2)  ---------------------------------------


     EDDAV:  cpu time    2.6931: real time    2.6960
       DOS:  cpu time    0.0028: real time    0.0028
    --------------------------------------------
      LOOP:  cpu time    2.6959: real time    2.6988

 eigenvalue-minimisations  :  7352
 total energy-change (2. order) :-0.3046502E+03  (-0.2916456E+03)
 number of electron      62.0000000 magnetization 
 augmentation part       62.0000000 magnetization 

 Free energy of the ion-electron system (eV)
  ---------------------------------------------------
  alpha Z        PSCENC =        72.55963857
  Ewald energy   TEWEN  =     -2180.68470621
  -Hartree energ DENC   =      -531.31480603
  -exchange      EXHF   =         0.00000000
  -V(xc)+E(xc)   XCENC  =        49.87536917
  PAW double counting   =      1934.58678659    -1800.98643654
  entropy T*S    EENTRO =         0.00051477
  eigenvalues    EBANDS =       -35.69686262
  atomic energy  EATOM  =      2411.37598431
  Solvation  Ediel_sol  =         0.00000000
  ---------------------------------------------------
  free energy    TOTEN  =       -80.28451798 eV

  energy without entropy =      -80.28503275  energy(sigma->0) =      -80.28464667


--------------------------------------------------------------------------------------------------------




--------------------------------------- Iteration      1(   3)  ---------------------------------------


     EDDAV:  cpu time    2.6540: real time    2.6561
       DOS:  cpu time    0.0031: real time    0.0031
    --------------------------------------------
      LOOP:  cpu time    2.6571: real time    2.6592

 eigenvalue-minimisations  :  7216
 total energy-change (2. order) :-0.2293018E+02  (-0.2248039E+02)
 number of electron      62.0000000 magnetization 
 augmentation part       62.0000000 magnetization 

 Free energy of the ion-electron system (eV)
  ---------------------------------------------------
  alpha Z        PSCENC =        72.55963857
  Ewald energy   TEWEN  =     -2180.68470621
  -Hartree energ DENC   =      -531.31480603
  -exchange      EXHF   =         0.00000000
  -V(xc)+E(xc)   XCENC  =        49.87536917
  PAW double counting   =      1934.58678659    -1800.98643654
  entropy T*S    EENTRO =        -0.00163213
  eigenvalues    EBANDS =       -58.62489328
  atomic energy  EATOM  =      2411.37598431
  Solvation  Ediel_sol  =         0.00000000
  ---------------------------------------------------
  free energy    TOTEN  =      -103.21469554 eV

  energy without entropy =     -103.21306341  energy(sigma->0) =     -103.21428750


--------------------------------------------------------------------------------------------------------




--------------------------------------- Iteration      1(   4)  ---------------------------------------


     EDDAV:  cpu time    2.7103: real time    2.7107
       DOS:  cpu time    0.0030: real time    0.0030
    --------------------------------------------
      LOOP:  cpu time    2.7133: real time    2.7138

 eigenvalue-minimisations  :  7424
 total energy-change (2. order) :-0.6135003E+00  (-0.6094764E+00)
 number of electron      62.0000000 magnetization 
 augmentation part       62.0000000 magnetization 

 Free energy of the ion-electron system (eV)
  ---------------------------------------------------
  alpha Z        PSCENC =        72.55963857
  Ewald energy   TEWEN  =     -2180.68470621
  -Hartree energ DENC   =      -531.31480603
  -exchange      EXHF   =         0.00000000
  -V(xc)+E(xc)   XCENC  =        49.87536917
  PAW double counting   =      1934.58678659    -1800.98643654
  entropy T*S    EENTRO =        -0.00314534
  eigenvalues    EBANDS =       -59.23688040
  atomic energy  EATOM  =      2411.37598431
  Solvation  Ediel_sol  =         0.00000000
  ---------------------------------------------------
  free energy    TOTEN  =      -103.82819587 eV

  energy without entropy =     -103.82505053  energy(sigma->0) =     -103.82740953


--------------------------------------------------------------------------------------------------------




--------------------------------------- Iteration      1(   5)  ---------------------------------------


     EDDAV:  cpu time    2.6713: real time    2.6730
       DOS:  cpu time    0.0028: real time    0.0028
    CHARGE:  cpu time    0.1437: real time    0.1438
    MIXING:  cpu time    0.0008: real time    0.0008
    --------------------------------------------
      LOOP:  cpu time    2.8187: real time    2.8205

 eigenvalue-minimisations  :  7240
 total energy-change (2. order) :-0.1418104E-01  (-0.1417124E-01)
 number of electron      61.9999999 magnetization 
 augmentation part        0.3121551 magnetization 

 Broyden mixing:
  rms(total) = 0.21548E+01    rms(broyden)= 0.21542E+01
  rms(prec ) = 0.32164E+01
  weight for this iteration     100.00

 Free energy of the ion-electron system (eV)
  ---------------------------------------------------
  alpha Z        PSCENC =        72.55963857
  Ewald energy   TEWEN  =     -2180.68470621
  -Hartree energ DENC   =      -531.31480603
  -exchange      EXHF   =         0.00000000
  -V(xc)+E(xc)   XCENC  =        49.87536917
  PAW double counting   =      1934.58678659    -1800.98643654
  entropy T*S    EENTRO =        -0.00317796
  eigenvalues    EBANDS =       -59.25102882
  atomic energy  EATOM  =      2411.37598431
  Solvation  Ediel_sol  =         0.00000000
  ---------------------------------------------------
  free energy    TOTEN  =      -103.84237691 eV

  energy without entropy =     -103.83919895  energy(sigma->0) =     -103.84158242


--------------------------------------------------------------------------------------------------------




--------------------------------------- Iteration      1(   6)  ---------------------------------------


    POTLOK:  cpu time    0.0197: real time    0.0236
    SETDIJ:  cpu time    0.0024: real time    0.0027
    EDDIAG:  cpu time    0.3797: real time    0.3797
  RMM-DIIS:  cpu time    1.5799: real time    1.5797
    ORTHCH:  cpu time    0.0361: real time    0.0361
       DOS:  cpu time    0.0030: real time    0.0030
    CHARGE:  cpu time    0.1527: real time    0.1527
    MIXING:  cpu time    0.0008: real time    0.0008
    --------------------------------------------
      LOOP:  cpu time    2.1742: real time    2.1782

 eigenvalue-minimisations  :  5760
 total energy-change (2. order) : 0.8220815E+01  (-0.4815319E+01)
 number of electron      61.9999997 magnetization 
 augmentation part       -0.4651323 magnetization 

 Broyden mixing:
  rms(total) = 0.98580E+00    rms(broyden)= 0.98515E+00
  rms(prec ) = 0.11983E+01
  weight for this iteration     100.00

 eigenvalues of (default mixing * dielectric matrix)
  average eigenvalue GAMMA=   0.9692
  0.9692

 Free energy of the ion-electron system (eV)
  ---------------------------------------------------
  alpha Z        PSCENC =        72.55963857
  Ewald energy   TEWEN  =     -2180.68470621
  -Hartree energ DENC   =      -609.72793695
  -exchange      EXHF   =         0.00000000
  -V(xc)+E(xc)   XCENC  =        55.38261512
  PAW double counting   =      3557.20610032    -3424.33254596
  entropy T*S    EENTRO =        -0.00124331
  eigenvalues    EBANDS =        22.60053263
  atomic energy  EATOM  =      2411.37598431
  Solvation  Ediel_sol  =         0.00000000
  ---------------------------------------------------
  free energy    TOTEN  =       -95.62156149 eV

  energy without entropy =      -95.62031818  energy(sigma->0) =      -95.62125066


--------------------------------------------------------------------------------------------------------




--------------------------------------- Iteration      1(   7)  ---------------------------------------


    POTLOK:  cpu time    0.0193: real time    0.0210
    SETDIJ:  cpu time    0.0023: real time    0.0023
    EDDIAG:  cpu time    0.3746: real time    0.3751
  RMM-DIIS:  cpu time    1.5710: real time    1.5709
    ORTHCH:  cpu time    0.0351: real time    0.0351
       DOS:  cpu time    0.0028: real time    0.0028
    CHARGE:  cpu time    0.1499: real time    0.1498
    MIXING:  cpu time    0.0006: real time    0.0006
    --------------------------------------------
      LOOP:  cpu time    2.1558: real time    2.1578

 eigenvalue-minimisations  :  5816
 total energy-change (2. order) : 0.5035234E+00  (-0.1045412E+00)
 number of electron      61.9999997 magnetization 
 augmentation part       -0.4458572 magnetization 

 Broyden mixing:
  rms(total) = 0.56343E+00    rms(broyden)= 0.56341E+00
  rms(prec ) = 0.66958E+00
  weight for this iteration     100.00

 eigenvalues of (default mixing * dielectric matrix)
  average eigenvalue GAMMA=   1.5413
  0.9821  2.1004

 Free energy of the ion-electron system (eV)
  ---------------------------------------------------
  alpha Z        PSCENC =        72.55963857
  Ewald energy   TEWEN  =     -2180.68470621
  -Hartree energ DENC   =      -606.94052516
  -exchange      EXHF   =         0.00000000
  -V(xc)+E(xc)   XCENC  =        55.37820394
  PAW double counting   =      4689.09499583    -4556.36976515
  entropy T*S    EENTRO =         0.00089993
  eigenvalues    EBANDS =        20.46723579
  atomic energy  EATOM  =      2411.37598431
  Solvation  Ediel_sol  =         0.00000000
  ---------------------------------------------------
  free energy    TOTEN  =       -95.11803813 eV

  energy without entropy =      -95.11893806  energy(sigma->0) =      -95.11826311


--------------------------------------------------------------------------------------------------------




--------------------------------------- Iteration      1(   8)  ---------------------------------------


    POTLOK:  cpu time    0.0184: real time    0.0210
    SETDIJ:  cpu time    0.0022: real time    0.0022
    EDDIAG:  cpu time    0.3771: real time    0.3771
  RMM-DIIS:  cpu time    1.5473: real time    1.5472
    ORTHCH:  cpu time    0.0355: real time    0.0355
       DOS:  cpu time    0.0029: real time    0.0029
    CHARGE:  cpu time    0.1500: real time    0.1500
    MIXING:  cpu time    0.0006: real time    0.0006
    --------------------------------------------
      LOOP:  cpu time    2.1341: real time    2.1365

 eigenvalue-minimisations  :  5771
 total energy-change (2. order) : 0.7660655E-01  (-0.7159164E-01)
 number of electron      61.9999998 magnetization 
 augmentation part       -0.3968717 magnetization 

 Broyden mixing:
  rms(total) = 0.10566E+00    rms(broyden)= 0.10555E+00
  rms(prec ) = 0.19085E+00
  weight for this iteration     100.00

 eigenvalues of (default mixing * dielectric matrix)
  average eigenvalue GAMMA=   1.4772
  2.3402  1.0457  1.0457

 Free energy of the ion-electron system (eV)
  ---------------------------------------------------
  alpha Z        PSCENC =        72.55963857
  Ewald energy   TEWEN  =     -2180.68470621
  -Hartree energ DENC   =      -608.32113894
  -exchange      EXHF   =         0.00000000
  -V(xc)+E(xc)   XCENC  =        55.76342410
  PAW double counting   =      6433.05089644    -6300.55500710
  entropy T*S    EENTRO =         0.00145395
  eigenvalues    EBANDS =        21.76802329
  atomic energy  EATOM  =      2411.37598431
  Solvation  Ediel_sol  =         0.00000000
  ---------------------------------------------------
  free energy    TOTEN  =       -95.04143158 eV

  energy without entropy =      -95.04288553  energy(sigma->0) =      -95.04179507


--------------------------------------------------------------------------------------------------------




--------------------------------------- Iteration      1(   9)  ---------------------------------------


    POTLOK:  cpu time    0.0185: real time    0.0206
    SETDIJ:  cpu time    0.0023: real time    0.0023
    EDDIAG:  cpu time    0.3756: real time    0.3761
  RMM-DIIS:  cpu time    1.5686: real time    1.5696
    ORTHCH:  cpu time    0.0362: real time    0.0362
       DOS:  cpu time    0.0028: real time    0.0028
    CHARGE:  cpu time    0.1513: real time    0.1513
    MIXING:  cpu time    0.0006: real time    0.0006
    --------------------------------------------
      LOOP:  cpu time    2.1559: real time    2.1595

 eigenvalue-minimisations  :  5805
 total energy-change (2. order) : 0.2592342E-01  (-0.2141884E-01)
 number of electron      61.9999997 magnetization 
 augmentation part       -0.4485327 magnetization 

 Broyden mixing:
  rms(total) = 0.50700E-01    rms(broyden)= 0.50657E-01
  rms(prec ) = 0.71118E-01
  weight for this iteration     100.00

 eigenvalues of (default mixing * dielectric matrix)
  average eigenvalue GAMMA=   1.6409
  2.3143  2.3143  0.9675  0.9675

 Free energy of the ion-electron system (eV)
  ---------------------------------------------------
  alpha Z        PSCENC =        72.55963857
  Ewald energy   TEWEN  =     -2180.68470621
  -Hartree energ DENC   =      -615.21855281
  -exchange      EXHF   =         0.00000000
  -V(xc)+E(xc)   XCENC  =        56.26517499
  PAW double counting   =      6634.40271162    -6501.97212823
  entropy T*S    EENTRO =         0.00231056
  eigenvalues    EBANDS =        28.25405903
  atomic energy  EATOM  =      2411.37598431
  Solvation  Ediel_sol  =         0.00000000
  ---------------------------------------------------
  free energy    TOTEN  =       -95.01550816 eV

  energy without entropy =      -95.01781872  energy(sigma->0) =      -95.01608580


--------------------------------------------------------------------------------------------------------




--------------------------------------- Iteration      1(  10)  ---------------------------------------


    POTLOK:  cpu time    0.0196: real time    0.0214
    SETDIJ:  cpu time    0.0024: real time    0.0024
    EDDIAG:  cpu time    0.3761: real time    0.3763
  RMM-DIIS:  cpu time    1.5933: real time    1.5935
    ORTHCH:  cpu time    0.0357: real time    0.0357
       DOS:  cpu time    0.0030: real time    0.0030
    CHARGE:  cpu time    0.1522: real time    0.1525
    MIXING:  cpu time    0.0007: real time    0.0007
    --------------------------------------------
      LOOP:  cpu time    2.1829: real time    2.1854

 eigenvalue-minimisations  :  5798
 total energy-change (2. order) : 0.1471330E-02  (-0.1077663E-02)
 number of electron      61.9999997 magnetization 
 augmentation part       -0.4425749 magnetization 

 Broyden mixing:
  rms(total) = 0.15474E-01    rms(broyden)= 0.15474E-01
  rms(prec ) = 0.25047E-01
  weight for this iteration     100.00

 eigenvalues of (default mixing * dielectric matrix)
  average eigenvalue GAMMA=   1.6283
  2.4991  2.4991  1.0001  1.0001  1.1431

 Free energy of the ion-electron system (eV)
  ---------------------------------------------------
  alpha Z        PSCENC =        72.55963857
  Ewald energy   TEWEN  =     -2180.68470621
  -Hartree energ DENC   =      -614.27808057
  -exchange      EXHF   =         0.00000000
  -V(xc)+E(xc)   XCENC  =        56.19637485
  PAW double counting   =      6517.52874700    -6385.08979490
  entropy T*S    EENTRO =         0.00218315
  eigenvalues    EBANDS =        27.37561696
  atomic energy  EATOM  =      2411.37598431
  Solvation  Ediel_sol  =         0.00000000
  ---------------------------------------------------
  free energy    TOTEN  =       -95.01403683 eV

  energy without entropy =      -95.01621998  energy(sigma->0) =      -95.01458262


--------------------------------------------------------------------------------------------------------




--------------------------------------- Iteration      1(  11)  ---------------------------------------


    POTLOK:  cpu time    0.0189: real time    0.0208
    SETDIJ:  cpu time    0.0023: real time    0.0023
    EDDIAG:  cpu time    0.3757: real time    0.3756
  RMM-DIIS:  cpu time    1.5754: real time    1.5752
    ORTHCH:  cpu time    0.0355: real time    0.0355
       DOS:  cpu time    0.0030: real time    0.0030
    CHARGE:  cpu time    0.1520: real time    0.1520
    MIXING:  cpu time    0.0007: real time    0.0007
    --------------------------------------------
      LOOP:  cpu time    2.1635: real time    2.1652

 eigenvalue-minimisations  :  5786
 total energy-change (2. order) :-0.5998643E-03  (-0.5304960E-03)
 number of electron      61.9999998 magnetization 
 augmentation part       -0.4358464 magnetization 

 Broyden mixing:
  rms(total) = 0.91481E-02    rms(broyden)= 0.91407E-02
  rms(prec ) = 0.13687E-01
  weight for this iteration     100.00

 eigenvalues of (default mixing * dielectric matrix)
  average eigenvalue GAMMA=   1.6916
  2.7227  2.4587  2.0489  0.9840  0.9840  0.9515

 Free energy of the ion-electron system (eV)
  ---------------------------------------------------
  alpha Z        PSCENC =        72.55963857
  Ewald energy   TEWEN  =     -2180.68470621
  -Hartree energ DENC   =      -614.08094312
  -exchange      EXHF   =         0.00000000
  -V(xc)+E(xc)   XCENC  =        56.18487991
  PAW double counting   =      6506.86811802    -6374.42917087
  entropy T*S    EENTRO =         0.00217613
  eigenvalues    EBANDS =        27.18938656
  atomic energy  EATOM  =      2411.37598431
  Solvation  Ediel_sol  =         0.00000000
  ---------------------------------------------------
  free energy    TOTEN  =       -95.01463669 eV

  energy without entropy =      -95.01681282  energy(sigma->0) =      -95.01518073


--------------------------------------------------------------------------------------------------------




--------------------------------------- Iteration      1(  12)  ---------------------------------------


    POTLOK:  cpu time    0.0190: real time    0.0209
    SETDIJ:  cpu time    0.0023: real time    0.0023
    EDDIAG:  cpu time    0.3747: real time    0.3747
  RMM-DIIS:  cpu time    1.3811: real time    1.3822
    ORTHCH:  cpu time    0.0359: real time    0.0359
       DOS:  cpu time    0.0030: real time    0.0030
    --------------------------------------------
      LOOP:  cpu time    1.8159: real time    1.8191

 eigenvalue-minimisations  :  4992
 total energy-change (2. order) : 0.1705729E-04  (-0.6220233E-04)
 number of electron      61.9999998 magnetization 
 augmentation part       -0.4358464 magnetization 

 Free energy of the ion-electron system (eV)
  ---------------------------------------------------
  alpha Z        PSCENC =        72.55963857
  Ewald energy   TEWEN  =     -2180.68470621
  -Hartree energ DENC   =      -614.45494558
  -exchange      EXHF   =         0.00000000
  -V(xc)+E(xc)   XCENC  =        56.20589343
  PAW double counting   =      6493.24936383    -6360.80948818
  entropy T*S    EENTRO =         0.00220521
  eigenvalues    EBANDS =        27.54143498
  atomic energy  EATOM  =      2411.37598431
  Solvation  Ediel_sol  =         0.00000000
  ---------------------------------------------------
  free energy    TOTEN  =       -95.01461964 eV

  energy without entropy =      -95.01682485  energy(sigma->0) =      -95.01517094


--------------------------------------------------------------------------------------------------------




 average (electrostatic) potential at core
  the test charge radii are     0.7089  0.9892
  (the norm of the test charge is              1.0000)
       1 -61.2987       2 -61.2987       3 -61.2987       4 -61.2987       5 -61.2987
       6 -61.2987       7 -82.5315       8 -82.5315       9 -82.1585      10 -82.1585
      11 -82.1585      12 -82.1585      13 -82.1585      14 -82.1585
 
 
 
 E-fermi :   8.8665     XC(G=0): -10.6700     alpha+bet :-14.5236


 k-point     1 :       0.0000    0.0000    0.0000
  band No.  band energies     occupation 
      1     -10.4336      2.00000
      2      -9.4288      2.00000
      3      -9.4288      2.00000
      4      -8.8423      2.00000
      5      -8.8423      2.00000
      6      -8.6740      2.00000
      7      -2.6006      2.00000
      8      -2.6006      2.00000
      9      -2.2913      2.00000
     10      -1.7382      2.00000
     11      -0.7307      2.00000
     12       0.2673      2.00000
     13       0.2673      2.00000
     14       2.0552      2.00000
     15       2.0552      2.00000
     16       2.6235      2.00000
     17       3.1222      2.00000
     18       3.1222      2.00000
     19       3.3777      2.00000
     20       3.7213      2.00000
     21       4.2284      2.00000
     22       4.2284      2.00000
     23       4.6881      2.00000
     24       4.6881      2.00000
     25       4.8729      2.00000
     26       5.9603      2.00000
     27       6.0075      2.00000
     28       6.0075      2.00000
     29       7.8107      2.00000
     30       8.0769      2.00000
     31       8.0769      2.00000
     32      11.3723      0.00000
     33      11.3724      0.00000
     34      11.5150      0.00000
     35      12.0417      0.00000
     36      12.0420      0.00000
     37      13.0553      0.00000
     38      13.0591      0.00000
     39      13.3512      0.00000
     40      13.5806      0.00000

 k-point     2 :       0.1667    0.0000    0.0000
  band No.  band energies     occupation 
      1     -10.3867      2.00000
      2      -9.5243      2.00000
      3      -9.4670      2.00000
      4      -8.9829      2.00000
      5      -8.7840      2.00000
      6      -8.4753      2.00000
      7      -2.8881      2.00000
      8      -2.5690      2.00000
      9      -2.2248      2.00000
     10      -1.4329      2.00000
     11      -0.8425      2.00000
     12       0.0662      2.00000
     13       0.3888      2.00000
     14       1.9511      2.00000
     15       2.0907      2.00000
     16       2.7467      2.00000
     17       2.8793      2.00000
     18       3.2825      2.00000
     19       3.6568      2.00000
     20       3.7483      2.00000
     21       4.1895      2.00000
     22       4.2173      2.00000
     23       4.6478      2.00000
     24       4.7055      2.00000
     25       4.9268      2.00000
     26       5.7245      2.00000
     27       5.7736      2.00000
     28       6.1031      2.00000
     29       7.7399      2.00000
     30       8.3068      2.00000
     31       8.3633      2.00000
     32      11.0653      0.00000
     33      11.3607      0.00000
     34      11.3953      0.00000
     35      11.9424      0.00000
     36      12.0571      0.00000
     37      12.8035      0.00000
     38      13.0068      0.00000
     39      13.1697      0.00000
     40      13.4895      0.00000

 k-point     3 :       0.3333    0.0000    0.0000
  band No.  band energies     occupation 
      1     -10.2501      2.00000
      2      -9.7642      2.00000
      3      -9.5292      2.00000
      4      -9.0637      2.00000
      5      -8.6805      2.00000
      6      -8.2731      2.00000
      7      -3.2408      2.00000
      8      -2.4974      2.00000
      9      -2.0442      2.00000
     10      -1.2719      2.00000
     11      -0.9020      2.00000
     12      -0.2847      2.00000
     13       0.7827      2.00000
     14       1.7768      2.00000
     15       1.9865      2.00000
     16       2.5207      2.00000
     17       3.0955      2.00000
     18       3.5313      2.00000
     19       3.8256      2.00000
     20       4.0595      2.00000
     21       4.0859      2.00000
     22       4.1955      2.00000
     23       4.6029      2.00000
     24       4.7367      2.00000
     25       4.9958      2.00000
     26       5.1930      2.00000
     27       5.4214      2.00000
     28       6.4683      2.00000
     29       7.5135      2.00000
     30       8.6829      1.99286
     31       8.9289      0.00681
     32      10.3405      0.00000
     33      11.0482      0.00000
     34      11.3294      0.00000
     35      11.9192      0.00000
     36      12.1134      0.00000
     37      12.5976      0.00000
     38      12.9485      0.00000
     39      13.2179      0.00000
     40      13.3946      0.00000

 k-point     4 :       0.5000    0.0000    0.0000
  band No.  band energies     occupation 
      1     -10.0677      2.00000
      2      -9.9955      2.00000
      3      -9.5556      2.00000
      4      -9.0819      2.00000
      5      -8.6326      2.00000
      6      -8.1974      2.00000
      7      -3.3759      2.00000
      8      -2.4561      2.00000
      9      -1.8875      2.00000
     10      -1.4392      2.00000
     11      -0.8040      2.00000
     12      -0.4459      2.00000
     13       1.2348      2.00000
     14       1.6376      2.00000
     15       1.7129      2.00000
     16       2.3785      2.00000
     17       3.3306      2.00000
     18       3.6273      2.00000
     19       3.9148      2.00000
     20       3.9823      2.00000
     21       4.1847      2.00000
     22       4.2766      2.00000
     23       4.5875      2.00000
     24       4.7512      2.00000
     25       4.8597      2.00000
     26       5.0227      2.00000
     27       5.2996      2.00000
     28       6.7830      2.00000
     29       7.2728      2.00000
     30       8.8258      1.76013
     31       9.5341      0.00000
     32       9.6573      0.00000
     33      10.8702      0.00000
     34      11.2716      0.00000
     35      11.9845      0.00000
     36      12.2151      0.00000
     37      12.4550      0.00000
     38      12.9394      0.00000
     39      13.0810      0.00000
     40      13.2592      0.00000

 k-point     5 :       0.1667    0.1667    0.0000
  band No.  band energies     occupation 
      1     -10.2948      2.00000
      2      -9.6300      2.00000
      3      -9.6009      2.00000
      4      -9.0036      2.00000
      5      -8.7356      2.00000
      6      -8.3108      2.00000
      7      -3.1801      2.00000
      8      -2.4739      2.00000
      9      -2.0981      2.00000
     10      -1.2923      2.00000
     11      -0.9884      2.00000
     12      -0.0443      2.00000
     13       0.5684      2.00000
     14       1.7424      2.00000
     15       2.2082      2.00000
     16       2.5694      2.00000
     17       2.9005      2.00000
     18       3.5231      2.00000
     19       3.8006      2.00000
     20       3.9542      2.00000
     21       4.1346      2.00000
     22       4.1793      2.00000
     23       4.6239      2.00000
     24       4.7192      2.00000
     25       4.9827      2.00000
     26       5.3671      2.00000
     27       5.4785      2.00000
     28       6.3542      2.00000
     29       7.5972      2.00000
     30       8.6213      1.99522
     31       8.7361      2.05572
     32      10.6777      0.00000
     33      10.7922      0.00000
     34      11.6536      0.00000
     35      11.7724      0.00000
     36      12.1341      0.00000
     37      12.6940      0.00000
     38      12.8874      0.00000
     39      13.2417      0.00000
     40      13.3541      0.00000

 k-point     6 :       0.3333    0.1667    0.0000
  band No.  band energies     occupation 
      1     -10.1205      2.00000
      2      -9.8708      2.00000
      3      -9.6771      2.00000
      4      -8.9767      2.00000
      5      -8.6976      2.00000
      6      -8.1880      2.00000
      7      -3.4042      2.00000
      8      -2.3188      2.00000
      9      -1.8876      2.00000
     10      -1.4792      2.00000
     11      -1.1999      2.00000
     12       0.0769      2.00000
     13       0.9299      2.00000
     14       1.4933      2.00000
     15       2.0355      2.00000
     16       2.4651      2.00000
     17       3.0304      2.00000
     18       3.6935      2.00000
     19       3.8938      2.00000
     20       4.0365      2.00000
     21       4.1402      2.00000
     22       4.2769      2.00000
     23       4.6214      2.00000
     24       4.7281      2.00000
     25       5.0257      2.00000
     26       5.0564      2.00000
     27       5.2026      2.00000
     28       6.7405      2.00000
     29       7.3305      2.00000
     30       8.9447     -0.07676
     31       9.1916      0.00017
     32       9.9614      0.00000
     33      10.4698      0.00000
     34      11.5341      0.00000
     35      11.9774      0.00000
     36      12.2798      0.00000
     37      12.5746      0.00000
     38      12.7497      0.00000
     39      13.0309      0.00000
     40      13.3290      0.00000

 k-point     7 :       0.5000    0.1667    0.0000
  band No.  band energies     occupation 
      1     -10.1205      2.00000
      2      -9.8708      2.00000
      3      -9.6770      2.00000
      4      -8.9767      2.00000
      5      -8.6976      2.00000
      6      -8.1881      2.00000
      7      -3.4042      2.00000
      8      -2.3163      2.00000
      9      -1.8987      2.00000
     10      -1.4570      2.00000
     11      -1.2137      2.00000
     12       0.0727      2.00000
     13       0.9467      2.00000
     14       1.4645      2.00000
     15       2.1161      2.00000
     16       2.3644      2.00000
     17       3.0659      2.00000
     18       3.7167      2.00000
     19       3.8940      2.00000
     20       4.0363      2.00000
     21       4.1404      2.00000
     22       4.2654      2.00000
     23       4.6214      2.00000
     24       4.7277      2.00000
     25       4.9740      2.00000
     26       5.0259      2.00000
     27       5.2757      2.00000
     28       6.7455      2.00000
     29       7.3263      2.00000
     30       8.8965      0.40784
     31       9.2694      0.00000
     32       9.8870      0.00000
     33      10.5347      0.00000
     34      11.5035      0.00000
     35      11.9678      0.00000
     36      12.2942      0.00000
     37      12.5139      0.00000
     38      12.8775      0.00000
     39      13.0262      0.00000
     40      13.3333      0.00000

 k-point     8 :       0.3333    0.3333    0.0000
  band No.  band energies     occupation 
      1      -9.9330      2.00000
      2      -9.9330      2.00000
      3      -9.8746      2.00000
      4      -8.8145      2.00000
      5      -8.8145      2.00000
      6      -8.1461      2.00000
      7      -3.4884      2.00000
      8      -1.9294      2.00000
      9      -1.9294      2.00000
     10      -1.5866      2.00000
     11      -1.5866      2.00000
     12       0.7164      2.00000
     13       0.7164      2.00000
     14       1.2243      2.00000
     15       2.0478      2.00000
     16       2.7207      2.00000
     17       2.7207      2.00000
     18       3.7580      2.00000
     19       3.9523      2.00000
     20       4.0487      2.00000
     21       4.0487      2.00000
     22       4.4104      2.00000
     23       4.6801      2.00000
     24       4.6801      2.00000
     25       5.0404      2.00000
     26       5.0631      2.00000
     27       5.0631      2.00000
     28       7.0660      2.00000
     29       7.0660      2.00000
     30       9.1832      0.00027
     31       9.4652      0.00000
     32       9.4652      0.00000
     33      10.2537      0.00000
     34      11.4000      0.00000
     35      12.3612      0.00000
     36      12.3643      0.00000
     37      12.6327      0.00000
     38      12.7066      0.00000
     39      12.7124      0.00000
     40      13.2564      0.00000

 k-point     9 :       0.0000    0.0000    0.0625
  band No.  band energies     occupation 
      1     -10.3862      2.00000
      2      -9.3878      2.00000
      3      -9.3878      2.00000
      4      -8.8049      2.00000
      5      -8.8049      2.00000
      6      -8.6413      2.00000
      7      -2.5609      2.00000
      8      -2.5609      2.00000
      9      -2.2353      2.00000
     10      -1.6876      2.00000
     11      -0.7041      2.00000
     12       0.2939      2.00000
     13       0.2940      2.00000
     14       2.0990      2.00000
     15       2.0990      2.00000
     16       2.6332      2.00000
     17       3.1235      2.00000
     18       3.1235      2.00000
     19       3.3543      2.00000
     20       3.4626      2.00000
     21       3.9876      2.00000
     22       3.9876      2.00000
     23       4.4352      2.00000
     24       4.4352      2.00000
     25       4.5821      2.00000
     26       6.0222      2.00000
     27       6.0222      2.00000
     28       6.1242      2.00000
     29       7.7703      2.00000
     30       8.2054      2.00000
     31       8.2054      2.00000
     32      11.2293      0.00000
     33      11.2295      0.00000
     34      11.4329      0.00000
     35      12.1738      0.00000
     36      12.1754      0.00000
     37      12.9298      0.00000
     38      12.9369      0.00000
     39      13.1479      0.00000
     40      13.1961      0.00000

 k-point    10 :       0.1667    0.0000    0.0625
  band No.  band energies     occupation 
      1     -10.3395      2.00000
      2      -9.4824      2.00000
      3      -9.4255      2.00000
      4      -8.9456      2.00000
      5      -8.7475      2.00000
      6      -8.4435      2.00000
      7      -2.8423      2.00000
      8      -2.5284      2.00000
      9      -2.1694      2.00000
     10      -1.3875      2.00000
     11      -0.8126      2.00000
     12       0.0942      2.00000
     13       0.4131      2.00000
     14       1.9953      2.00000
     15       2.1217      2.00000
     16       2.7504      2.00000
     17       2.8715      2.00000
     18       3.2767      2.00000
     19       3.5015      2.00000
     20       3.6296      2.00000
     21       3.9540      2.00000
     22       3.9809      2.00000
     23       4.3778      2.00000
     24       4.4633      2.00000
     25       4.6746      2.00000
     26       5.7564      2.00000
     27       5.8051      2.00000
     28       6.2451      2.00000
     29       7.7084      2.00000
     30       8.4082      2.00000
     31       8.4586      2.00000
     32      11.0370      0.00000
     33      11.2770      0.00000
     34      11.3502      0.00000
     35      11.9406      0.00000
     36      12.1092      0.00000
     37      12.6373      0.00000
     38      12.8619      0.00000
     39      13.0091      0.00000
     40      13.1365      0.00000

 k-point    11 :       0.3333    0.0000    0.0625
  band No.  band energies     occupation 
      1     -10.2037      2.00000
      2      -9.7206      2.00000
      3      -9.4870      2.00000
      4      -9.0261      2.00000
[...]
     39      11.7656      0.00000
     40      11.7656      0.00000

 k-point    66 :       0.1667    0.0000    0.5000
  band No.  band energies     occupation 
      1      -8.2355      2.00000
      2      -8.2355      2.00000
      3      -7.9855      2.00000
      4      -7.9855      2.00000
      5      -7.9743      2.00000
      6      -7.9743      2.00000
      7      -1.8621      2.00000
      8      -1.8621      2.00000
      9      -1.7169      2.00000
     10      -1.7169      2.00000
     11      -1.1670      2.00000
     12      -1.1670      2.00000
     13       0.7420      2.00000
     14       0.7420      2.00000
     15       1.0833      2.00000
     16       1.0833      2.00000
     17       1.6592      2.00000
     18       1.6592      2.00000
     19       1.8123      2.00000
     20       1.8123      2.00000
     21       3.8153      2.00000
     22       3.8153      2.00000
     23       3.9247      2.00000
     24       3.9247      2.00000
     25       4.7598      2.00000
     26       4.7598      2.00000
     27       6.0562      2.00000
     28       6.0562      2.00000
     29       6.1265      2.00000
     30       6.1265      2.00000
     31       8.0705      2.00000
     32       8.0705      2.00000
     33       8.1966      2.00000
     34       8.1966      2.00000
     35      10.9053      0.00000
     36      10.9053      0.00000
     37      11.1357      0.00000
     38      11.1357      0.00000
     39      11.6980      0.00000
     40      11.6980      0.00000

 k-point    67 :       0.3333    0.0000    0.5000
  band No.  band energies     occupation 
      1      -8.2095      2.00000
      2      -8.2095      2.00000
      3      -8.0134      2.00000
      4      -8.0134      2.00000
      5      -7.9757      2.00000
      6      -7.9757      2.00000
      7      -1.9920      2.00000
      8      -1.9920      2.00000
      9      -1.6085      2.00000
     10      -1.6085      2.00000
     11      -1.0224      2.00000
     12      -1.0224      2.00000
     13       0.5738      2.00000
     14       0.5738      2.00000
     15       1.1206      2.00000
     16       1.1206      2.00000
     17       1.5390      2.00000
     18       1.5390      2.00000
     19       1.9470      2.00000
     20       1.9470      2.00000
     21       3.6211      2.00000
     22       3.6211      2.00000
     23       3.9160      2.00000
     24       3.9160      2.00000
     25       4.8258      2.00000
     26       4.8258      2.00000
     27       6.0902      2.00000
     28       6.0902      2.00000
     29       6.3482      2.00000
     30       6.3482      2.00000
     31       8.0476      2.00000
     32       8.0476      2.00000
     33       8.1878      2.00000
     34       8.1878      2.00000
     35      10.6513      0.00000
     36      10.6513      0.00000
     37      11.3812      0.00000
     38      11.3812      0.00000
     39      11.6520      0.00000
     40      11.6520      0.00000

 k-point    68 :       0.5000    0.0000    0.5000
  band No.  band energies     occupation 
      1      -8.1934      2.00000
      2      -8.1934      2.00000
      3      -8.0307      2.00000
      4      -8.0307      2.00000
      5      -7.9766      2.00000
      6      -7.9766      2.00000
      7      -2.0421      2.00000
      8      -2.0421      2.00000
      9      -1.5425      2.00000
     10      -1.5425      2.00000
     11      -0.9852      2.00000
     12      -0.9852      2.00000
     13       0.5230      2.00000
     14       0.5230      2.00000
     15       1.1348      2.00000
     16       1.1348      2.00000
     17       1.4741      2.00000
     18       1.4741      2.00000
     19       1.9967      2.00000
     20       1.9967      2.00000
     21       3.5310      2.00000
     22       3.5310      2.00000
     23       3.9087      2.00000
     24       3.9087      2.00000
     25       4.8595      2.00000
     26       4.8595      2.00000
     27       6.0922      2.00000
     28       6.0922      2.00000
     29       6.4680      2.00000
     30       6.4680      2.00000
     31       8.0697      2.00000
     32       8.0697      2.00000
     33       8.1740      2.00000
     34       8.1740      2.00000
     35      10.4636      0.00000
     36      10.4636      0.00000
     37      11.4309      0.00000
     38      11.4309      0.00000
     39      11.6755      0.00000
     40      11.6755      0.00000

 k-point    69 :       0.1667    0.1667    0.5000
  band No.  band energies     occupation 
      1      -8.2167      2.00000
      2      -8.2167      2.00000
      3      -8.0055      2.00000
      4      -8.0055      2.00000
      5      -7.9757      2.00000
      6      -7.9757      2.00000
      7      -1.9657      2.00000
      8      -1.9657      2.00000
      9      -1.6340      2.00000
     10      -1.6340      2.00000
     11      -1.0538      2.00000
     12      -1.0538      2.00000
     13       0.6075      2.00000
     14       0.6075      2.00000
     15       1.1114      2.00000
     16       1.1114      2.00000
     17       1.5845      2.00000
     18       1.5845      2.00000
     19       1.9040      2.00000
     20       1.9040      2.00000
     21       3.6811      2.00000
     22       3.6811      2.00000
     23       3.9028      2.00000
     24       3.9028      2.00000
     25       4.8113      2.00000
     26       4.8113      2.00000
     27       6.0448      2.00000
     28       6.0448      2.00000
     29       6.3454      2.00000
     30       6.3454      2.00000
     31       8.0376      2.00000
     32       8.0376      2.00000
     33       8.1813      2.00000
     34       8.1813      2.00000
     35      10.7349      0.00000
     36      10.7349      0.00000
     37      11.3460      0.00000
     38      11.3460      0.00000
     39      11.6636      0.00000
     40      11.6636      0.00000

 k-point    70 :       0.3333    0.1667    0.5000
  band No.  band energies     occupation 
      1      -8.1936      2.00000
      2      -8.1936      2.00000
      3      -8.0297      2.00000
      4      -8.0297      2.00000
      5      -7.9774      2.00000
      6      -7.9774      2.00000
      7      -2.0454      2.00000
      8      -2.0454      2.00000
      9      -1.5283      2.00000
     10      -1.5283      2.00000
     11      -1.0013      2.00000
     12      -1.0013      2.00000
     13       0.5247      2.00000
     14       0.5247      2.00000
     15       1.1362      2.00000
     16       1.1362      2.00000
     17       1.5065      2.00000
     18       1.5065      2.00000
     19       1.9624      2.00000
     20       1.9624      2.00000
     21       3.5668      2.00000
     22       3.5668      2.00000
     23       3.8661      2.00000
     24       3.8661      2.00000
     25       4.8675      2.00000
     26       4.8675      2.00000
     27       6.0102      2.00000
     28       6.0102      2.00000
     29       6.6162      2.00000
     30       6.6162      2.00000
     31       8.0080      2.00000
     32       8.0080      2.00000
     33       8.1544      2.00000
     34       8.1544      2.00000
     35      10.4607      0.00000
     36      10.4607      0.00000
     37      11.5256      0.00000
     38      11.5256      0.00000
     39      11.6313      0.00000
     40      11.6313      0.00000

 k-point    71 :       0.5000    0.1667    0.5000
  band No.  band energies     occupation 
      1      -8.1936      2.00000
      2      -8.1936      2.00000
      3      -8.0296      2.00000
      4      -8.0296      2.00000
      5      -7.9774      2.00000
      6      -7.9774      2.00000
      7      -2.0455      2.00000
      8      -2.0455      2.00000
      9      -1.5282      2.00000
     10      -1.5282      2.00000
     11      -1.0013      2.00000
     12      -1.0013      2.00000
     13       0.5250      2.00000
     14       0.5250      2.00000
     15       1.1342      2.00000
     16       1.1342      2.00000
     17       1.5088      2.00000
     18       1.5088      2.00000
     19       1.9617      2.00000
     20       1.9617      2.00000
     21       3.5638      2.00000
     22       3.5638      2.00000
     23       3.8713      2.00000
     24       3.8713      2.00000
     25       4.8626      2.00000
     26       4.8626      2.00000
     27       6.0193      2.00000
     28       6.0193      2.00000
     29       6.6088      2.00000
     30       6.6088      2.00000
     31       8.0136      2.00000
     32       8.0136      2.00000
     33       8.1484      2.00000
     34       8.1484      2.00000
     35      10.4824      0.00000
     36      10.4824      0.00000
     37      11.4211      0.00000
     38      11.4211      0.00000
     39      11.6992      0.00000
     40      11.6992      0.00000

 k-point    72 :       0.3333    0.3333    0.5000
  band No.  band energies     occupation 
      1      -8.1843      2.00000
      2      -8.1843      2.00000
      3      -8.0384      2.00000
      4      -8.0384      2.00000
      5      -7.9786      2.00000
      6      -7.9786      2.00000
      7      -2.0710      2.00000
      8      -2.0710      2.00000
      9      -1.4706      2.00000
     10      -1.4706      2.00000
     11      -1.0163      2.00000
     12      -1.0163      2.00000
     13       0.5130      2.00000
     14       0.5130      2.00000
     15       1.1394      2.00000
     16       1.1394      2.00000
     17       1.5125      2.00000
     18       1.5125      2.00000
     19       1.9454      2.00000
     20       1.9454      2.00000
     21       3.5629      2.00000
     22       3.5629      2.00000
     23       3.8166      2.00000
     24       3.8166      2.00000
     25       4.8892      2.00000
     26       4.8892      2.00000
     27       5.9640      2.00000
     28       5.9640      2.00000
     29       6.8285      2.00000
     30       6.8285      2.00000
     31       7.9161      2.00000
     32       7.9161      2.00000
     33       8.1338      2.00000
     34       8.1338      2.00000
     35      10.3765      0.00000
     36      10.3765      0.00000
     37      11.5953      0.00000
     38      11.5953      0.00000
     39      11.6006      0.00000
     40      11.6006      0.00000


--------------------------------------------------------------------------------------------------------


 soft charge-density along one line, spin component           1
         0         1         2         3         4         5         6         7         8         9
 total charge-density along one line
 
 pseudopotential strength for first ion, spin component:           1
 12.412  14.876   0.001   0.000  -0.000   0.004   0.000  -0.001
 14.876  17.830   0.001   0.000  -0.001   0.004   0.000  -0.002
  0.001   0.001  -5.801   0.000   0.001  -7.718   0.000   0.002
  0.000   0.000   0.000  -5.827  -0.000   0.000  -7.759  -0.000
 -0.000  -0.001   0.001  -0.000  -5.838   0.002  -0.000  -7.776
  0.004   0.004  -7.718   0.000   0.002  -9.549   0.000   0.003
  0.000   0.000   0.000  -7.759  -0.000   0.000  -9.612  -0.000
 -0.001  -0.002   0.002  -0.000  -7.776   0.003  -0.000  -9.639
 total augmentation occupancy for first ion, spin component:           1
  7.121  -3.252  -0.184   0.000   0.084   0.085   0.000  -0.029
 -3.252   1.654   0.184  -0.000  -0.072  -0.073   0.000   0.021
 -0.184   0.184   1.944   0.000  -0.040  -0.240   0.000   0.013
 -0.000  -0.000   0.000   2.236   0.000   0.000  -0.383   0.000
  0.084  -0.072  -0.040   0.000   2.299   0.013   0.000  -0.424
  0.085  -0.073  -0.240   0.000   0.013   0.043  -0.000  -0.004
  0.000   0.000  -0.000  -0.383   0.000   0.000   0.074   0.000
 -0.029   0.021   0.013   0.000  -0.424  -0.004   0.000   0.090


------------------------ aborting loop because EDIFF is reached ----------------------------------------


    CHARGE:  cpu time    1.0389: real time    1.0389
    FORLOC:  cpu time    0.0159: real time    0.0159
    FORNL :  cpu time    1.7940: real time    1.7938
    STRESS:  cpu time    5.3275: real time    5.6347
    FORCOR:  cpu time    0.6173: real time    0.6174
    FORHAR:  cpu time    0.1930: real time    0.1930
    MIXING:  cpu time    0.2108: real time    0.2109
    OFIELD:  cpu time    0.0000: real time    0.0000

  FORCE on cell =-STRESS in cart. coord.  units (eV):
  Direction    XX          YY          ZZ          XY          YZ          ZX
  --------------------------------------------------------------------------------------
  Alpha Z    72.55964    72.55964    72.55964
  Ewald    -864.98432  -864.98432  -473.11403    -0.00000     0.00000    -0.00000
  Hartree   133.34221   133.34221   326.02024     0.00000     0.00000    -0.00000
  E(xc)    -234.56083  -234.56083  -234.66626     0.00000    -0.00000    -0.00000
  Local    -124.98548  -124.98518  -693.55006    -0.00000     0.00000    -0.00000
  n-local   209.12215   208.75489   221.97100    -0.33427     0.36231     0.01033
  augment   -39.17130   -39.17156   -39.83765     0.00216    -0.00000     0.00000
  Kinetic   843.38942   845.43980   811.96901     0.29759    -0.34017    -0.71222
  Fock        0.00000     0.00000     0.00000     0.00000     0.00000     0.00000
  -------------------------------------------------------------------------------------
  Total      -4.44693    -4.44693    -8.64812     0.00000     0.00000     0.00000
  in kB     -42.40757   -42.40757   -82.47170     0.00000     0.00000     0.00000
  external pressure =      -55.76 kB  Pullay stress =        0.00 kB


 VOLUME and BASIS-vectors are now :
 -----------------------------------------------------------------------------
  energy-cutoff  :      400.00
  volume of cell :      168.01
      direct lattice vectors                 reciprocal lattice vectors
     4.100458669 -7.102202737  0.000000000     0.121937579 -0.070400694  0.000000000
     4.100458658  7.102202743  0.000000000     0.121937578  0.070400694  0.000000000
     0.000000000  0.000000000  2.884509320     0.000000000  0.000000000  0.346679414

  length of vectors
     8.200917327  8.200917327  2.884509320     0.140801387  0.140801387  0.346679414


 FORCES acting on ions
    electron-ion (+dipol)            ewald-force                    non-local-force                 convergence-correction
 -----------------------------------------------------------------------------------------------
   0.702E+01 -.265E+02 0.615E-08   -.877E+01 0.319E+02 0.496E-14   0.173E+01 -.535E+01 -.160E-17   0.210E-01 -.348E-01 -.475E-12
   0.265E+02 -.719E+01 0.364E-07   -.320E+02 0.837E+01 -.135E-14   0.550E+01 -.118E+01 0.210E-17   0.406E-01 0.771E-03 0.329E-12
   -.195E+02 -.193E+02 0.119E-06   0.233E+02 0.236E+02 -.337E-14   -.377E+01 -.417E+01 0.154E-18   -.196E-01 -.356E-01 0.147E-12
   0.195E+02 0.193E+02 -.119E-06   -.233E+02 -.236E+02 -.380E-14   0.377E+01 0.417E+01 0.420E-18   0.196E-01 0.356E-01 -.333E-13
   -.265E+02 0.719E+01 -.363E-07   0.320E+02 -.837E+01 -.118E-14   -.550E+01 0.118E+01 0.226E-17   -.406E-01 -.771E-03 -.150E-12
   -.702E+01 0.265E+02 -.615E-08   0.877E+01 -.319E+02 0.697E-15   -.173E+01 0.535E+01 0.254E-17   -.210E-01 0.348E-01 -.101E-11
   -.315E-07 -.217E-06 -.267E-07   -.782E-13 0.180E-10 -.112E-14   0.803E-17 0.930E-17 -.839E-17   0.228E-07 0.433E-07 -.232E-13
   0.315E-07 0.217E-06 0.267E-07   0.391E-13 -.180E-10 -.120E-14   0.241E-18 -.780E-17 0.843E-17   -.228E-07 -.433E-07 -.203E-13
   0.230E+02 0.459E+02 -.241E-08   -.231E+02 -.455E+02 0.270E-14   0.100E+00 -.336E+00 -.219E-17   -.720E-02 -.838E-02 -.469E-13
   -.283E+02 0.429E+02 0.757E-07   0.279E+02 -.428E+02 -.382E-14   0.342E+00 -.813E-01 -.166E-17   0.366E-02 -.104E-01 0.465E-13
   0.513E+02 0.304E+01 0.228E-07   -.510E+02 -.277E+01 0.207E-14   -.241E+00 -.255E+00 -.225E-17   -.109E-01 0.204E-02 0.463E-13
   -.513E+02 -.304E+01 -.228E-07   0.510E+02 0.277E+01 0.134E-14   0.241E+00 0.255E+00 0.119E-17   0.109E-01 -.204E-02 -.441E-13
   -.230E+02 -.459E+02 0.240E-08   0.231E+02 0.455E+02 0.510E-14   -.100E+00 0.336E+00 -.238E-17   0.720E-02 0.838E-02 -.313E-13
   0.283E+02 -.429E+02 -.757E-07   -.279E+02 0.428E+02 -.267E-14   -.342E+00 0.813E-01 0.163E-17   -.366E-02 0.104E-01 0.951E-13
 -----------------------------------------------------------------------------------------------
   -.113E-10 -.124E-10 -.233E-11   -.711E-14 0.497E-13 -.164E-14   0.167E-15 -.175E-14 0.268E-18   0.666E-12 0.398E-12 -.117E-11
 
 
 POSITION                                       TOTAL-FORCE (eV/Angst)
 -----------------------------------------------------------------------------------
      4.26245      4.66559      2.16338         0.002429      0.003601      0.000000
      2.19117     -1.07802      0.72113        -0.001904      0.003904      0.000000
      6.17174     -1.35860      0.72113         0.004333     -0.000303      0.000000
      2.02918      1.35860      2.16338        -0.004333      0.000303     -0.000000
      6.00975      1.07802      2.16338         0.001904     -0.003904      0.000000
      3.93847     -4.66559      0.72113        -0.002429     -0.003601      0.000000
      4.10046      2.36740      2.16338         0.000000      0.000000     -0.000000
      4.10046     -2.36740      0.72113         0.000000      0.000000     -0.000000
      6.56242     -2.37093      2.16338        -0.003795      0.026485     -0.000000
      5.33449      4.49776      0.72113        -0.024834      0.009955     -0.000000
      5.32838      0.23352      0.72113         0.021039      0.016529      0.000000
      2.87253     -0.23352      2.16338        -0.021039     -0.016529     -0.000000
      1.63850      2.37093      0.72113         0.003795     -0.026485     -0.000000
      2.86642     -4.49776      2.16338         0.024834     -0.009955      0.000000
 -----------------------------------------------------------------------------------
    total drift:                               -0.000000     -0.000000     -0.000000


--------------------------------------------------------------------------------------------------------



  FREE ENERGIE OF THE ION-ELECTRON SYSTEM (eV)
  ---------------------------------------------------
  free  energy   TOTEN  =       -95.22667282 eV

  energy  without entropy=      -95.22769327  energy(sigma->0) =      -95.22692793
 
 d Force = 0.2734954E-03[ 0.170E-03, 0.377E-03]  d Energy = 0.2651208E-03 0.837E-05
 d Force = 0.2924655E+00[ 0.291E+00, 0.294E+00]  d Ewald  = 0.2924654E+00 0.876E-07


--------------------------------------------------------------------------------------------------------


    POTLOK:  cpu time    0.8064: real time    0.8459


--------------------------------------------------------------------------------------------------------




--------------------------------------------------------------------------------------------------------


  
 reached required accuracy - stopping structural energy minimisation
     LOOP+:  cpu time   16.2083: real time   16.8078
    4ORBIT:  cpu time    0.0000: real time    0.0000

 total amount of memory used by VASP MPI-rank0    46503. kBytes
=======================================================================

   base      :      30000. kBytes
   nonlr-proj:       3115. kBytes
   fftplans  :       1514. kBytes
   grid      :       2370. kBytes
   one-center:         12. kBytes
   wavefun   :       9492. kBytes
 
  
  
 General timing and accounting informations for this job:
 ========================================================
  
                  Total CPU time used (sec):      555.927
                            User time (sec):      555.160
                          System time (sec):        0.767
                         Elapsed time (sec):      588.911
  
                   Maximum memory used (kb):       66596.
                   Average memory used (kb):           0.
  
                          Minor page faults:       111769
                          Major page faults:            0
                 Voluntary context switches:         9704
