<?xml version="1.0" encoding="ISO-8859-1"?>
<modeling>
 <generator>
  <i name="program" type="string">vasp </i>
  <i name="version" type="string">5.4.4.18Apr17-6-g9f103f2a35  </i>
  <i name="subversion" type="string">(build Nov 01 2019 12:17:22) complex            parallel </i>
  <i name="platform" type="string">LinuxIFC </i>
  <i name="date" type="string">2023 05 19 </i>
  <i name="time" type="string">18:18:47 </i>
 </generator>
 <incar>
  <i type="string" name="PREC">accurate</i>
  <i type="string" name="ALGO"> Fast</i>
  <i type="int" name="IBRION">     2</i>
  <i type="int" name="NSW">   100</i>
  <i type="int" name="ISIF">     2</i>
  <i type="string" name="LREAL"> Auto</i>
  <i type="int" name="ISMEAR">     2</i>
  <i name="SIGMA">      0.10000000</i>
  <i type="logical" name="LWAVE"> F  </i>
  <i type="logical" name="LCHARG"> F  </i>
  <v type="int" name="KPOINT_BSE">    -1     0     0     0</v>
 </incar>
 <structure name="primitive_cell" >
  <crystal>
   <varray name="basis" >
    <v>       4.10045867      -7.10220274       0.00000000 </v>
    <v>       4.10045866       7.10220274       0.00000000 </v>
    <v>       0.00000000       0.00000000       2.88450932 </v>
   </varray>
   <i name="volume">    168.00702664 </i>
   <varray name="rec_basis" >
    <v>       0.12193758      -0.07040069       0.00000000 </v>
    <v>       0.12193758       0.07040069       0.00000000 </v>
    <v>       0.00000000       0.00000000       0.34667941 </v>
   </varray>
  </crystal>
  <varray name="positions" >
   <v>       0.19708959      -0.16848230      -0.25000000 </v>
   <v>      -0.03641246      -0.38753655      -0.25000000 </v>
   <v>       0.35112409      -0.03641246       0.25000000 </v>
   <v>       0.33333333      -0.33333333      -0.25000000 </v>
   <v>       0.36557189       0.19708959       0.25000000 </v>
   <v>      -0.16848230      -0.36557189       0.25000000 </v>
   <v>      -0.35112409       0.03641246      -0.25000000 </v>
   <v>       0.03641246       0.38753655       0.25000000 </v>
   <v>      -0.36557189      -0.19708959      -0.25000000 </v>
   <v>       0.16848230       0.36557189      -0.25000000 </v>
   <v>       0.38753655       0.35112409      -0.25000000 </v>
   <v>      -0.33333333       0.33333333       0.25000000 </v>
   <v>      -0.38753655      -0.35112409       0.25000000 </v>
   <v>      -0.19708959       0.16848230       0.25000000 </v>
  </varray>
 </structure>
 <varray name="primitive_index" >
  <v type="int" >        1 </v>
  <v type="int" >        9 </v>
  <v type="int" >       10 </v>
  <v type="int" >        7 </v>
  <v type="int" >        2 </v>
  <v type="int" >        3 </v>
  <v type="int" >       14 </v>
  <v type="int" >       13 </v>
  <v type="int" >        5 </v>
  <v type="int" >        4 </v>
  <v type="int" >       12 </v>
  <v type="int" >        8 </v>
  <v type="int" >       11 </v>
  <v type="int" >        6 </v>
 </varray>
 <kpoints>
  <generation param="Auto">
   <i name="subdivisionlength">     45.00000000 </i>
   <v type="int" name="divisions">       6        6       16 </v>
   <v name="usershift">      0.00000000       0.00000000       0.00000000 </v>
   <v name="genvec1">      0.16666667      -0.00000000       0.00000000 </v>
   <v name="genvec2">     -0.00000000       0.16666667       0.00000000 </v>
   <v name="genvec3">      0.00000000       0.00000000       0.06250000 </v>
   <v name="shift">      0.00000000       0.00000000       0.00000000 </v>
  </generation>
  <varray name="kpointlist" >
   <v>       0.00000000       0.00000000       0.00000000 </v>
   <v>       0.16666667       0.00000000       0.00000000 </v>
   <v>       0.33333333       0.00000000       0.00000000 </v>
   <v>       0.50000000       0.00000000       0.00000000 </v>
   <v>       0.16666667       0.16666667       0.00000000 </v>
   <v>       0.33333333       0.16666667       0.00000000 </v>
   <v>       0.50000000       0.16666667       0.00000000 </v>
   <v>       0.33333333       0.33333333       0.00000000 </v>
   <v>       0.00000000       0.00000000       0.06250000 </v>
   <v>       0.16666667       0.00000000       0.06250000 </v>
   <v>       0.33333333       0.00000000       0.06250000 </v>
   <v>       0.50000000       0.00000000       0.06250000 </v>
   <v>       0.16666667       0.16666667       0.06250000 </v>
   <v>       0.33333333       0.16666667       0.06250000 </v>
   <v>       0.50000000       0.16666667       0.06250000 </v>
   <v>       0.33333333       0.33333333       0.06250000 </v>
   <v>       0.00000000       0.00000000       0.12500000 </v>
   <v>       0.16666667       0.00000000       0.12500000 </v>
   <v>       0.33333333       0.00000000       0.12500000 </v>
   <v>       0.50000000       0.00000000       0.12500000 </v>
   <v>       0.16666667       0.16666667       0.12500000 </v>
   <v>       0.33333333       0.16666667       0.12500000 </v>
   <v>       0.50000000       0.16666667       0.12500000 </v>
   <v>       0.33333333       0.33333333       0.12500000 </v>
   <v>       0.00000000       0.00000000       0.18750000 </v>
   <v>       0.16666667       0.00000000       0.18750000 </v>
   <v>       0.33333333       0.00000000       0.18750000 </v>
   <v>       0.50000000       0.00000000       0.18750000 </v>
   <v>       0.16666667       0.16666667       0.18750000 </v>
   <v>       0.33333333       0.16666667       0.18750000 </v>
   <v>       0.50000000       0.16666667       0.18750000 </v>
   <v>       0.33333333       0.33333333       0.18750000 </v>
   <v>       0.00000000       0.00000000       0.25000000 </v>
   <v>       0.16666667       0.00000000       0.25000000 </v>
   <v>       0.33333333       0.00000000       0.25000000 </v>
   <v>       0.50000000       0.00000000       0.25000000 </v>
   <v>       0.16666667       0.16666667       0.25000000 </v>
   <v>       0.33333333       0.16666667       0.25000000 </v>
   <v>       0.50000000       0.16666667       0.25000000 </v>
   <v>       0.33333333       0.33333333       0.25000000 </v>
   <v>       0.00000000       0.00000000       0.31250000 </v>
   <v>       0.16666667       0.00000000       0.31250000 </v>
   <v>       0.33333333       0.00000000       0.31250000 </v>
   <v>       0.50000000       0.00000000       0.31250000 </v>
   <v>       0.16666667       0.16666667       0.31250000 </v>
   <v>       0.33333333       0.16666667       0.31250000 </v>
   <v>       0.50000000       0.16666667       0.31250000 </v>
   <v>       0.33333333       0.33333333       0.31250000 </v>
   <v>       0.00000000       0.00000000       0.37500000 </v>
   <v>       0.16666667       0.00000000       0.37500000 </v>
   <v>       0.33333333       0.00000000       0.37500000 </v>
   <v>       0.50000000       0.00000000       0.37500000 </v>
   <v>       0.16666667       0.16666667       0.37500000 </v>
   <v>       0.33333333       0.16666667       0.37500000 </v>
   <v>       0.50000000       0.16666667       0.37500000 </v>
   <v>       0.33333333       0.33333333       0.37500000 </v>
   <v>       0.00000000       0.00000000       0.43750000 </v>
   <v>       0.16666667       0.00000000       0.43750000 </v>
   <v>       0.33333333       0.00000000       0.43750000 </v>
   <v>       0.50000000       0.00000000       0.43750000 </v>
   <v>       0.16666667       0.16666667       0.43750000 </v>
   <v>       0.33333333       0.16666667       0.43750000 </v>
   <v>       0.50000000       0.16666667       0.43750000 </v>
   <v>       0.33333333       0.33333333       0.43750000 </v>
   <v>       0.00000000       0.00000000       0.50000000 </v>
   <v>       0.16666667       0.00000000       0.50000000 </v>
   <v>       0.33333333       0.00000000       0.50000000 </v>
   <v>       0.50000000       0.00000000       0.50000000 </v>
   <v>       0.16666667       0.16666667       0.50000000 </v>
   <v>       0.33333333       0.16666667       0.50000000 </v>
   <v>       0.50000000       0.16666667       0.50000000 </v>
   <v>       0.33333333       0.33333333       0.50000000 </v>
  </varray>
  <varray name="weights" >
   <v>       0.00173611 </v>
   <v>       0.01041667 </v>
   <v>       0.01041667 </v>
   <v>       0.00520833 </v>
   <v>       0.01041667 </v>
   <v>       0.01041667 </v>
   <v>       0.01041667 </v>
   <v>       0.00347222 </v>
   <v>       0.00347222 </v>
   <v>       0.02083333 </v>
   <v>       0.02083333 </v>
   <v>       0.01041667 </v>
   <v>       0.02083333 </v>
   <v>       0.02083333 </v>
   <v>       0.02083333 </v>
   <v>       0.00694444 </v>
   <v>       0.00347222 </v>
   <v>       0.02083333 </v>
   <v>       0.02083333 </v>
   <v>       0.01041667 </v>
   <v>       0.02083333 </v>
   <v>       0.02083333 </v>
   <v>       0.02083333 </v>
   <v>       0.00694444 </v>
   <v>       0.00347222 </v>
   <v>       0.02083333 </v>
   <v>       0.02083333 </v>
   <v>       0.01041667 </v>
   <v>       0.02083333 </v>
   <v>       0.02083333 </v>
   <v>       0.02083333 </v>
   <v>       0.00694444 </v>
   <v>       0.00347222 </v>
   <v>       0.02083333 </v>
   <v>       0.02083333 </v>
   <v>       0.01041667 </v>
   <v>       0.02083333 </v>
   <v>       0.02083333 </v>
   <v>       0.02083333 </v>
   <v>       0.00694444 </v>
   <v>       0.00347222 </v>
   <v>       0.02083333 </v>
   <v>       0.02083333 </v>
   <v>       0.01041667 </v>
   <v>       0.02083333 </v>
   <v>       0.02083333 </v>
   <v>       0.02083333 </v>
   <v>       0.00694444 </v>
   <v>       0.00347222 </v>
   <v>       0.02083333 </v>
   <v>       0.02083333 </v>
   <v>       0.01041667 </v>
   <v>       0.02083333 </v>
   <v>       0.02083333 </v>
   <v>       0.02083333 </v>
   <v>       0.00694444 </v>
   <v>       0.00347222 </v>
   <v>       0.02083333 </v>
   <v>       0.02083333 </v>
   <v>       0.01041667 </v>
   <v>       0.02083333 </v>
   <v>       0.02083333 </v>
   <v>       0.02083333 </v>
   <v>       0.00694444 </v>
   <v>       0.00173611 </v>
   <v>       0.01041667 </v>
   <v>       0.01041667 </v>
   <v>       0.00520833 </v>
   <v>       0.01041667 </v>
   <v>       0.01041667 </v>
   <v>       0.01041667 </v>
   <v>       0.00347222 </v>
  </varray>
 </kpoints>
 <parameters>
  <separator name="general" >
   <i type="string" name="SYSTEM">unknown system</i>
   <i type="logical" name="LCOMPAT"> F  </i>
  </separator>
  <separator name="electronic" >
   <i type="string" name="PREC">accura</i>
   <i name="ENMAX">    400.00000000</i>
   <i name="ENAUG">    627.11200000</i>
   <i name="EDIFF">      0.00010000</i>
   <i type="int" name="IALGO">    68</i>
   <i type="int" name="IWAVPR">    11</i>
   <i type="int" name="NBANDS">    40</i>
   <i name="NELECT">     62.00000000</i>
   <i type="int" name="TURBO">     0</i>
   <i type="int" name="IRESTART">     0</i>
   <i type="int" name="NREBOOT">     0</i>
   <i type="int" name="NMIN">     0</i>
   <i name="EREF">      0.00000000</i>
   <separator name="electronic smearing" >
    <i type="int" name="ISMEAR">     2</i>
    <i name="SIGMA">      0.10000000</i>
    <i name="KSPACING">      0.50000000</i>
    <i type="logical" name="KGAMMA"> T  </i>
   </separator>
   <separator name="electronic projectors" >
    <i type="logical" name="LREAL"> T  </i>
    <v name="ROPT">     -0.00025000     -0.00025000</v>
    <i type="int" name="LMAXPAW">  -100</i>
    <i type="int" name="LMAXMIX">     2</i>
    <i type="logical" name="NLSPLINE"> F  </i>
   </separator>
   <separator name="electronic startup" >
    <i type="int" name="ISTART">     0</i>
    <i type="int" name="ICHARG">     2</i>
    <i type="int" name="INIWAV">     1</i>
   </separator>
   <separator name="electronic spin" >
    <i type="int" name="ISPIN">     1</i>
    <i type="logical" name="LNONCOLLINEAR"> F  </i>
    <v name="MAGMOM">      1.00000000      1.00000000      1.00000000      1.00000000      1.00000000      1.00000000      1.00000000      1.00000000      1.00000000      1.00000000      1.00000000      1.00000000      1.00000000      1.00000000</v>
    <i name="NUPDOWN">     -1.00000000</i>
    <i type="logical" name="LSORBIT"> F  </i>
    <v name="SAXIS">      0.00000000      0.00000000      1.00000000</v>
    <i type="logical" name="LSPIRAL"> F  </i>
    <v name="QSPIRAL">      0.00000000      0.00000000      0.00000000</v>
    <i type="logical" name="LZEROZ"> F  </i>
   </separator>
   <separator name="electronic exchange-correlation" >
    <i type="logical" name="LASPH"> F  </i>
    <i type="logical" name="LMETAGGA"> F  </i>
   </separator>
   <separator name="electronic convergence" >
    <i type="int" name="NELM">    60</i>
    <i type="int" name="NELMDL">    -5</i>
    <i type="int" name="NELMIN">     2</i>
    <i name="ENINI">    400.00000000</i>
    <separator name="electronic convergence detail" >
     <i type="logical" name="LDIAG"> T  </i>
     <i type="logical" name="LSUBROT"> F  </i>
     <i name="WEIMIN">      0.00100000</i>
     <i name="EBREAK">      0.00000063</i>
     <i name="DEPER">      0.30000000</i>
     <i type="int" name="NRMM">     4</i>
     <i name="TIME">      0.40000000</i>
    </separator>
   </separator>
   <separator name="electronic mixer" >
    <i name="AMIX">      0.40000000</i>
    <i name="BMIX">      1.00000000</i>
    <i name="AMIN">      0.10000000</i>
    <i name="AMIX_MAG">      1.60000000</i>
    <i name="BMIX_MAG">      1.00000000</i>
    <separator name="electronic mixer details" >
     <i type="int" name="IMIX">     4</i>
     <i type="logical" name="MIXFIRST"> F  </i>
     <i type="int" name="MAXMIX">   -45</i>
     <i name="WC">    100.00000000</i>
     <i type="int" name="INIMIX">     1</i>
     <i type="int" name="MIXPRE">     1</i>
     <i type="int" name="MREMOVE">     5</i>
    </separator>
   </separator>
   <separator name="electronic dipolcorrection" >
    <i type="logical" name="LDIPOL"> F  </i>
    <i type="logical" name="LMONO"> F  </i>
    <i type="int" name="IDIPOL">     0</i>
    <i name="EPSILON">      1.00000000</i>
    <v name="DIPOL">   -100.00000000   -100.00000000   -100.00000000</v>
    <i name="EFIELD">      0.00000000</i>
   </separator>
  </separator>
  <separator name="grids" >
   <i type="int" name="NGX">    54</i>
   <i type="int" name="NGY">    54</i>
   <i type="int" name="NGZ">    20</i>
   <i type="int" name="NGXF">   108</i>
   <i type="int" name="NGYF">   108</i>
   <i type="int" name="NGZF">    40</i>
   <i type="logical" name="ADDGRID"> F  </i>
  </separator>
  <separator name="ionic" >
   <i type="int" name="NSW">   100</i>
   <i type="int" name="IBRION">     2</i>
   <i type="int" name="MDALGO">     0</i>
   <i type="int" name="ISIF">     2</i>
   <i name="PSTRESS">      0.00000000</i>
   <i name="EDIFFG">      0.00100000</i>
   <i type="int" name="NFREE">     1</i>
   <i name="POTIM">      0.50000000</i>
   <i name="SMASS">     -3.00000000</i>
   <i name="SCALEE">      1.00000000</i>
  </separator>
  <separator name="ionic md" >
   <i name="TEBEG">      0.00010000</i>
   <i name="TEEND">      0.00010000</i>
   <i type="int" name="NBLOCK">     1</i>
   <i type="int" name="KBLOCK">   100</i>
   <i type="int" name="NPACO">   256</i>
   <i name="APACO">     16.00000000</i>
  </separator>
  <separator name="symmetry" >
   <i type="int" name="ISYM">     2</i>
   <i name="SYMPREC">      0.00001000</i>
  </separator>
  <separator name="dos" >
   <i type="int" name="LORBIT">     0</i>
   <v name="RWIGS">     -1.00000000     -1.00000000</v>
   <i type="int" name="NEDOS">   301</i>
   <i name="EMIN">     10.00000000</i>
   <i name="EMAX">    -10.00000000</i>
   <i name="EFERMI">      0.00000000</i>
  </separator>
  <separator name="writing" >
   <i type="int" name="NWRITE">     2</i>
   <i type="logical" name="LWAVE"> F  </i>
   <i type="logical" name="LDOWNSAMPLE"> F  </i>
   <i type="logical" name="LCHARG"> F  </i>
   <i type="logical" name="LPARD"> F  </i>
   <i type="logical" name="LVTOT"> F  </i>
   <i type="logical" name="LVHAR"> F  </i>
   <i type="logical" name="LELF"> F  </i>
   <i type="logical" name="LOPTICS"> F  </i>
   <v name="STM">      0.00000000      0.00000000      0.00000000      0.00000000      0.00000000      0.00000000      0.00000000</v>
  </separator>
  <separator name="performance" >
   <i type="int" name="NPAR">     4</i>
   <i type="int" name="NSIM">     4</i>
   <i type="int" name="NBLK">    -1</i>
   <i type="logical" name="LPLANE"> T  </i>
   <i type="logical" name="LSCALAPACK"> F  </i>
   <i type="logical" name="LSCAAWARE"> F  </i>
   <i type="logical" name="LSCALU"> F  </i>
   <i type="logical" name="LASYNC"> F  </i>
   <i type="logical" name="LORBITALREAL"> F  </i>
  </separator>
  <separator name="miscellaneous" >
   <i type="int" name="IDIOT">     3</i>
   <i type="int" name="ISPECIAL">     0</i>
   <i type="logical" name="LMUSIC"> F  </i>
   <v name="POMASS">     14.00100000     28.08500000</v>
   <v name="DARWINR">      0.00000000      0.00000000</v>
   <v name="DARWINV">      1.00000000      1.00000000</v>
   <i type="logical" name="LCORR"> T  </i>
  </separator>
  <i type="logical" name="GGA_COMPAT"> T  </i>
  <i type="logical" name="LBERRY"> F  </i>
  <i type="int" name="ICORELEVEL">     0</i>
  <i type="logical" name="LDAU"> F  </i>
  <i type="int" name="I_CONSTRAINED_M">     0</i>
  <separator name="electronic exchange-correlation" >
   <i type="string" name="GGA">--</i>
   <i type="int" name="VOSKOWN">     0</i>
   <i type="logical" name="LHFCALC"> F  </i>
   <i type="string" name="PRECFOCK"></i>
   <i type="logical" name="LSYMGRAD"> F  </i>
   <i type="logical" name="LHFONE"> F  </i>
   <i type="logical" name="LRHFCALC"> F  </i>
   <i type="logical" name="LTHOMAS"> F  </i>
   <i type="logical" name="LMODELHF"> F  </i>
   <i name="ENCUT4O">     -1.00000000</i>
   <i type="int" name="EXXOEP">     0</i>
   <i type="int" name="FOURORBIT">     0</i>
   <i name="AEXX">      0.00000000</i>
   <i name="HFALPHA">      0.00000000</i>
   <i name="MCALPHA">      0.00000000</i>
   <i name="ALDAX">      1.00000000</i>
   <i name="AGGAX">      1.00000000</i>
   <i name="ALDAC">      1.00000000</i>
   <i name="AGGAC">      1.00000000</i>
   <i type="int" name="NKREDX">     1</i>
   <i type="int" name="NKREDY">     1</i>
   <i type="int" name="NKREDZ">     1</i>
   <i type="logical" name="SHIFTRED"> F  </i>
   <i type="logical" name="ODDONLY"> F  </i>
   <i type="logical" name="EVENONLY"> F  </i>
   <i type="int" name="LMAXFOCK">     0</i>
   <i type="int" name="NMAXFOCKAE">     0</i>
   <i type="logical" name="LFOCKAEDFT"> F  </i>
   <i name="HFSCREEN">      0.00000000</i>
   <i name="HFSCREENC">      0.00000000</i>
   <i type="int" name="NBANDSGWLOW">     0</i>
  </separator>
  <separator name="vdW DFT" >
   <i type="logical" name="LUSE_VDW"> F  </i>
   <i name="Zab_VDW">     -0.84910000</i>
   <i name="PARAM1">      0.12340000</i>
   <i name="PARAM2">      1.00000000</i>
   <i name="PARAM3">      0.00000000</i>
  </separator>
  <separator name="model GW" >
   <i type="int" name="MODEL_GW">     0</i>
   <i name="MODEL_EPS0">      7.20030114</i>
   <i name="MODEL_ALPHA">      1.00000000</i>
  </separator>
  <separator name="linear response parameters" >
   <i type="logical" name="LEPSILON"> F  </i>
   <i type="logical" name="LRPA"> F  </i>
   <i type="logical" name="LNABLA"> F  </i>
   <i type="logical" name="LVEL"> F  </i>
   <i type="int" name="KINTER">     0</i>
   <i name="CSHIFT">      0.10000000</i>
   <i name="OMEGAMAX">     -1.00000000</i>
   <i name="DEG_THRESHOLD">      0.00200000</i>
   <i name="RTIME">     -0.10000000</i>
   <i name="WPLASMAI">      0.00000000</i>
   <v name="DFIELD">      0.00000000      0.00000000      0.00000000</v>
   <v name="WPLASMA">      0.00000000      0.00000000      0.00000000      0.00000000      0.00000000      0.00000000      0.00000000      0.00000000      0.00000000</v>
  </separator>
  <separator name="orbital magnetization" >
   <i type="logical" name="NUCIND"> F  </i>
   <v name="MAGPOS">      0.00000000      0.00000000      0.00000000</v>
   <i type="logical" name="LNICSALL"> T  </i>
   <i type="logical" name="ORBITALMAG"> F  </i>
   <i type="logical" name="LMAGBLOCH"> F  </i>
   <i type="logical" name="LCHIMAG"> F  </i>
   <i type="logical" name="LGAUGE"> T  </i>
   <i type="int" name="MAGATOM">     0</i>
   <v name="MAGDIPOL">      0.00000000      0.00000000      0.00000000</v>
   <v name="AVECCONST">      0.00000000      0.00000000      0.00000000</v>
  </separator>
  <separator name="response functions" >
   <i type="logical" name="LADDER"> F  </i>
   <i type="logical" name="LRPAFORCE"> F  </i>
   <i type="logical" name="LFXC"> F  </i>
   <i type="logical" name="LHARTREE"> T  </i>
   <i type="int" name="IBSE">     0</i>
   <v type="int" name="KPOINT">    -1     0     0     0</v>
   <i type="logical" name="LTCTE"> F  </i>
   <i type="logical" name="LTETE"> F  </i>
   <i type="logical" name="LTRIPLET"> F  </i>
   <i type="logical" name="LFXCEPS"> F  </i>
   <i type="logical" name="LFXHEG"> F  </i>
   <i type="int" name="NATURALO">     2</i>
   <i type="logical" name="L2ORDER"> F  </i>
   <i type="logical" name="LMP2LT"> F  </i>
   <i type="logical" name="LUSEW"> F  </i>
   <i name="ENCUTGW">     -2.00000000</i>
   <i name="ENCUTGWSOFT">     -2.00000000</i>
   <i name="ENCUTLF">     -1.00000000</i>
   <i type="int" name="LMAXMP2">    -1</i>
   <i name="SCISSOR">      0.00000000</i>
   <i type="int" name="NOMEGA">     0</i>
   <i type="int" name="NOMEGAR">     0</i>
   <i type="int" name="NBANDSGW">    -1</i>
   <i type="int" name="NBANDSO">    -1</i>
   <i type="int" name="NBANDSV">    -1</i>
   <i type="int" name="NELM">     1</i>
   <i type="int" name="NELMHF">     1</i>
   <i type="int" name="DIM">     3</i>
   <i type="int" name="ANTIRES">     0</i>
   <i name="OMEGAMAX">    -30.00000000</i>
   <i name="OMEGAMIN">    -30.00000000</i>
   <i name="OMEGATL">   -200.00000000</i>
   <i type="int" name="OMEGAGRID">   140</i>
   <i name="CSHIFT">     -0.10000000</i>
   <i type="logical" name="SELFENERGY"> F  </i>
   <i type="logical" name="LSPECTRAL"> F  </i>
   <i type="logical" name="LSPECTRALGW"> F  </i>
   <i type="logical" name="LSINGLES"> F  </i>
   <i type="logical" name="LFERMIGW"> F  </i>
   <i type="logical" name="ODDONLYGW"> F  </i>
   <i type="logical" name="EVENONLYGW"> F  </i>
   <i type="int" name="NKREDLFX">     1</i>
   <i type="int" name="NKREDLFY">     1</i>
   <i type="int" name="NKREDLFZ">     1</i>
   <i type="int" name="MAXMEM">  2800</i>
   <i type="int" name="TELESCOPE">     0</i>
   <i type="int" name="TAUPAR">     1</i>
   <i type="int" name="OMEGAPAR">    -1</i>
   <i name="LAMBDA">      1.00000000</i>
  </separator>
  <separator name="External order field" >
   <i name="OFIELD_KAPPA">      0.00000000</i>
   <v name="OFIELD_K">      0.00000000      0.00000000      0.00000000</v>
   <i name="OFIELD_Q6_NEAR">      0.00000000</i>
   <i name="OFIELD_Q6_FAR">      0.00000000</i>
   <i name="OFIELD_A">      0.00000000</i>
  </separator>
 </parameters>
 <atominfo>
  <atoms>      14 </atoms>
  <types>       2 </types>
  <array name="atoms" >
   <dimension dim="1">ion</dimension>
   <field type="string">element</field>
   <field type="int">atomtype</field>
   <set>
    <rc><c>N </c><c>   1</c></rc>
    <rc><c>N </c><c>   1</c></rc>
    <rc><c>N </c><c>   1</c></rc>
    <rc><c>N </c><c>   1</c></rc>
    <rc><c>N </c><c>   1</c></rc>
    <rc><c>N </c><c>   1</c></rc>
    <rc><c>Si</c><c>   2</c></rc>
    <rc><c>Si</c><c>   2</c></rc>
    <rc><c>Si</c><c>   2</c></rc>
    <rc><c>Si</c><c>   2</c></rc>
    <rc><c>Si</c><c>   2</c></rc>
    <rc><c>Si</c><c>   2</c></rc>
    <rc><c>Si</c><c>   2</c></rc>
    <rc><c>Si</c><c>   2</c></rc>
   </set>
  </array>
  <array name="atomtypes" >
   <dimension dim="1">type</dimension>
   <field type="int">atomspertype</field>
   <field type="string">element</field>
   <field>mass</field>
   <field>valence</field>
   <field type="string">pseudopotential</field>
   <set>
    <rc><c>   6</c><c>N </c><c>     14.00100000</c><c>      5.00000000</c><c>  PAW_PBE N 08Apr2002                   </c></rc>
    <rc><c>   8</c><c>Si</c><c>     28.08500000</c><c>      4.00000000</c><c>  PAW_PBE Si 05Jan2001                  </c></rc>
   </set>
  </array>
 </atominfo>
 <structure name="initialpos" >
  <crystal>
   <varray name="basis" >
    <v>       4.10045867      -7.10220274       0.00000000 </v>
    <v>       4.10045866       7.10220274       0.00000000 </v>
    <v>       0.00000000       0.00000000       2.88450932 </v>
   </varray>
   <i name="volume">    168.00702664 </i>
   <varray name="rec_basis" >
    <v>       0.12193758      -0.07040069       0.00000000 </v>
    <v>       0.12193758       0.07040069       0.00000000 </v>
    <v>       0.00000000       0.00000000       0.34667941 </v>
   </varray>
  </crystal>
  <varray name="positions" >
   <v>       0.19708959       0.83151770       0.75000000 </v>
   <v>       0.36557189       0.19708959       0.25000000 </v>
   <v>       0.83151770       0.63442811       0.25000000 </v>
   <v>       0.16848230       0.36557189       0.75000000 </v>
   <v>       0.63442811       0.80291041       0.75000000 </v>
   <v>       0.80291041       0.16848230       0.25000000 </v>
   <v>       0.33333333       0.66666667       0.75000000 </v>
   <v>       0.66666667       0.33333333       0.25000000 </v>
   <v>       0.96358754       0.61246345       0.75000000 </v>
   <v>       0.35112409       0.96358754       0.25000000 </v>
   <v>       0.61246345       0.64887591       0.25000000 </v>
   <v>       0.38753655       0.35112409       0.75000000 </v>
   <v>       0.03641246       0.38753655       0.25000000 </v>
   <v>       0.64887591       0.03641246       0.75000000 </v>
  </varray>
 </structure>
 <calculation>
  <scstep>
   <time name="dav">    2.26    2.26</time>
   <time name="total">    2.73    3.21</time>
   <energy>
    <i name="alphaZ">     72.55963857 </i>
    <i name="ewald">  -2180.68470621 </i>
    <i name="hartreedc">   -531.31480603 </i>
    <i name="XCdc">     49.87536917 </i>
    <i name="pawpsdc">   1934.58678659 </i>
    <i name="pawaedc">  -1800.98643654 </i>
    <i name="eentropy">     -0.00056539 </i>
    <i name="bandstr">    268.95442672 </i>
    <i name="atom">   2411.37598431 </i>
    <i name="e_fr_energy">    224.36569121 </i>
    <i name="e_wo_entrp">    224.36625659 </i>
    <i name="e_0_energy">    224.36583255 </i>
   </energy>
  </scstep>
  <scstep>
   <time name="dav">    2.69    2.70</time>
   <time name="total">    2.70    2.70</time>
   <energy>
    <i name="e_fr_energy">    -80.28451798 </i>
    <i name="e_wo_entrp">    -80.28503275 </i>
    <i name="e_0_energy">    -80.28464667 </i>
   </energy>
  </scstep>
  <scstep>
   <time name="dav">    2.65    2.66</time>
   <time name="total">    2.66    2.66</time>
   <energy>
    <i name="e_fr_energy">   -103.21469554 </i>
    <i name="e_wo_entrp">   -103.21306341 </i>
    <i name="e_0_energy">   -103.21428750 </i>
   </energy>
  </scstep>
  <scstep>
   <time name="dav">    2.71    2.71</time>
   <time name="total">    2.71    2.71</time>
   <energy>
    <i name="e_fr_energy">   -103.82819587 </i>
    <i name="e_wo_entrp">   -103.82505053 </i>
    <i name="e_0_energy">   -103.82740953 </i>
   </energy>
  </scstep>
  <scstep>
   <time name="dav">    2.67    2.67</time>
   <time name="total">    2.82    2.82</time>
   <energy>
    <i name="e_fr_energy">   -103.84237691 </i>
    <i name="e_wo_entrp">   -103.83919895 </i>
    <i name="e_0_energy">   -103.84158242 </i>
   </energy>
  </scstep>
  <scstep>
   <time name="diag">    0.38    0.38</time>
   <time name="diis">    1.58    1.58</time>
   <time name="orth">    0.04    0.04</time>
   <time name="total">    2.17    2.18</time>
   <energy>
    <i name="e_fr_energy">    -95.62156149 </i>
    <i name="e_wo_entrp">    -95.62031818 </i>
    <i name="e_0_energy">    -95.62125066 </i>
   </energy>
  </scstep>
  <scstep>
   <time name="diag">    0.37    0.38</time>
   <time name="diis">    1.57    1.57</time>
   <time name="orth">    0.04    0.04</time>
   <time name="total">    2.16    2.16</time>
   <energy>
    <i name="e_fr_energy">    -95.11803813 </i>
    <i name="e_wo_entrp">    -95.11893806 </i>
    <i name="e_0_energy">    -95.11826311 </i>
   </energy>
  </scstep>
  <scstep>
   <time name="diag">    0.38    0.38</time>
   <time name="diis">    1.55    1.55</time>
   <time name="orth">    0.04    0.04</time>
   <time name="total">    2.13    2.14</time>
   <energy>
    <i name="e_fr_energy">    -95.04143158 </i>
    <i name="e_wo_entrp">    -95.04288553 </i>
    <i name="e_0_energy">    -95.04179507 </i>
   </energy>
  </scstep>
  <scstep>
   <time name="diag">    0.38    0.38</time>
   <time name="diis">    1.57    1.57</time>
   <time name="orth">    0.04    0.04</time>
   <time name="total">    2.16    2.16</time>
   <energy>
    <i name="e_fr_energy">    -95.01550816 </i>
    <i name="e_wo_entrp">    -95.01781872 </i>
    <i name="e_0_energy">    -95.01608580 </i>
   </energy>
  </scstep>
  <scstep>
   <time name="diag">    0.38    0.38</time>
   <time name="diis">    1.59    1.59</time>
   <time name="orth">    0.04    0.04</time>
   <time name="total">    2.18    2.19</time>
   <energy>
    <i name="e_fr_energy">    -95.01403683 </i>
    <i name="e_wo_entrp">    -95.01621998 </i>
    <i name="e_0_energy">    -95.01458262 </i>
   </energy>
  </scstep>
  <scstep>
   <time name="diag">    0.38    0.38</time>
   <time name="diis">    1.58    1.58</time>
   <time name="orth">    0.04    0.04</time>
   <time name="total">    2.16    2.17</time>
   <energy>
    <i name="e_fr_energy">    -95.01463669 </i>
    <i name="e_wo_entrp">    -95.01681282 </i>
    <i name="e_0_energy">    -95.01518073 </i>
   </energy>
  </scstep>
  <scstep>
   <time name="diag">    0.37    0.37</time>
   <time name="diis">    1.38    1.38</time>
   <time name="orth">    0.04    0.04</time>
   <time name="total">    1.82    1.82</time>
   <energy>
    <i name="alphaZ">     72.55963857 </i>
    <i name="ewald">  -2180.68470621 </i>
    <i name="hartreedc">   -614.45494558 </i>
    <i name="XCdc">     56.20589343 </i>
    <i name="pawpsdc">   6493.24936383 </i>
    <i name="pawaedc">  -6360.80948818 </i>
    <i name="eentropy">      0.00220521 </i>
    <i name="bandstr">     27.54143498 </i>
    <i name="atom">   2411.37598431 </i>
    <i name="e_fr_energy">    -95.01461964 </i>
    <i name="e_wo_entrp">    -95.01682485 </i>
    <i name="e_0_energy">    -95.01517094 </i>
   </energy>
  </scstep>
  <structure>
   <crystal>
    <varray name="basis" >
     <v>       4.10045867      -7.10220274       0.00000000 </v>
     <v>       4.10045866       7.10220274       0.00000000 </v>
     <v>       0.00000000       0.00000000       2.88450932 </v>
    </varray>
    <i name="volume">    168.00702664 </i>
    <varray name="rec_basis" >
     <v>       0.12193758      -0.07040069       0.00000000 </v>
     <v>       0.12193758       0.07040069       0.00000000 </v>
     <v>       0.00000000       0.00000000       0.34667941 </v>
    </varray>
   </crystal>
   <varray name="positions" >
    <v>       0.19708959       0.83151770       0.75000000 </v>
    <v>       0.36557189       0.19708959       0.25000000 </v>
    <v>       0.83151770       0.63442811       0.25000000 </v>
    <v>       0.16848230       0.36557189       0.75000000 </v>
    <v>       0.63442811       0.80291041       0.75000000 </v>
    <v>       0.80291041       0.16848230       0.25000000 </v>
    <v>       0.33333333       0.66666667       0.75000000 </v>
    <v>       0.66666667       0.33333333       0.25000000 </v>
    <v>       0.96358754       0.61246345       0.75000000 </v>
    <v>       0.35112409       0.96358754       0.25000000 </v>
    <v>       0.61246345       0.64887591       0.25000000 </v>
    <v>       0.38753655       0.35112409       0.75000000 </v>
    <v>       0.03641246       0.38753655       0.25000000 </v>
    <v>       0.64887591       0.03641246       0.75000000 </v>
   </varray>
  </structure>
  <varray name="forces" >
   <v>       0.11841265      -0.31317899      -0.00000000 </v>
   <v>       0.33042729      -0.05404113       0.00000000 </v>
   <v>      -0.21201464      -0.25913786       0.00000000 </v>
   <v>       0.21201464       0.25913786       0.00000000 </v>
   <v>      -0.33042729       0.05404113       0.00000000 </v>
   <v>      -0.11841265       0.31317899      -0.00000000 </v>
   <v>       0.00000000      -0.00000000       0.00000000 </v>
   <v>       0.00000000      -0.00000000       0.00000000 </v>
   <v>       0.18063970       0.52444122       0.00000000 </v>
   <v>      -0.36385957       0.41865918       0.00000000 </v>
   <v>       0.54449927       0.10578204       0.00000000 </v>
   <v>      -0.54449927      -0.10578204      -0.00000000 </v>
   <v>      -0.18063970      -0.52444122      -0.00000000 </v>
   <v>       0.36385957      -0.41865918      -0.00000000 </v>
  </varray>
  <varray name="stress" >
   <v>    -116.34488789       0.00000037       0.00000000 </v>
   <v>      -0.00000037    -116.34488789       0.00000000 </v>
   <v>       0.00000000       0.00000000    -125.48858948 </v>
  </varray>
  <energy>
   <i name="e_fr_energy">    -95.01461964 </i>
   <i name="e_wo_entrp">    -95.01517094 </i>
   <i name="e_0_energy">      0.00220521 </i>
  </energy>
  <time name="totalsc">   33.28   33.79</time>
 </calculation>
 <calculation>
  <scstep>
   <time name="dav">    2.41    2.41</time>
   <time name="total">    2.59    2.60</time>
   <energy>
    <i name="alphaZ">     72.55963857 </i>
    <i name="ewald">  -2171.27196114 </i>
    <i name="hartreedc">   -620.32337986 </i>
    <i name="XCdc">     56.37748215 </i>
    <i name="pawpsdc">   6493.80460072 </i>
    <i name="pawaedc">  -6361.36462061 </i>
    <i name="eentropy">      0.00088565 </i>
    <i name="bandstr">     23.78898642 </i>
    <i name="atom">   2411.37598431 </i>
    <i name="e_fr_energy">    -95.05238379 </i>
    <i name="e_wo_entrp">    -95.05326944 </i>
    <i name="e_0_energy">    -95.05260520 </i>
   </energy>
  </scstep>
  <scstep>
   <time name="diag">    0.37    0.37</time>
   <time name="diis">    1.56    1.56</time>
   <time name="orth">    0.04    0.04</time>
   <time name="total">    2.14    2.15</time>
   <energy>
    <i name="e_fr_energy">    -95.05927004 </i>
    <i name="e_wo_entrp">    -95.06022465 </i>
    <i name="e_0_energy">    -95.05950869 </i>
   </energy>
  </scstep>
  <scstep>
   <time name="diag">    0.37    0.37</time>
   <time name="diis">    1.58    1.58</time>
   <time name="orth">    0.04    0.04</time>
   <time name="total">    2.17    2.17</time>
   <energy>
    <i name="e_fr_energy">    -95.05693803 </i>
    <i name="e_wo_entrp">    -95.05815819 </i>
    <i name="e_0_energy">    -95.05724307 </i>
   </energy>
  </scstep>
  <scstep>
   <time name="diag">    0.37    0.37</time>
   <time name="diis">    1.62    1.62</time>
   <time name="orth">    0.04    0.04</time>
   <time name="total">    2.20    2.21</time>
   <energy>
    <i name="e_fr_energy">    -95.05680161 </i>
    <i name="e_wo_entrp">    -95.05799198 </i>
    <i name="e_0_energy">    -95.05709920 </i>
   </energy>
  </scstep>
  <scstep>
   <time name="diag">    0.38    0.38</time>
   <time name="diis">    1.10    1.10</time>
   <time name="orth">    0.04    0.04</time>
   <time name="total">    1.54    1.54</time>
   <energy>
    <i name="alphaZ">     72.55963857 </i>
    <i name="ewald">  -2171.27196114 </i>
    <i name="hartreedc">   -622.77244056 </i>
    <i name="XCdc">     56.49698503 </i>
    <i name="pawpsdc">   6613.81430033 </i>
    <i name="pawaedc">  -6481.42715063 </i>
    <i name="eentropy">      0.00113276 </i>
    <i name="bandstr">     26.16668301 </i>
    <i name="atom">   2411.37598431 </i>
    <i name="e_fr_energy">    -95.05682831 </i>
    <i name="e_wo_entrp">    -95.05796107 </i>
    <i name="e_0_energy">    -95.05711150 </i>
   </energy>
  </scstep>
  <structure>
   <crystal>
    <varray name="basis" >
     <v>       4.10045867      -7.10220274       0.00000000 </v>
     <v>       4.10045866       7.10220274       0.00000000 </v>
     <v>       0.00000000       0.00000000       2.88450932 </v>
    </varray>
    <i name="volume">    168.00702664 </i>
    <varray name="rec_basis" >
     <v>       0.12193758      -0.07040069       0.00000000 </v>
     <v>       0.12193758       0.07040069       0.00000000 </v>
     <v>       0.00000000       0.00000000       0.34667941 </v>
    </varray>
   </crystal>
   <varray name="positions" >
    <v>       0.19884982       0.83115062       0.75000000 </v>
    <v>       0.36769920       0.19884982       0.25000000 </v>
    <v>       0.83115062       0.63230080       0.25000000 </v>
    <v>       0.16884938       0.36769920       0.75000000 </v>
    <v>       0.63230080       0.80115018       0.75000000 </v>
    <v>       0.80115018       0.16884938       0.25000000 </v>
    <v>       0.33333333       0.66666667       0.75000000 </v>
    <v>       0.66666667       0.33333333       0.25000000 </v>
    <v>       0.96286900       0.61530725       0.75000000 </v>
    <v>       0.34756175       0.96286900       0.25000000 </v>
    <v>       0.61530725       0.65243825       0.25000000 </v>
    <v>       0.38469275       0.34756175       0.75000000 </v>
    <v>       0.03713100       0.38469275       0.25000000 </v>
    <v>       0.65243825       0.03713100       0.75000000 </v>
   </varray>
  </structure>
  <varray name="forces" >
   <v>      -0.13471224       0.16742093      -0.00000000 </v>
   <v>      -0.21234690      -0.03295375      -0.00000000 </v>
   <v>       0.07763466       0.20037468      -0.00000000 </v>
   <v>      -0.07763466      -0.20037468       0.00000000 </v>
   <v>       0.21234690       0.03295375      -0.00000000 </v>
   <v>       0.13471224      -0.16742093      -0.00000000 </v>
   <v>      -0.00000000       0.00000000      -0.00000000 </v>
   <v>      -0.00000000       0.00000000      -0.00000000 </v>
   <v>       0.03441137      -0.11695869       0.00000000 </v>
   <v>       0.11849488      -0.02867822      -0.00000000 </v>
   <v>      -0.08408351      -0.08828047       0.00000000 </v>
   <v>       0.08408351       0.08828047       0.00000000 </v>
   <v>      -0.03441137       0.11695869      -0.00000000 </v>
   <v>      -0.11849488       0.02867822       0.00000000 </v>
  </varray>
  <varray name="stress" >
   <v>    -100.30931766       0.00000019      -0.00000000 </v>
   <v>      -0.00000019    -100.30931766       0.00000000 </v>
   <v>       0.00000000      -0.00000000    -117.38518964 </v>
  </varray>
  <energy>
   <i name="e_fr_energy">    -95.05682831 </i>
   <i name="e_wo_entrp">    -95.05711150 </i>
   <i name="e_0_energy">      0.00113276 </i>
  </energy>
  <time name="totalsc">   14.65   14.68</time>
 </calculation>
 <calculation>
  <scstep>
   <time name="dav">    2.51    2.52</time>
   <time name="total">    2.69    2.70</time>
   <energy>
    <i name="alphaZ">     72.55963857 </i>
    <i name="ewald">  -2173.43654911 </i>
    <i name="hartreedc">   -621.56073143 </i>
    <i name="XCdc">     56.46406459 </i>
    <i name="pawpsdc">   6623.37393836 </i>
    <i name="pawaedc">  -6490.98811676 </i>
    <i name="eentropy">      0.00178693 </i>
    <i name="bandstr">     27.14921701 </i>
    <i name="atom">   2411.37598431 </i>
    <i name="e_fr_energy">    -95.06076753 </i>
    <i name="e_wo_entrp">    -95.06255446 </i>
    <i name="e_0_energy">    -95.06121426 </i>
   </energy>
  </scstep>
  <scstep>
   <time name="diag">    0.37    0.37</time>
   <time name="diis">    1.56    1.56</time>
   <time name="orth">    0.04    0.04</time>
   <time name="total">    2.14    2.14</time>
   <energy>
    <i name="e_fr_energy">    -95.06109516 </i>
    <i name="e_wo_entrp">    -95.06286407 </i>
    <i name="e_0_energy">    -95.06153739 </i>
   </energy>
  </scstep>
  <scstep>
   <time name="diag">    0.37    0.37</time>
   <time name="diis">    2.05    2.05</time>
   <time name="orth">    4.80    4.80</time>
   <time name="total">    8.38    8.38</time>
   <energy>
    <i name="e_fr_energy">    -95.06097515 </i>
    <i name="e_wo_entrp">    -95.06269463 </i>
    <i name="e_0_energy">    -95.06140502 </i>
   </energy>
  </scstep>
  <scstep>
   <time name="diag">    1.60    1.60</time>
   <time name="diis">    1.05    1.05</time>
   <time name="orth">    0.04    0.04</time>
   <time name="total">    3.64    3.64</time>
   <energy>
    <i name="alphaZ">     72.55963857 </i>
    <i name="ewald">  -2173.43654911 </i>
    <i name="hartreedc">   -621.02345539 </i>
    <i name="XCdc">     56.43703347 </i>
    <i name="pawpsdc">   6603.65471268 </i>
    <i name="pawaedc">  -6471.25676170 </i>
    <i name="eentropy">      0.00172383 </i>
    <i name="bandstr">     26.62670979 </i>
    <i name="atom">   2411.37598431 </i>
    <i name="e_fr_energy">    -95.06096356 </i>
    <i name="e_wo_entrp">    -95.06268739 </i>
    <i name="e_0_energy">    -95.06139452 </i>
   </energy>
  </scstep>
  <structure>
   <crystal>
    <varray name="basis" >
     <v>       4.10045867      -7.10220274       0.00000000 </v>
     <v>       4.10045866       7.10220274       0.00000000 </v>
     <v>       0.00000000       0.00000000       2.88450932 </v>
    </varray>
    <i name="volume">    168.00702664 </i>
    <varray name="rec_basis" >
     <v>       0.12193758      -0.07040069       0.00000000 </v>
     <v>       0.12193758       0.07040069       0.00000000 </v>
     <v>       0.00000000       0.00000000       0.34667941 </v>
    </varray>
   </crystal>
   <varray name="positions" >
    <v>       0.19844165       0.83123574       0.75000000 </v>
    <v>       0.36720591       0.19844165       0.25000000 </v>
    <v>       0.83123574       0.63279409       0.25000000 </v>
    <v>       0.16876426       0.36720591       0.75000000 </v>
    <v>       0.63279409       0.80155835       0.75000000 </v>
    <v>       0.80155835       0.16876426       0.25000000 </v>
    <v>       0.33333333       0.66666667       0.75000000 </v>
    <v>       0.66666667       0.33333333       0.25000000 </v>
    <v>       0.96303562       0.61464782       0.75000000 </v>
    <v>       0.34838780       0.96303562       0.25000000 </v>
    <v>       0.61464782       0.65161220       0.25000000 </v>
    <v>       0.38535218       0.34838780       0.75000000 </v>
    <v>       0.03696438       0.38535218       0.25000000 </v>
    <v>       0.65161220       0.03696438       0.75000000 </v>
   </varray>
  </structure>
  <varray name="forces" >
   <v>      -0.07701457       0.06041475      -0.00000000 </v>
   <v>      -0.09082799      -0.03648920      -0.00000000 </v>
   <v>       0.01381342       0.09690394      -0.00000000 </v>
   <v>      -0.01381342      -0.09690394      -0.00000000 </v>
   <v>       0.09082799       0.03648920      -0.00000000 </v>
   <v>       0.07701457      -0.06041475      -0.00000000 </v>
   <v>      -0.00000000       0.00000000      -0.00000000 </v>
   <v>      -0.00000000       0.00000000      -0.00000000 </v>
   <v>       0.06712143       0.03053530       0.00000000 </v>
   <v>       0.00711637       0.07339652       0.00000000 </v>
   <v>       0.06000506      -0.04286121      -0.00000000 </v>
   <v>      -0.06000506       0.04286121       0.00000000 </v>
   <v>      -0.06712143      -0.03053530      -0.00000000 </v>
   <v>      -0.00711637      -0.07339652       0.00000000 </v>
  </varray>
  <varray name="stress" >
   <v>    -105.26786231       0.00000012       0.00000000 </v>
   <v>      -0.00000012    -105.26786231      -0.00000000 </v>
   <v>      -0.00000000       0.00000000    -120.32043546 </v>
  </varray>
  <energy>
   <i name="e_fr_energy">    -95.06096356 </i>
   <i name="e_wo_entrp">    -95.06139452 </i>
   <i name="e_0_energy">      0.00172383 </i>
  </energy>
  <time name="totalsc">   20.84   20.86</time>
 </calculation>
 <calculation>
  <scstep>
   <time name="dav">    2.34    2.35</time>
   <time name="total">    2.52    2.53</time>
   <energy>
    <i name="alphaZ">     72.55963857 </i>
    <i name="ewald">  -2174.58148328 </i>
    <i name="hartreedc">   -619.78157474 </i>
    <i name="XCdc">     56.42530599 </i>
    <i name="pawpsdc">   6597.13989154 </i>
    <i name="pawaedc">  -6464.74102280 </i>
    <i name="eentropy">      0.00140494 </i>
    <i name="bandstr">     26.53915973 </i>
    <i name="atom">   2411.37598431 </i>
    <i name="e_fr_energy">    -95.06269573 </i>
    <i name="e_wo_entrp">    -95.06410067 </i>
    <i name="e_0_energy">    -95.06304697 </i>
   </energy>
  </scstep>
  <scstep>
   <time name="diag">    0.37    0.37</time>
   <time name="diis">    1.56    1.56</time>
   <time name="orth">    0.04    0.04</time>
   <time name="total">    2.15    2.15</time>
   <energy>
    <i name="e_fr_energy">    -95.06374649 </i>
    <i name="e_wo_entrp">    -95.06524965 </i>
    <i name="e_0_energy">    -95.06412228 </i>
   </energy>
  </scstep>
  <scstep>
   <time name="diag">    0.37    0.37</time>
   <time name="diis">    1.25    1.25</time>
   <time name="orth">    0.04    0.04</time>
   <time name="total">    1.84    1.84</time>
   <energy>
    <i name="e_fr_energy">    -95.06363639 </i>
    <i name="e_wo_entrp">    -95.06517609 </i>
    <i name="e_0_energy">    -95.06402132 </i>
   </energy>
  </scstep>
  <scstep>
   <time name="diag">    0.38    0.38</time>
   <time name="diis">    1.08    1.08</time>
   <time name="orth">    4.78    4.78</time>
   <time name="total">    6.26    6.26</time>
   <energy>
    <i name="alphaZ">     72.55963857 </i>
    <i name="ewald">  -2174.58148328 </i>
    <i name="hartreedc">   -619.92308414 </i>
    <i name="XCdc">     56.43494757 </i>
    <i name="pawpsdc">   6595.85771796 </i>
    <i name="pawaedc">  -6463.46306270 </i>
    <i name="eentropy">      0.00153951 </i>
    <i name="bandstr">     26.67419876 </i>
    <i name="atom">   2411.37598431 </i>
    <i name="e_fr_energy">    -95.06360344 </i>
    <i name="e_wo_entrp">    -95.06514295 </i>
    <i name="e_0_energy">    -95.06398831 </i>
   </energy>
  </scstep>
  <structure>
   <crystal>
    <varray name="basis" >
     <v>       4.10045867      -7.10220274       0.00000000 </v>
     <v>       4.10045866       7.10220274       0.00000000 </v>
     <v>       0.00000000       0.00000000       2.88450932 </v>
    </varray>
    <i name="volume">    168.00702664 </i>
    <varray name="rec_basis" >
     <v>       0.12193758      -0.07040069       0.00000000 </v>
     <v>       0.12193758       0.07040069       0.00000000 </v>
     <v>       0.00000000       0.00000000       0.34667941 </v>
    </varray>
   </crystal>
   <varray name="positions" >
    <v>       0.19787361       0.83098694       0.75000000 </v>
    <v>       0.36688667       0.19787361       0.25000000 </v>
    <v>       0.83098694       0.63311333       0.25000000 </v>
    <v>       0.16901306       0.36688667       0.75000000 </v>
    <v>       0.63311333       0.80212639       0.75000000 </v>
    <v>       0.80212639       0.16901306       0.25000000 </v>
    <v>       0.33333333       0.66666667       0.75000000 </v>
    <v>       0.66666667       0.33333333       0.25000000 </v>
    <v>       0.96328890       0.61521964       0.75000000 </v>
    <v>       0.34806926       0.96328890       0.25000000 </v>
    <v>       0.61521964       0.65193074       0.25000000 </v>
    <v>       0.38478036       0.34806926       0.75000000 </v>
    <v>       0.03671110       0.38478036       0.25000000 </v>
    <v>       0.65193074       0.03671110       0.75000000 </v>
   </varray>
  </structure>
  <varray name="forces" >
   <v>       0.00488951       0.06867824      -0.00000000 </v>
   <v>      -0.05703235       0.03857356      -0.00000000 </v>
   <v>       0.06192186       0.03010468      -0.00000000 </v>
   <v>      -0.06192186      -0.03010468      -0.00000000 </v>
   <v>       0.05703235      -0.03857356      -0.00000000 </v>
   <v>      -0.00488951      -0.06867824      -0.00000000 </v>
   <v>      -0.00000000       0.00000000      -0.00000000 </v>
   <v>      -0.00000000       0.00000000      -0.00000000 </v>
   <v>      -0.00506256       0.04387459       0.00000000 </v>
   <v>      -0.04052779       0.01755299       0.00000000 </v>
   <v>       0.03546523       0.02632160       0.00000000 </v>
   <v>      -0.03546523      -0.02632160       0.00000000 </v>
   <v>       0.00506256      -0.04387459      -0.00000000 </v>
   <v>       0.04052779      -0.01755299       0.00000000 </v>
  </varray>
  <varray name="stress" >
   <v>    -103.91034876       0.00000009       0.00000000 </v>
   <v>      -0.00000009    -103.91034876       0.00000000 </v>
   <v>       0.00000000       0.00000000    -120.59728161 </v>
  </varray>
  <energy>
   <i name="e_fr_energy">    -95.06360344 </i>
   <i name="e_wo_entrp">    -95.06398831 </i>
   <i name="e_0_energy">      0.00153951 </i>
  </energy>
  <time name="totalsc">   19.29   19.30</time>
 </calculation>
 <calculation>
  <scstep>
   <time name="dav">    2.47    2.47</time>
   <time name="total">    2.65    2.65</time>
   <energy>
    <i name="alphaZ">     72.55963857 </i>
    <i name="ewald">  -2175.10321480 </i>
    <i name="hartreedc">   -619.34526678 </i>
    <i name="XCdc">     56.42878166 </i>
    <i name="pawpsdc">   6596.93958925 </i>
    <i name="pawaedc">  -6464.54493799 </i>
    <i name="eentropy">      0.00136092 </i>
    <i name="bandstr">     26.62439672 </i>
    <i name="atom">   2411.37598431 </i>
    <i name="e_fr_energy">    -95.06366813 </i>
    <i name="e_wo_entrp">    -95.06502905 </i>
    <i name="e_0_energy">    -95.06400836 </i>
   </energy>
  </scstep>
  <scstep>
   <time name="diag">    3.52    3.82</time>
   <time name="diis">    1.58    1.58</time>
   <time name="orth">    0.04    0.04</time>
   <time name="total">    5.80    6.63</time>
   <energy>
    <i name="e_fr_energy">    -95.06390999 </i>
    <i name="e_wo_entrp">    -95.06531919 </i>
    <i name="e_0_energy">    -95.06426229 </i>
   </energy>
  </scstep>
  <scstep>
   <time name="diag">    0.38    0.38</time>
   <time name="diis">    1.02    1.02</time>
   <time name="orth">    0.04    0.04</time>
   <time name="total">    1.63    1.81</time>
   <energy>
    <i name="alphaZ">     72.55963857 </i>
    <i name="ewald">  -2175.10321480 </i>
    <i name="hartreedc">   -619.42397340 </i>
    <i name="XCdc">     56.43369936 </i>
    <i name="pawpsdc">   6596.47749740 </i>
    <i name="pawaedc">  -6464.08473100 </i>
    <i name="eentropy">      0.00142586 </i>
    <i name="bandstr">     26.69978865 </i>
    <i name="atom">   2411.37598431 </i>
    <i name="e_fr_energy">    -95.06388503 </i>
    <i name="e_wo_entrp">    -95.06531089 </i>
    <i name="e_0_energy">    -95.06424149 </i>
   </energy>
  </scstep>
  <structure>
   <crystal>
    <varray name="basis" >
     <v>       4.10045867      -7.10220274       0.00000000 </v>
     <v>       4.10045866       7.10220274       0.00000000 </v>
     <v>       0.00000000       0.00000000       2.88450932 </v>
    </varray>
    <i name="volume">    168.00702664 </i>
    <varray name="rec_basis" >
     <v>       0.12193758      -0.07040069       0.00000000 </v>
     <v>       0.12193758       0.07040069       0.00000000 </v>
     <v>       0.00000000       0.00000000       0.34667941 </v>
    </varray>
   </crystal>
   <varray name="positions" >
    <v>       0.19760574       0.83086961       0.75000000 </v>
    <v>       0.36673613       0.19760574       0.25000000 </v>
    <v>       0.83086961       0.63326387       0.25000000 </v>
    <v>       0.16913039       0.36673613       0.75000000 </v>
    <v>       0.63326387       0.80239426       0.75000000 </v>
    <v>       0.80239426       0.16913039       0.25000000 </v>
    <v>       0.33333333       0.66666667       0.75000000 </v>
    <v>       0.66666667       0.33333333       0.25000000 </v>
    <v>       0.96340834       0.61548930       0.75000000 </v>
    <v>       0.34791904       0.96340834       0.25000000 </v>
    <v>       0.61548930       0.65208096       0.25000000 </v>
    <v>       0.38451070       0.34791904       0.75000000 </v>
    <v>       0.03659166       0.38451070       0.25000000 </v>
    <v>       0.65208096       0.03659166       0.75000000 </v>
   </varray>
  </structure>
  <varray name="forces" >
   <v>       0.04554140       0.07443406      -0.00000000 </v>
   <v>      -0.04169108       0.07665704       0.00000000 </v>
   <v>       0.08723249      -0.00222298       0.00000000 </v>
   <v>      -0.08723249       0.00222298      -0.00000000 </v>
   <v>       0.04169108      -0.07665704      -0.00000000 </v>
   <v>      -0.04554140      -0.07443406       0.00000000 </v>
   <v>       0.00000000      -0.00000000       0.00000000 </v>
   <v>       0.00000000      -0.00000000       0.00000000 </v>
   <v>      -0.03913655       0.05028309       0.00000000 </v>
   <v>      -0.06311471      -0.00875170       0.00000000 </v>
   <v>       0.02397816       0.05903479       0.00000000 </v>
   <v>      -0.02397816      -0.05903479      -0.00000000 </v>
   <v>       0.03913655      -0.05028309      -0.00000000 </v>
   <v>       0.06311471       0.00875170       0.00000000 </v>
  </varray>
  <varray name="stress" >
   <v>    -103.24491394       0.00000013      -0.00000000 </v>
   <v>      -0.00000013    -103.24491394       0.00000000 </v>
   <v>       0.00000000      -0.00000000    -120.39047391 </v>
  </varray>
  <energy>
   <i name="e_fr_energy">    -95.06388503 </i>
   <i name="e_wo_entrp">    -95.06424149 </i>
   <i name="e_0_energy">      0.00142586 </i>
  </energy>
  <time name="totalsc">   14.06   15.08</time>
 </calculation>
 <calculation>
  <scstep>
   <time name="dav">    2.28    2.28</time>
   <time name="total">    2.63    2.84</time>
   <energy>
    <i name="alphaZ">     72.55963857 </i>
    <i name="ewald">  -2176.75044473 </i>
    <i name="hartreedc">   -617.73367005 </i>
    <i name="XCdc">     56.41811127 </i>
    <i name="pawpsdc">   6598.96267203 </i>
    <i name="pawaedc">  -6466.57019424 </i>
    <i name="eentropy">      0.00079417 </i>
    <i name="bandstr">     26.67125930 </i>
    <i name="atom">   2411.37598431 </i>
    <i name="e_fr_energy">    -95.06584937 </i>
    <i name="e_wo_entrp">    -95.06664354 </i>
    <i name="e_0_energy">    -95.06604792 </i>
   </energy>
  </scstep>
  <scstep>
   <time name="diag">    0.38    0.38</time>
   <time name="diis">    2.84    2.84</time>
   <time name="orth">    3.59    3.59</time>
   <time name="total">    7.00    7.00</time>
   <energy>
    <i name="e_fr_energy">    -95.06650717 </i>
    <i name="e_wo_entrp">    -95.06739440 </i>
    <i name="e_0_energy">    -95.06672898 </i>
   </energy>
  </scstep>
  <scstep>
   <time name="diag">    0.38    0.38</time>
   <time name="diis">    1.17    1.17</time>
   <time name="orth">    0.04    0.04</time>
   <time name="total">    1.61    1.61</time>
   <energy>
    <i name="alphaZ">     72.55963857 </i>
    <i name="ewald">  -2176.75044473 </i>
    <i name="hartreedc">   -617.85229578 </i>
    <i name="XCdc">     56.42712436 </i>
    <i name="pawpsdc">   6599.01641886 </i>
    <i name="pawaedc">  -6466.62821949 </i>
    <i name="eentropy">      0.00091577 </i>
    <i name="bandstr">     26.78442851 </i>
    <i name="atom">   2411.37598431 </i>
    <i name="e_fr_energy">    -95.06644963 </i>
    <i name="e_wo_entrp">    -95.06736539 </i>
    <i name="e_0_energy">    -95.06667857 </i>
   </energy>
  </scstep>
  <structure>
   <crystal>
    <varray name="basis" >
     <v>       4.10045867      -7.10220274       0.00000000 </v>
     <v>       4.10045866       7.10220274       0.00000000 </v>
     <v>       0.00000000       0.00000000       2.88450932 </v>
    </varray>
    <i name="volume">    168.00702664 </i>
    <varray name="rec_basis" >
     <v>       0.12193758      -0.07040069       0.00000000 </v>
     <v>       0.12193758       0.07040069       0.00000000 </v>
     <v>       0.00000000       0.00000000       0.34667941 </v>
    </varray>
   </crystal>
   <varray name="positions" >
    <v>       0.19725893       0.83111218       0.75000000 </v>
    <v>       0.36614674       0.19725893       0.25000000 </v>
    <v>       0.83111218       0.63385326       0.25000000 </v>
    <v>       0.16888782       0.36614674       0.75000000 </v>
    <v>       0.63385326       0.80274107       0.75000000 </v>
    <v>       0.80274107       0.16888782       0.25000000 </v>
    <v>       0.33333333       0.66666667       0.75000000 </v>
    <v>       0.66666667       0.33333333       0.25000000 </v>
    <v>       0.96326045       0.61580447       0.75000000 </v>
    <v>       0.34745598       0.96326045       0.25000000 </v>
    <v>       0.61580447       0.65254402       0.25000000 </v>
    <v>       0.38419553       0.34745598       0.75000000 </v>
    <v>       0.03673955       0.38419553       0.25000000 </v>
    <v>       0.65254402       0.03673955       0.75000000 </v>
   </varray>
  </structure>
  <varray name="forces" >
   <v>       0.05037933       0.08139467       0.00000000 </v>
   <v>      -0.04530018       0.08432712       0.00000000 </v>
   <v>       0.09567952      -0.00293245       0.00000000 </v>
   <v>      -0.09567952       0.00293245       0.00000000 </v>
   <v>       0.04530018      -0.08432712       0.00000000 </v>
   <v>      -0.05037933      -0.08139467       0.00000000 </v>
   <v>      -0.00000000       0.00000000      -0.00000000 </v>
   <v>      -0.00000000       0.00000000      -0.00000000 </v>
   <v>      -0.03390980       0.04788564       0.00000000 </v>
   <v>      -0.05842508      -0.00542393      -0.00000000 </v>
   <v>       0.02451528       0.05330957      -0.00000000 </v>
   <v>      -0.02451528      -0.05330957       0.00000000 </v>
   <v>       0.03390980      -0.04788564      -0.00000000 </v>
   <v>       0.05842508       0.00542393       0.00000000 </v>
  </varray>
  <varray name="stress" >
   <v>    -102.29647288       0.00000038       0.00000000 </v>
   <v>      -0.00000038    -102.29647288       0.00000000 </v>
   <v>      -0.00000000       0.00000000    -119.91197057 </v>
  </varray>
  <energy>
   <i name="e_fr_energy">    -95.06644963 </i>
   <i name="e_wo_entrp">    -95.06667857 </i>
   <i name="e_0_energy">      0.00091577 </i>
  </energy>
  <time name="totalsc">   15.23   15.44</time>
 </calculation>
 <calculation>
  <scstep>
   <time name="dav">   23.11   23.11</time>
   <time name="total">   24.28   24.28</time>
   <energy>
    <i name="alphaZ">     72.55963857 </i>
    <i name="ewald">  -2181.42493553 </i>
    <i name="hartreedc">   -612.96318699 </i>
    <i name="XCdc">     56.37933155 </i>
    <i name="pawpsdc">   6602.21462587 </i>
    <i name="pawaedc">  -6469.82680383 </i>
    <i name="eentropy">      0.00064821 </i>
    <i name="bandstr">     26.61657594 </i>
    <i name="atom">   2411.37598431 </i>
    <i name="e_fr_energy">    -95.06812189 </i>
    <i name="e_wo_entrp">    -95.06877010 </i>
    <i name="e_0_energy">    -95.06828394 </i>
   </energy>
  </scstep>
  <scstep>
   <time name="diag">    0.38    0.38</time>
   <time name="diis">    1.56    1.56</time>
   <time name="orth">    0.04    0.04</time>
   <time name="total">    2.15    2.15</time>
   <energy>
    <i name="e_fr_energy">    -95.07442621 </i>
    <i name="e_wo_entrp">    -95.07511614 </i>
    <i name="e_0_energy">    -95.07459869 </i>
   </energy>
  </scstep>
  <scstep>
   <time name="diag">    0.37    0.37</time>
   <time name="diis">    1.63    1.63</time>
   <time name="orth">    0.04    0.04</time>
   <time name="total">    2.22    2.22</time>
   <energy>
    <i name="e_fr_energy">    -95.07389144 </i>
    <i name="e_wo_entrp">    -95.07455391 </i>
    <i name="e_0_energy">    -95.07405706 </i>
   </energy>
  </scstep>
  <scstep>
   <time name="diag">    0.37    0.37</time>
   <time name="diis">    1.50    1.50</time>
   <time name="orth">    0.04    0.04</time>
   <time name="total">    2.08    2.09</time>
   <energy>
    <i name="e_fr_energy">    -95.07375456 </i>
    <i name="e_wo_entrp">    -95.07441816 </i>
    <i name="e_0_energy">    -95.07392046 </i>
   </energy>
  </scstep>
  <scstep>
   <time name="diag">    0.38    0.37</time>
   <time name="diis">    1.07    1.07</time>
   <time name="orth">    0.04    0.04</time>
   <time name="total">    1.51    1.51</time>
   <energy>
    <i name="alphaZ">     72.55963857 </i>
    <i name="ewald">  -2181.42493553 </i>
    <i name="hartreedc">   -613.26968933 </i>
    <i name="XCdc">     56.40574754 </i>
    <i name="pawpsdc">   6616.80358536 </i>
    <i name="pawaedc">  -6484.42995243 </i>
    <i name="eentropy">      0.00066605 </i>
    <i name="bandstr">     26.90519474 </i>
    <i name="atom">   2411.37598431 </i>
    <i name="e_fr_energy">    -95.07376073 </i>
    <i name="e_wo_entrp">    -95.07442678 </i>
    <i name="e_0_energy">    -95.07392724 </i>
   </energy>
  </scstep>
  <structure>
   <crystal>
    <varray name="basis" >
     <v>       4.10045867      -7.10220274       0.00000000 </v>
     <v>       4.10045866       7.10220274       0.00000000 </v>
     <v>       0.00000000       0.00000000       2.88450932 </v>
    </varray>
    <i name="volume">    168.00702664 </i>
    <varray name="rec_basis" >
     <v>       0.12193758      -0.07040069       0.00000000 </v>
     <v>       0.12193758       0.07040069       0.00000000 </v>
     <v>       0.00000000       0.00000000       0.34667941 </v>
    </varray>
   </crystal>
   <varray name="positions" >
    <v>       0.19621849       0.83183991       0.75000000 </v>
    <v>       0.36437858       0.19621849       0.25000000 </v>
    <v>       0.83183991       0.63562142       0.25000000 </v>
    <v>       0.16816009       0.36437858       0.75000000 </v>
    <v>       0.63562142       0.80378151       0.75000000 </v>
    <v>       0.80378151       0.16816009       0.25000000 </v>
    <v>       0.33333333       0.66666667       0.75000000 </v>
    <v>       0.66666667       0.33333333       0.25000000 </v>
    <v>       0.96281675       0.61674998       0.75000000 </v>
    <v>       0.34606677       0.96281675       0.25000000 </v>
    <v>       0.61674998       0.65393323       0.25000000 </v>
    <v>       0.38325002       0.34606677       0.75000000 </v>
    <v>       0.03718325       0.38325002       0.25000000 </v>
    <v>       0.65393323       0.03718325       0.75000000 </v>
   </varray>
  </structure>
  <varray name="forces" >
   <v>       0.06381138       0.07332668      -0.00000000 </v>
   <v>      -0.03159708       0.09192561      -0.00000000 </v>
   <v>       0.09540846      -0.01859893      -0.00000000 </v>
   <v>      -0.09540846       0.01859893      -0.00000000 </v>
   <v>       0.03159708      -0.09192561       0.00000000 </v>
   <v>      -0.06381138      -0.07332668      -0.00000000 </v>
   <v>      -0.00000000       0.00000000      -0.00000000 </v>
   <v>       0.00000000       0.00000000      -0.00000000 </v>
   <v>      -0.01924071       0.03773168      -0.00000000 </v>
   <v>      -0.04229695       0.00220289       0.00000000 </v>
   <v>       0.02305623       0.03552879      -0.00000000 </v>
   <v>      -0.02305623      -0.03552879       0.00000000 </v>
   <v>       0.01924071      -0.03773168       0.00000000 </v>
   <v>       0.04229695      -0.00220289      -0.00000000 </v>
  </varray>
  <varray name="stress" >
   <v>     -99.70452050       0.00000028      -0.00000000 </v>
   <v>      -0.00000028     -99.70452050       0.00000000 </v>
   <v>       0.00000000       0.00000000    -117.76975898 </v>
  </varray>
  <energy>
   <i name="e_fr_energy">    -95.07376073 </i>
   <i name="e_wo_entrp">    -95.07392724 </i>
   <i name="e_0_energy">      0.00066605 </i>
  </energy>
  <time name="totalsc">   36.21   36.25</time>
 </calculation>
 <calculation>
  <scstep>
   <time name="dav">    2.20    2.20</time>
   <time name="total">    2.38    2.38</time>
   <energy>
    <i name="alphaZ">     72.55963857 </i>
    <i name="ewald">  -2189.57018610 </i>
    <i name="hartreedc">   -604.60777613 </i>
    <i name="XCdc">     56.31943761 </i>
    <i name="pawpsdc">   6619.90934311 </i>
    <i name="pawaedc">  -6487.53588968 </i>
    <i name="eentropy">     -0.00581811 </i>
    <i name="bandstr">     26.48596244 </i>
    <i name="atom">   2411.37598431 </i>
    <i name="e_fr_energy">    -95.06930399 </i>
    <i name="e_wo_entrp">    -95.06348588 </i>
    <i name="e_0_energy">    -95.06784946 </i>
   </energy>
  </scstep>
  <scstep>
   <time name="diag">    0.37    0.37</time>
   <time name="diis">    1.58    1.58</time>
   <time name="orth">    0.04    0.04</time>
   <time name="total">    2.16    2.16</time>
   <energy>
    <i name="e_fr_energy">    -95.09110650 </i>
    <i name="e_wo_entrp">    -95.08512972 </i>
    <i name="e_0_energy">    -95.08961231 </i>
   </energy>
  </scstep>
  <scstep>
   <time name="diag">    0.52    0.66</time>
   <time name="diis">    1.60    1.60</time>
   <time name="orth">    0.04    0.04</time>
   <time name="total">    2.78    3.41</time>
   <energy>
    <i name="e_fr_energy">    -95.08924488 </i>
    <i name="e_wo_entrp">    -95.08353007 </i>
    <i name="e_0_energy">    -95.08781618 </i>
   </energy>
  </scstep>
  <scstep>
   <time name="diag">    0.37    0.37</time>
   <time name="diis">    1.58    1.59</time>
   <time name="orth">    0.03    0.03</time>
   <time name="total">    2.17    2.17</time>
   <energy>
    <i name="e_fr_energy">    -95.08873056 </i>
    <i name="e_wo_entrp">    -95.08299555 </i>
    <i name="e_0_energy">    -95.08729681 </i>
   </energy>
  </scstep>
  <scstep>
   <time name="diag">    0.38    0.38</time>
   <time name="diis">    1.11    1.11</time>
   <time name="orth">    0.04    0.04</time>
   <time name="total">    1.55    1.55</time>
   <energy>
    <i name="alphaZ">     72.55963857 </i>
    <i name="ewald">  -2189.57018610 </i>
    <i name="hartreedc">   -605.47012406 </i>
    <i name="XCdc">     56.38707050 </i>
    <i name="pawpsdc">   6653.74004255 </i>
    <i name="pawaedc">  -6521.40536119 </i>
    <i name="eentropy">     -0.00570477 </i>
    <i name="bandstr">     27.29989116 </i>
    <i name="atom">   2411.37598431 </i>
    <i name="e_fr_energy">    -95.08874904 </i>
    <i name="e_wo_entrp">    -95.08304427 </i>
    <i name="e_0_energy">    -95.08732285 </i>
   </energy>
  </scstep>
  <structure>
   <crystal>
    <varray name="basis" >
     <v>       4.10045867      -7.10220274       0.00000000 </v>
     <v>       4.10045866       7.10220274       0.00000000 </v>
     <v>       0.00000000       0.00000000       2.88450932 </v>
    </varray>
    <i name="volume">    168.00702664 </i>
    <varray name="rec_basis" >
     <v>       0.12193758      -0.07040069       0.00000000 </v>
     <v>       0.12193758       0.07040069       0.00000000 </v>
     <v>       0.00000000       0.00000000       0.34667941 </v>
    </varray>
   </crystal>
   <varray name="positions" >
    <v>       0.19413761       0.83329536       0.75000000 </v>
    <v>       0.36084225       0.19413761       0.25000000 </v>
    <v>       0.83329536       0.63915775       0.25000000 </v>
    <v>       0.16670464       0.36084225       0.75000000 </v>
    <v>       0.63915775       0.80586239       0.75000000 </v>
    <v>       0.80586239       0.16670464       0.25000000 </v>
    <v>       0.33333333       0.66666667       0.75000000 </v>
    <v>       0.66666667       0.33333333       0.25000000 </v>
    <v>       0.96192936       0.61864100       0.75000000 </v>
    <v>       0.34328836       0.96192936       0.25000000 </v>
    <v>       0.61864100       0.65671164       0.25000000 </v>
    <v>       0.38135900       0.34328836       0.75000000 </v>
    <v>       0.03807064       0.38135900       0.25000000 </v>
    <v>       0.65671164       0.03807064       0.75000000 </v>
   </varray>
  </structure>
  <varray name="forces" >
   <v>       0.09158581       0.09641785      -0.00000000 </v>
   <v>      -0.03770740       0.12752456      -0.00000000 </v>
   <v>       0.12929321      -0.03110671      -0.00000000 </v>
   <v>      -0.12929321       0.03110671      -0.00000000 </v>
   <v>       0.03770740      -0.12752456      -0.00000000 </v>
   <v>      -0.09158581      -0.09641785      -0.00000000 </v>
   <v>      -0.00000000       0.00000000       0.00000000 </v>
   <v>      -0.00000000       0.00000000       0.00000000 </v>
   <v>       0.03037516       0.07000817       0.00000000 </v>
   <v>      -0.04544127       0.06130975      -0.00000000 </v>
   <v>       0.07581643       0.00869842      -0.00000000 </v>
   <v>      -0.07581643      -0.00869842      -0.00000000 </v>
   <v>      -0.03037516      -0.07000817       0.00000000 </v>
   <v>       0.04544127      -0.06130975      -0.00000000 </v>
  </varray>
  <varray name="stress" >
   <v>     -91.31053820       0.00000019       0.00000000 </v>
   <v>      -0.00000019     -91.31053820       0.00000000 </v>
   <v>      -0.00000000       0.00000000    -110.62455281 </v>
  </varray>
  <energy>
   <i name="e_fr_energy">    -95.08874904 </i>
   <i name="e_wo_entrp">    -95.08732285 </i>
   <i name="e_0_energy">     -0.00570477 </i>
  </energy>
  <time name="totalsc">   15.04   15.68</time>
 </calculation>
 <calculation>
  <scstep>
   <time name="dav">    2.23    2.23</time>
   <time name="total">    2.49    2.59</time>
   <energy>
    <i name="alphaZ">     72.55963857 </i>
    <i name="ewald">  -2201.03437766 </i>
    <i name="hartreedc">   -592.34329318 </i>
    <i name="XCdc">     56.23709251 </i>
    <i name="pawpsdc">   6658.67623274 </i>
    <i name="pawaedc">  -6526.34164426 </i>
    <i name="eentropy">     -0.00129797 </i>
    <i name="bandstr">     25.82326601 </i>
    <i name="atom">   2411.37598431 </i>
    <i name="e_fr_energy">    -95.04839892 </i>
    <i name="e_wo_entrp">    -95.04710095 </i>
    <i name="e_0_energy">    -95.04807443 </i>
   </energy>
  </scstep>
  <scstep>
   <time name="diag">    0.38    0.38</time>
   <time name="diis">    1.56    1.55</time>
   <time name="orth">    0.04    0.04</time>
   <time name="total">    2.14    2.14</time>
   <energy>
    <i name="e_fr_energy">    -95.16441921 </i>
    <i name="e_wo_entrp">    -95.16309968 </i>
    <i name="e_0_energy">    -95.16408933 </i>
   </energy>
  </scstep>
  <scstep>
   <time name="diag">    2.76    5.16</time>
   <time name="diis">    2.86    2.86</time>
   <time name="orth">    4.48    4.48</time>
   <time name="total">   11.60   14.44</time>
   <energy>
    <i name="e_fr_energy">    -95.15265304 </i>
    <i name="e_wo_entrp">    -95.15161321 </i>
    <i name="e_0_energy">    -95.15239309 </i>
   </energy>
  </scstep>
  <scstep>
   <time name="diag">   22.50   22.50</time>
   <time name="diis">   45.11   45.11</time>
   <time name="orth">    0.04    0.04</time>
   <time name="total">   68.72   68.74</time>
   <energy>
    <i name="e_fr_energy">    -95.15019797 </i>
    <i name="e_wo_entrp">    -95.14915996 </i>
    <i name="e_0_energy">    -95.14993847 </i>
   </energy>
  </scstep>
  <scstep>
   <time name="diag">    0.37    0.37</time>
   <time name="diis">    1.58    1.58</time>
   <time name="orth">    0.04    0.04</time>
   <time name="total">    2.16    2.16</time>
   <energy>
    <i name="e_fr_energy">    -95.15013496 </i>
    <i name="e_wo_entrp">    -95.14905023 </i>
    <i name="e_0_energy">    -95.14986378 </i>
   </energy>
  </scstep>
  <scstep>
   <time name="diag">    0.37    0.37</time>
   <time name="diis">    1.33    1.34</time>
   <time name="orth">    0.04    0.04</time>
   <time name="total">    1.76    1.77</time>
   <energy>
    <i name="alphaZ">     72.55963857 </i>
    <i name="ewald">  -2201.03437766 </i>
    <i name="hartreedc">   -594.74486273 </i>
    <i name="XCdc">     56.40723176 </i>
    <i name="pawpsdc">   6755.87377109 </i>
    <i name="pawaedc">  -6623.62162699 </i>
    <i name="eentropy">     -0.00102727 </i>
    <i name="bandstr">     28.03507734 </i>
    <i name="atom">   2411.37598431 </i>
    <i name="e_fr_energy">    -95.15019157 </i>
    <i name="e_wo_entrp">    -95.14916430 </i>
    <i name="e_0_energy">    -95.14993475 </i>
   </energy>
  </scstep>
  <structure>
   <crystal>
    <varray name="basis" >
     <v>       4.10045867      -7.10220274       0.00000000 </v>
     <v>       4.10045866       7.10220274       0.00000000 </v>
     <v>       0.00000000       0.00000000       2.88450932 </v>
    </varray>
    <i name="volume">    168.00702664 </i>
    <varray name="rec_basis" >
     <v>       0.12193758      -0.07040069       0.00000000 </v>
     <v>       0.12193758       0.07040069       0.00000000 </v>
     <v>       0.00000000       0.00000000       0.34667941 </v>
    </varray>
   </crystal>
   <varray name="positions" >
    <v>       0.18997586       0.83620626       0.75000000 </v>
    <v>       0.35376960       0.18997586       0.25000000 </v>
    <v>       0.83620626       0.64623040       0.25000000 </v>
    <v>       0.16379374       0.35376960       0.75000000 </v>
    <v>       0.64623040       0.81002414       0.75000000 </v>
    <v>       0.81002414       0.16379374       0.25000000 </v>
    <v>       0.33333333       0.66666667       0.75000000 </v>
    <v>       0.66666667       0.33333333       0.25000000 </v>
    <v>       0.96015459       0.62242304       0.75000000 </v>
    <v>       0.33773154       0.96015459       0.25000000 </v>
    <v>       0.62242304       0.66226846       0.25000000 </v>
    <v>       0.37757696       0.33773154       0.75000000 </v>
    <v>       0.03984541       0.37757696       0.25000000 </v>
    <v>       0.66226846       0.03984541       0.75000000 </v>
   </varray>
  </structure>
  <varray name="forces" >
   <v>       0.13911971       0.05929960       0.00000000 </v>
   <v>       0.01820490       0.15013100      -0.00000000 </v>
   <v>       0.12091482      -0.09083140       0.00000000 </v>
   <v>      -0.12091482       0.09083140      -0.00000000 </v>
   <v>      -0.01820490      -0.15013100       0.00000000 </v>
   <v>      -0.13911971      -0.05929960      -0.00000000 </v>
   <v>       0.00000000      -0.00000000       0.00000000 </v>
   <v>       0.00000000       0.00000000       0.00000000 </v>
   <v>       0.11712283       0.11195621       0.00000000 </v>
   <v>      -0.03839550       0.15740945       0.00000000 </v>
   <v>       0.15551834      -0.04545325       0.00000000 </v>
   <v>      -0.15551834       0.04545325      -0.00000000 </v>
   <v>      -0.11712283      -0.11195621      -0.00000000 </v>
   <v>       0.03839550      -0.15740945      -0.00000000 </v>
  </varray>
  <varray name="stress" >
   <v>     -76.99979241       0.00000002       0.00000000 </v>
   <v>      -0.00000002     -76.99979241       0.00000000 </v>
   <v>      -0.00000000       0.00000000     -97.07073579 </v>
  </varray>
  <energy>
   <i name="e_fr_energy">    -95.15019157 </i>
   <i name="e_wo_entrp">    -95.14993475 </i>
   <i name="e_0_energy">     -0.00102727 </i>
  </energy>
  <time name="totalsc">   95.45  105.07</time>
 </calculation>
 <calculation>
  <scstep>
   <time name="dav">    5.64    5.64</time>
   <time name="total">    6.68    6.68</time>
   <energy>
    <i name="alphaZ">     72.55963857 </i>
    <i name="ewald">  -2204.55243650 </i>
    <i name="hartreedc">   -585.64775225 </i>
    <i name="XCdc">     56.19069899 </i>
    <i name="pawpsdc">   6756.77241205 </i>
    <i name="pawaedc">  -6624.51958360 </i>
    <i name="eentropy">     -0.00003290 </i>
    <i name="bandstr">     23.30737818 </i>
    <i name="atom">   2411.37598431 </i>
    <i name="e_fr_energy">    -94.51369315 </i>
    <i name="e_wo_entrp">    -94.51366025 </i>
    <i name="e_0_energy">    -94.51368493 </i>
   </energy>
  </scstep>
  <scstep>
   <time name="diag">    0.37    0.37</time>
   <time name="diis">    1.55    1.55</time>
   <time name="orth">    0.04    0.04</time>
   <time name="total">    2.14    2.14</time>
   <energy>
    <i name="e_fr_energy">    -95.25186987 </i>
    <i name="e_wo_entrp">    -95.25201642 </i>
    <i name="e_0_energy">    -95.25190650 </i>
   </energy>
  </scstep>
  <scstep>
   <time name="diag">    1.72    3.20</time>
   <time name="diis">    2.60    2.60</time>
   <time name="orth">    1.34    1.34</time>
   <time name="total">    6.31    8.29</time>
   <energy>
    <i name="e_fr_energy">    -95.17431084 </i>
    <i name="e_wo_entrp">    -95.17516804 </i>
    <i name="e_0_energy">    -95.17452514 </i>
   </energy>
  </scstep>
  <scstep>
   <time name="diag">    0.37    0.37</time>
   <time name="diis">    1.55    1.55</time>
   <time name="orth">    0.04    0.04</time>
   <time name="total">    2.14    2.15</time>
   <energy>
    <i name="e_fr_energy">    -95.15246155 </i>
    <i name="e_wo_entrp">    -95.15286868 </i>
    <i name="e_0_energy">    -95.15256334 </i>
   </energy>
  </scstep>
  <scstep>
   <time name="diag">    0.37    0.37</time>
   <time name="diis">    1.58    1.58</time>
   <time name="orth">    0.04    0.04</time>
   <time name="total">    2.17    2.17</time>
   <energy>
    <i name="e_fr_energy">    -95.15304480 </i>
    <i name="e_wo_entrp">    -95.15378499 </i>
    <i name="e_0_energy">    -95.15322985 </i>
   </energy>
  </scstep>
  <scstep>
   <time name="diag">    0.37    0.37</time>
   <time name="diis">    1.55    1.55</time>
   <time name="orth">    0.04    0.04</time>
   <time name="total">    2.14    2.15</time>
   <energy>
    <i name="e_fr_energy">    -95.15139118 </i>
    <i name="e_wo_entrp">    -95.15195970 </i>
    <i name="e_0_energy">    -95.15153331 </i>
   </energy>
  </scstep>
  <scstep>
   <time name="diag">    3.79    7.60</time>
   <time name="diis">    1.56    1.62</time>
   <time name="orth">    0.04    0.04</time>
   <time name="total">    6.13   10.57</time>
   <energy>
    <i name="e_fr_energy">    -95.15157571 </i>
    <i name="e_wo_entrp">    -95.15206437 </i>
    <i name="e_0_energy">    -95.15169787 </i>
   </energy>
  </scstep>
  <scstep>
   <time name="diag">    0.37    0.37</time>
   <time name="diis">    1.08    1.08</time>
   <time name="orth">    0.04    0.04</time>
   <time name="total">    1.66    1.67</time>
   <energy>
    <i name="e_fr_energy">    -95.15145773 </i>
    <i name="e_wo_entrp">    -95.15200312 </i>
    <i name="e_0_energy">    -95.15159408 </i>
   </energy>
  </scstep>
  <scstep>
   <time name="diag">    0.37    0.37</time>
   <time name="diis">    1.04    1.04</time>
   <time name="orth">    0.04    0.04</time>
   <time name="total">    1.48    1.48</time>
   <energy>
    <i name="alphaZ">     72.55963857 </i>
    <i name="ewald">  -2204.55243650 </i>
    <i name="hartreedc">   -590.88747129 </i>
    <i name="XCdc">     56.53712711 </i>
    <i name="pawpsdc">   7013.48838797 </i>
    <i name="pawaedc">  -6881.38112153 </i>
    <i name="eentropy">      0.00056700 </i>
    <i name="bandstr">     27.70786954 </i>
    <i name="atom">   2411.37598431 </i>
    <i name="e_fr_energy">    -95.15145481 </i>
    <i name="e_wo_entrp">    -95.15202181 </i>
    <i name="e_0_energy">    -95.15159656 </i>
   </energy>
  </scstep>
  <structure>
   <crystal>
    <varray name="basis" >
     <v>       4.10045867      -7.10220274       0.00000000 </v>
     <v>       4.10045866       7.10220274       0.00000000 </v>
     <v>       0.00000000       0.00000000       2.88450932 </v>
    </varray>
    <i name="volume">    168.00702664 </i>
    <varray name="rec_basis" >
     <v>       0.12193758      -0.07040069       0.00000000 </v>
     <v>       0.12193758       0.07040069       0.00000000 </v>
     <v>       0.00000000       0.00000000       0.34667941 </v>
    </varray>
   </crystal>
   <varray name="positions" >
    <v>       0.18165235       0.84202805       0.75000000 </v>
    <v>       0.33962429       0.18165235       0.25000000 </v>
    <v>       0.84202805       0.66037571       0.25000000 </v>
[...]
       <r>   10.4607    0.0000 </r>
       <r>   11.5256    0.0000 </r>
       <r>   11.5256    0.0000 </r>
       <r>   11.6313    0.0000 </r>
       <r>   11.6313    0.0000 </r>
      </set>
      <set comment="kpoint 71">
       <r>   -8.1936    1.0000 </r>
       <r>   -8.1936    1.0000 </r>
       <r>   -8.0296    1.0000 </r>
       <r>   -8.0296    1.0000 </r>
       <r>   -7.9774    1.0000 </r>
       <r>   -7.9774    1.0000 </r>
       <r>   -2.0455    1.0000 </r>
       <r>   -2.0455    1.0000 </r>
       <r>   -1.5282    1.0000 </r>
       <r>   -1.5282    1.0000 </r>
       <r>   -1.0013    1.0000 </r>
       <r>   -1.0013    1.0000 </r>
       <r>    0.5250    1.0000 </r>
       <r>    0.5250    1.0000 </r>
       <r>    1.1342    1.0000 </r>
       <r>    1.1342    1.0000 </r>
       <r>    1.5088    1.0000 </r>
       <r>    1.5088    1.0000 </r>
       <r>    1.9617    1.0000 </r>
       <r>    1.9617    1.0000 </r>
       <r>    3.5638    1.0000 </r>
       <r>    3.5638    1.0000 </r>
       <r>    3.8713    1.0000 </r>
       <r>    3.8713    1.0000 </r>
       <r>    4.8626    1.0000 </r>
       <r>    4.8626    1.0000 </r>
       <r>    6.0193    1.0000 </r>
       <r>    6.0193    1.0000 </r>
       <r>    6.6088    1.0000 </r>
       <r>    6.6088    1.0000 </r>
       <r>    8.0136    1.0000 </r>
       <r>    8.0136    1.0000 </r>
       <r>    8.1484    1.0000 </r>
       <r>    8.1484    1.0000 </r>
       <r>   10.4824    0.0000 </r>
       <r>   10.4824    0.0000 </r>
       <r>   11.4211    0.0000 </r>
       <r>   11.4211    0.0000 </r>
       <r>   11.6992    0.0000 </r>
       <r>   11.6992    0.0000 </r>
      </set>
      <set comment="kpoint 72">
       <r>   -8.1843    1.0000 </r>
       <r>   -8.1843    1.0000 </r>
       <r>   -8.0384    1.0000 </r>
       <r>   -8.0384    1.0000 </r>
       <r>   -7.9786    1.0000 </r>
       <r>   -7.9786    1.0000 </r>
       <r>   -2.0710    1.0000 </r>
       <r>   -2.0710    1.0000 </r>
       <r>   -1.4706    1.0000 </r>
       <r>   -1.4706    1.0000 </r>
       <r>   -1.0163    1.0000 </r>
       <r>   -1.0163    1.0000 </r>
       <r>    0.5130    1.0000 </r>
       <r>    0.5130    1.0000 </r>
       <r>    1.1394    1.0000 </r>
       <r>    1.1394    1.0000 </r>
       <r>    1.5125    1.0000 </r>
       <r>    1.5125    1.0000 </r>
       <r>    1.9454    1.0000 </r>
       <r>    1.9454    1.0000 </r>
       <r>    3.5629    1.0000 </r>
       <r>    3.5629    1.0000 </r>
       <r>    3.8166    1.0000 </r>
       <r>    3.8166    1.0000 </r>
       <r>    4.8892    1.0000 </r>
       <r>    4.8892    1.0000 </r>
       <r>    5.9640    1.0000 </r>
       <r>    5.9640    1.0000 </r>
       <r>    6.8285    1.0000 </r>
       <r>    6.8285    1.0000 </r>
       <r>    7.9161    1.0000 </r>
       <r>    7.9161    1.0000 </r>
       <r>    8.1338    1.0000 </r>
       <r>    8.1338    1.0000 </r>
       <r>   10.3765    0.0000 </r>
       <r>   10.3765    0.0000 </r>
       <r>   11.5953    0.0000 </r>
       <r>   11.5953    0.0000 </r>
       <r>   11.6006    0.0000 </r>
       <r>   11.6006    0.0000 </r>
      </set>
     </set>
    </set>
   </array>
  </eigenvalues>
  <separator name="orbital magnetization" >
   <v name="MAGDIPOLOUT">      0.00000000      0.00000000      0.00000000</v>
  </separator>
  <dos>
   <i name="efermi">      8.64582526 </i>
   <total>
    <array>
     <dimension dim="1">gridpoints</dimension>
     <dimension dim="2">spin</dimension>
     <field>energy</field>
     <field>total</field>
     <field>integrated</field>
     <set>
      <set comment="spin 1">
       <r>   -11.7474     0.0000     0.0000 </r>
       <r>   -11.6597     0.0000     0.0000 </r>
       <r>   -11.5720     0.0000     0.0000 </r>
       <r>   -11.4843     0.0000     0.0000 </r>
       <r>   -11.3966     0.0000     0.0000 </r>
       <r>   -11.3089     0.0000     0.0000 </r>
       <r>   -11.2212     0.0000     0.0000 </r>
       <r>   -11.1335     0.0000     0.0000 </r>
       <r>   -11.0458     0.0000     0.0000 </r>
       <r>   -10.9582     0.0000     0.0000 </r>
       <r>   -10.8705     0.0000     0.0000 </r>
       <r>   -10.7828     0.0005     0.0000 </r>
       <r>   -10.6951     0.0023     0.0002 </r>
       <r>   -10.6074    -0.0205    -0.0016 </r>
       <r>   -10.5197     0.1635     0.0128 </r>
       <r>   -10.4320     0.7794     0.0811 </r>
       <r>   -10.3443     1.3000     0.1951 </r>
       <r>   -10.2566     2.0619     0.3759 </r>
       <r>   -10.1689     1.5628     0.5130 </r>
       <r>   -10.0813     1.6198     0.6550 </r>
       <r>    -9.9936     2.4678     0.8714 </r>
       <r>    -9.9059     2.7841     1.1155 </r>
       <r>    -9.8182     4.4390     1.5048 </r>
       <r>    -9.7305     4.2859     1.8806 </r>
       <r>    -9.6428     4.2083     2.2497 </r>
       <r>    -9.5551     3.2761     2.5369 </r>
       <r>    -9.4674     1.9117     2.7046 </r>
       <r>    -9.3797     2.9504     2.9633 </r>
       <r>    -9.2920     2.3201     3.1667 </r>
       <r>    -9.2044     2.6312     3.3975 </r>
       <r>    -9.1167     2.3201     3.6009 </r>
       <r>    -9.0290     1.2978     3.7147 </r>
       <r>    -8.9413     3.8235     4.0500 </r>
       <r>    -8.8536     6.1882     4.5926 </r>
       <r>    -8.7659     6.4580     5.1589 </r>
       <r>    -8.6782     4.9651     5.5943 </r>
       <r>    -8.5905     5.2777     6.0571 </r>
       <r>    -8.5028     5.5208     6.5413 </r>
       <r>    -8.4152     5.7312     7.0438 </r>
       <r>    -8.3275     2.9114     7.2991 </r>
       <r>    -8.2398     6.5295     7.8717 </r>
       <r>    -8.1521     7.5870     8.5370 </r>
       <r>    -8.0644     7.5636     9.2002 </r>
       <r>    -7.9767    10.9642    10.1617 </r>
       <r>    -7.8890     8.4839    10.9056 </r>
       <r>    -7.8013     5.1180    11.3544 </r>
       <r>    -7.7136     4.4848    11.7477 </r>
       <r>    -7.6259     2.8359    11.9964 </r>
       <r>    -7.5383     0.0768    12.0031 </r>
       <r>    -7.4506    -0.0473    11.9990 </r>
       <r>    -7.3629     0.0114    12.0000 </r>
       <r>    -7.2752     0.0004    12.0000 </r>
       <r>    -7.1875     0.0000    12.0000 </r>
       <r>    -7.0998     0.0000    12.0000 </r>
       <r>    -7.0121     0.0000    12.0000 </r>
       <r>    -6.9244     0.0000    12.0000 </r>
       <r>    -6.8367     0.0000    12.0000 </r>
       <r>    -6.7491     0.0000    12.0000 </r>
       <r>    -6.6614     0.0000    12.0000 </r>
       <r>    -6.5737     0.0000    12.0000 </r>
       <r>    -6.4860     0.0000    12.0000 </r>
       <r>    -6.3983     0.0000    12.0000 </r>
       <r>    -6.3106     0.0000    12.0000 </r>
       <r>    -6.2229     0.0000    12.0000 </r>
       <r>    -6.1352     0.0000    12.0000 </r>
       <r>    -6.0475     0.0000    12.0000 </r>
       <r>    -5.9598     0.0000    12.0000 </r>
       <r>    -5.8722     0.0000    12.0000 </r>
       <r>    -5.7845     0.0000    12.0000 </r>
       <r>    -5.6968     0.0000    12.0000 </r>
       <r>    -5.6091     0.0000    12.0000 </r>
       <r>    -5.5214     0.0000    12.0000 </r>
       <r>    -5.4337     0.0000    12.0000 </r>
       <r>    -5.3460     0.0000    12.0000 </r>
       <r>    -5.2583     0.0000    12.0000 </r>
       <r>    -5.1706     0.0000    12.0000 </r>
       <r>    -5.0830     0.0000    12.0000 </r>
       <r>    -4.9953     0.0000    12.0000 </r>
       <r>    -4.9076     0.0000    12.0000 </r>
       <r>    -4.8199     0.0000    12.0000 </r>
       <r>    -4.7322     0.0000    12.0000 </r>
       <r>    -4.6445     0.0000    12.0000 </r>
       <r>    -4.5568     0.0000    12.0000 </r>
       <r>    -4.4691     0.0000    12.0000 </r>
       <r>    -4.3814     0.0000    12.0000 </r>
       <r>    -4.2937     0.0000    12.0000 </r>
       <r>    -4.2061     0.0000    12.0000 </r>
       <r>    -4.1184     0.0000    12.0000 </r>
       <r>    -4.0307     0.0000    12.0000 </r>
       <r>    -3.9430     0.0000    12.0000 </r>
       <r>    -3.8553     0.0000    12.0000 </r>
       <r>    -3.7676     0.0000    12.0000 </r>
       <r>    -3.6799     0.0000    12.0000 </r>
       <r>    -3.5922     0.0000    12.0000 </r>
       <r>    -3.5045     0.0000    12.0000 </r>
       <r>    -3.4168     0.0002    12.0000 </r>
       <r>    -3.3292     0.0027    12.0003 </r>
       <r>    -3.2415    -0.0113    11.9993 </r>
       <r>    -3.1538     0.0331    12.0022 </r>
       <r>    -3.0661     0.9320    12.0839 </r>
       <r>    -2.9784     1.1043    12.1807 </r>
       <r>    -2.8907     1.3879    12.3024 </r>
       <r>    -2.8030     1.3563    12.4214 </r>
       <r>    -2.7153     0.6218    12.4759 </r>
       <r>    -2.6276     1.3614    12.5953 </r>
       <r>    -2.5400     1.0007    12.6830 </r>
       <r>    -2.4523     0.8568    12.7582 </r>
       <r>    -2.3646     0.9392    12.8405 </r>
       <r>    -2.2769     0.9957    12.9278 </r>
       <r>    -2.1892     1.2396    13.0365 </r>
       <r>    -2.1015     1.3889    13.1583 </r>
       <r>    -2.0138     5.1835    13.6129 </r>
       <r>    -1.9261     7.6001    14.2793 </r>
       <r>    -1.8384     7.3345    14.9225 </r>
       <r>    -1.7507     7.4004    15.5714 </r>
       <r>    -1.6631     8.3716    16.3055 </r>
       <r>    -1.5754     6.2689    16.8552 </r>
       <r>    -1.4877     5.0108    17.2946 </r>
       <r>    -1.4000     4.4003    17.6805 </r>
       <r>    -1.3123     6.5341    18.2535 </r>
       <r>    -1.2246     5.7716    18.7596 </r>
       <r>    -1.1369     5.6941    19.2589 </r>
       <r>    -1.0492     4.8899    19.6877 </r>
       <r>    -0.9615     6.1721    20.2289 </r>
       <r>    -0.8739     4.6011    20.6324 </r>
       <r>    -0.7862     5.2256    21.0906 </r>
       <r>    -0.6985     4.2670    21.4648 </r>
       <r>    -0.6108     2.5971    21.6925 </r>
       <r>    -0.5231     4.1391    22.0555 </r>
       <r>    -0.4354     1.7160    22.2059 </r>
       <r>    -0.3477     0.6178    22.2601 </r>
       <r>    -0.2600     1.6211    22.4023 </r>
       <r>    -0.1723     3.9776    22.7510 </r>
       <r>    -0.0846     4.0623    23.1073 </r>
       <r>     0.0030     1.4731    23.2364 </r>
       <r>     0.0907     1.7775    23.3923 </r>
       <r>     0.1784     4.0937    23.7513 </r>
       <r>     0.2661     3.4568    24.0544 </r>
       <r>     0.3538     3.0856    24.3250 </r>
       <r>     0.4415     3.9767    24.6737 </r>
       <r>     0.5292     6.9485    25.2830 </r>
       <r>     0.6169     4.5174    25.6791 </r>
       <r>     0.7046     2.0821    25.8617 </r>
       <r>     0.7922     3.9704    26.2099 </r>
       <r>     0.8799     5.2644    26.6715 </r>
       <r>     0.9676     6.0187    27.1993 </r>
       <r>     1.0553     5.8622    27.7133 </r>
       <r>     1.1430     8.7872    28.4839 </r>
       <r>     1.2307     6.3490    29.0406 </r>
       <r>     1.3184     5.6879    29.5394 </r>
       <r>     1.4061     5.6623    30.0359 </r>
       <r>     1.4938     5.7660    30.5415 </r>
       <r>     1.5815     6.2499    31.0896 </r>
       <r>     1.6691     5.4987    31.5718 </r>
       <r>     1.7568     5.1287    32.0215 </r>
       <r>     1.8445     3.7096    32.3468 </r>
       <r>     1.9322     4.9724    32.7828 </r>
       <r>     2.0199     8.1774    33.4999 </r>
       <r>     2.1076     8.0878    34.2091 </r>
       <r>     2.1953     6.3140    34.7628 </r>
       <r>     2.2830     5.2956    35.2272 </r>
       <r>     2.3707     4.4318    35.6158 </r>
       <r>     2.4584     4.4433    36.0054 </r>
       <r>     2.5460     6.5317    36.5782 </r>
       <r>     2.6337     5.7377    37.0813 </r>
       <r>     2.7214     4.9173    37.5125 </r>
       <r>     2.8091     7.6234    38.1810 </r>
       <r>     2.8968     5.7860    38.6884 </r>
       <r>     2.9845     6.4995    39.2583 </r>
       <r>     3.0722     5.6932    39.7575 </r>
       <r>     3.1599     5.1592    40.2099 </r>
       <r>     3.2476     4.6967    40.6218 </r>
       <r>     3.3352     5.2517    41.0823 </r>
       <r>     3.4229     5.8796    41.5979 </r>
       <r>     3.5106     6.0754    42.1306 </r>
       <r>     3.5983     9.9494    43.0031 </r>
       <r>     3.6860     9.0178    43.7939 </r>
       <r>     3.7737     5.8200    44.3042 </r>
       <r>     3.8614     7.5635    44.9675 </r>
       <r>     3.9491     7.2661    45.6046 </r>
       <r>     4.0368     4.8608    46.0309 </r>
       <r>     4.1245     7.0500    46.6491 </r>
       <r>     4.2121     5.2386    47.1084 </r>
       <r>     4.2998     3.4690    47.4126 </r>
       <r>     4.3875     4.7349    47.8278 </r>
       <r>     4.4752     0.7745    47.8957 </r>
       <r>     4.5629     0.1671    47.9104 </r>
       <r>     4.6506     1.2487    48.0199 </r>
       <r>     4.7383     2.6007    48.2479 </r>
       <r>     4.8260     4.4125    48.6349 </r>
       <r>     4.9137     3.5683    48.9478 </r>
       <r>     5.0013     2.1505    49.1364 </r>
       <r>     5.0890     2.2326    49.3321 </r>
       <r>     5.1767     3.4358    49.6334 </r>
       <r>     5.2644     3.3365    49.9260 </r>
       <r>     5.3521     1.5163    50.0590 </r>
       <r>     5.4398     2.8615    50.3099 </r>
       <r>     5.5275     4.0369    50.6639 </r>
       <r>     5.6152     3.0768    50.9337 </r>
       <r>     5.7029     6.1121    51.4697 </r>
       <r>     5.7906     8.8582    52.2464 </r>
       <r>     5.8782     7.7207    52.9234 </r>
       <r>     5.9659     8.9588    53.7090 </r>
       <r>     6.0536     8.4734    54.4521 </r>
       <r>     6.1413     6.1677    54.9929 </r>
       <r>     6.2290     5.7226    55.4947 </r>
       <r>     6.3167     4.9911    55.9324 </r>
       <r>     6.4044     5.8551    56.4458 </r>
       <r>     6.4921     6.3363    57.0015 </r>
       <r>     6.5798     1.7829    57.1578 </r>
       <r>     6.6674     1.0052    57.2459 </r>
       <r>     6.7551     0.8414    57.3197 </r>
       <r>     6.8428     1.8512    57.4820 </r>
       <r>     6.9305     2.8043    57.7280 </r>
       <r>     7.0182     2.4406    57.9420 </r>
       <r>     7.1059     1.4649    58.0704 </r>
       <r>     7.1936     1.5272    58.2043 </r>
       <r>     7.2813     1.5415    58.3395 </r>
       <r>     7.3690     1.1687    58.4420 </r>
       <r>     7.4567     0.8920    58.5202 </r>
       <r>     7.5443     1.4559    58.6479 </r>
       <r>     7.6320     0.9753    58.7334 </r>
       <r>     7.7197     1.8172    58.8928 </r>
       <r>     7.8074     2.4036    59.1035 </r>
       <r>     7.8951     2.5488    59.3270 </r>
       <r>     7.9828     2.8149    59.5739 </r>
       <r>     8.0705     4.3235    59.9530 </r>
       <r>     8.1582     3.2068    60.2342 </r>
       <r>     8.2459     3.5701    60.5473 </r>
       <r>     8.3336     4.6316    60.9534 </r>
       <r>     8.4212     2.4594    61.1691 </r>
       <r>     8.5089     1.8526    61.3315 </r>
       <r>     8.5966     4.7626    61.7491 </r>
       <r>     8.6843     4.8404    62.1736 </r>
       <r>     8.7720     5.4865    62.6547 </r>
       <r>     8.8597     6.0546    63.1856 </r>
       <r>     8.9474     2.9427    63.4437 </r>
       <r>     9.0351     1.8187    63.6031 </r>
       <r>     9.1228     1.8861    63.7685 </r>
       <r>     9.2104     1.8406    63.9299 </r>
       <r>     9.2981     1.8568    64.0928 </r>
       <r>     9.3858     0.8967    64.1714 </r>
       <r>     9.4735     1.7005    64.3205 </r>
       <r>     9.5612     2.1249    64.5068 </r>
       <r>     9.6489     4.5347    64.9045 </r>
       <r>     9.7366     4.5475    65.3033 </r>
       <r>     9.8243     3.0280    65.5688 </r>
       <r>     9.9120     3.2918    65.8574 </r>
       <r>     9.9997     3.2829    66.1453 </r>
       <r>    10.0873     4.5197    66.5416 </r>
       <r>    10.1750     4.1510    66.9056 </r>
       <r>    10.2627     2.9650    67.1656 </r>
       <r>    10.3504     2.2895    67.3664 </r>
       <r>    10.4381     5.0441    67.8087 </r>
       <r>    10.5258     5.5751    68.2976 </r>
       <r>    10.6135     2.0253    68.4752 </r>
       <r>    10.7012     2.9042    68.7299 </r>
       <r>    10.7889     3.9169    69.0733 </r>
       <r>    10.8765     4.5615    69.4733 </r>
       <r>    10.9642     3.2852    69.7614 </r>
       <r>    11.0519     3.3619    70.0562 </r>
       <r>    11.1396     3.5101    70.3640 </r>
       <r>    11.2273     4.4394    70.7533 </r>
       <r>    11.3150     4.5862    71.1555 </r>
       <r>    11.4027     5.7918    71.6634 </r>
       <r>    11.4904     6.4414    72.2282 </r>
       <r>    11.5781     5.5389    72.7139 </r>
       <r>    11.6658     9.5511    73.5514 </r>
       <r>    11.7534     9.3403    74.3705 </r>
       <r>    11.8411     6.5557    74.9453 </r>
       <r>    11.9288     4.5902    75.3479 </r>
       <r>    12.0165     4.8499    75.7731 </r>
       <r>    12.1042     4.4183    76.1606 </r>
       <r>    12.1919     3.8296    76.4964 </r>
       <r>    12.2796     3.4739    76.8010 </r>
       <r>    12.3673     3.7871    77.1331 </r>
       <r>    12.4550     4.3636    77.5157 </r>
       <r>    12.5426     5.0474    77.9583 </r>
       <r>    12.6303     4.2988    78.3353 </r>
       <r>    12.7180     4.5434    78.7337 </r>
       <r>    12.8057     3.6154    79.0508 </r>
       <r>    12.8934     3.2871    79.3390 </r>
       <r>    12.9811     2.6137    79.5682 </r>
       <r>    13.0688     2.1807    79.7594 </r>
       <r>    13.1565     1.2486    79.8689 </r>
       <r>    13.2442     0.8575    79.9441 </r>
       <r>    13.3319     0.4100    79.9801 </r>
       <r>    13.4195     0.2340    80.0006 </r>
       <r>    13.5072    -0.0055    80.0001 </r>
       <r>    13.5949    -0.0019    79.9999 </r>
       <r>    13.6826     0.0008    80.0000 </r>
       <r>    13.7703     0.0000    80.0000 </r>
       <r>    13.8580     0.0000    80.0000 </r>
       <r>    13.9457     0.0000    80.0000 </r>
       <r>    14.0334     0.0000    80.0000 </r>
       <r>    14.1211     0.0000    80.0000 </r>
       <r>    14.2088     0.0000    80.0000 </r>
       <r>    14.2964     0.0000    80.0000 </r>
       <r>    14.3841     0.0000    80.0000 </r>
       <r>    14.4718     0.0000    80.0000 </r>
       <r>    14.5595     0.0000    80.0000 </r>
      </set>
     </set>
    </array>
   </total>
  </dos>
 </calculation>
 <structure name="finalpos" >
  <crystal>
   <varray name="basis" >
    <v>       4.10045867      -7.10220274       0.00000000 </v>
    <v>       4.10045866       7.10220274       0.00000000 </v>
    <v>       0.00000000       0.00000000       2.88450932 </v>
   </varray>
   <i name="volume">    168.00702664 </i>
   <varray name="rec_basis" >
    <v>       0.12193758      -0.07040069       0.00000000 </v>
    <v>       0.12193758       0.07040069       0.00000000 </v>
    <v>       0.00000000       0.00000000       0.34667941 </v>
   </varray>
  </crystal>
  <varray name="positions" >
   <v>       0.19129266       0.84821356       0.75000000 </v>
   <v>       0.34307911       0.19129266       0.25000000 </v>
   <v>       0.84821356       0.65692089       0.25000000 </v>
   <v>       0.15178644       0.34307911       0.75000000 </v>
   <v>       0.65692089       0.80870734       0.75000000 </v>
   <v>       0.80870734       0.15178644       0.25000000 </v>
   <v>       0.33333333       0.66666667       0.75000000 </v>
   <v>       0.66666667       0.33333333       0.25000000 </v>
   <v>       0.96712044       0.63329027       0.75000000 </v>
   <v>       0.33383017       0.96712044       0.25000000 </v>
   <v>       0.63329027       0.66616983       0.25000000 </v>
   <v>       0.36670973       0.33383017       0.75000000 </v>
   <v>       0.03287956       0.36670973       0.25000000 </v>
   <v>       0.66616983       0.03287956       0.75000000 </v>
  </varray>
 </structure>
</modeling>
