unknown system                          
           1
     4.100459   -7.102203    0.000000
     4.100459    7.102203    0.000000
     0.000000    0.000000    2.884509
   Si   N 
   6   8
Direct configuration=     1
   0.19708959  0.83151770  0.75000000
   0.36557189  0.19708959  0.25000000
   0.83151770  0.63442811  0.25000000
   0.16848230  0.36557189  0.75000000
   0.63442811  0.80291041  0.75000000
   0.80291041  0.16848230  0.25000000
   0.33333333  0.66666667  0.75000000
   0.66666667  0.33333333  0.25000000
   0.96358754  0.61246345  0.75000000
   0.35112409  0.96358754  0.25000000
   0.61246345  0.64887591  0.25000000
   0.38753655  0.35112409  0.75000000
   0.03641246  0.38753655  0.25000000
   0.64887591  0.03641246  0.75000000
Direct configuration=     2
   0.19884982  0.83115062  0.75000000
   0.36769920  0.19884982  0.25000000
   0.83115062  0.63230080  0.25000000
   0.16884938  0.36769920  0.75000000
   0.63230080  0.80115018  0.75000000
   0.80115018  0.16884938  0.25000000
   0.33333333  0.66666667  0.75000000
   0.66666667  0.33333333  0.25000000
   0.96286900  0.61530725  0.75000000
   0.34756175  0.96286900  0.25000000
   0.61530725  0.65243825  0.25000000
   0.38469275  0.34756175  0.75000000
   0.03713100  0.38469275  0.25000000
   0.65243825  0.03713100  0.75000000
Direct configuration=     3
   0.19844165  0.83123574  0.75000000
   0.36720591  0.19844165  0.25000000
   0.83123574  0.63279409  0.25000000
   0.16876426  0.36720591  0.75000000
   0.63279409  0.80155835  0.75000000
   0.80155835  0.16876426  0.25000000
   0.33333333  0.66666667  0.75000000
   0.66666667  0.33333333  0.25000000
   0.96303562  0.61464782  0.75000000
   0.34838780  0.96303562  0.25000000
   0.61464782  0.65161220  0.25000000
   0.38535218  0.34838780  0.75000000
   0.03696438  0.38535218  0.25000000
   0.65161220  0.03696438  0.75000000
Direct configuration=     4
   0.19787361  0.83098694  0.75000000
   0.36688667  0.19787361  0.25000000
   0.83098694  0.63311333  0.25000000
   0.16901306  0.36688667  0.75000000
   0.63311333  0.80212639  0.75000000
   0.80212639  0.16901306  0.25000000
   0.33333333  0.66666667  0.75000000
   0.66666667  0.33333333  0.25000000
   0.96328890  0.61521964  0.75000000
   0.34806926  0.96328890  0.25000000
   0.61521964  0.65193074  0.25000000
   0.38478036  0.34806926  0.75000000
   0.03671110  0.38478036  0.25000000
   0.65193074  0.03671110  0.75000000
Direct configuration=     5
   0.19760574  0.83086961  0.75000000
   0.36673613  0.19760574  0.25000000
   0.83086961  0.63326387  0.25000000
   0.16913039  0.36673613  0.75000000
   0.63326387  0.80239426  0.75000000
   0.80239426  0.16913039  0.25000000
   0.33333333  0.66666667  0.75000000
   0.66666667  0.33333333  0.25000000
   0.96340834  0.61548930  0.75000000
   0.34791904  0.96340834  0.25000000
   0.61548930  0.65208096  0.25000000
   0.38451070  0.34791904  0.75000000
   0.03659166  0.38451070  0.25000000
   0.65208096  0.03659166  0.75000000
Direct configuration=     6
   0.19725893  0.83111218  0.75000000
   0.36614674  0.19725893  0.25000000
   0.83111218  0.63385326  0.25000000
   0.16888782  0.36614674  0.75000000
   0.63385326  0.80274107  0.75000000
   0.80274107  0.16888782  0.25000000
   0.33333333  0.66666667  0.75000000
   0.66666667  0.33333333  0.25000000
   0.96326045  0.61580447  0.75000000
   0.34745598  0.96326045  0.25000000
   0.61580447  0.65254402  0.25000000
   0.38419553  0.34745598  0.75000000
   0.03673955  0.38419553  0.25000000
   0.65254402  0.03673955  0.75000000
Direct configuration=     7
   0.19621849  0.83183991  0.75000000
   0.36437858  0.19621849  0.25000000
   0.83183991  0.63562142  0.25000000
   0.16816009  0.36437858  0.75000000
   0.63562142  0.80378151  0.75000000
   0.80378151  0.16816009  0.25000000
   0.33333333  0.66666667  0.75000000
   0.66666667  0.33333333  0.25000000
   0.96281675  0.61674998  0.75000000
   0.34606677  0.96281675  0.25000000
   0.61674998  0.65393323  0.25000000
   0.38325002  0.34606677  0.75000000
   0.03718325  0.38325002  0.25000000
   0.65393323  0.03718325  0.75000000
Direct configuration=     8
   0.19413761  0.83329536  0.75000000
   0.36084225  0.19413761  0.25000000
   0.83329536  0.63915775  0.25000000
   0.16670464  0.36084225  0.75000000
   0.63915775  0.80586239  0.75000000
   0.80586239  0.16670464  0.25000000
   0.33333333  0.66666667  0.75000000
   0.66666667  0.33333333  0.25000000
   0.96192936  0.61864100  0.75000000
   0.34328836  0.96192936  0.25000000
   0.61864100  0.65671164  0.25000000
   0.38135900  0.34328836  0.75000000
   0.03807064  0.38135900  0.25000000
   0.65671164  0.03807064  0.75000000
Direct configuration=     9
   0.18997586  0.83620626  0.75000000
   0.35376960  0.18997586  0.25000000
   0.83620626  0.64623040  0.25000000
   0.16379374  0.35376960  0.75000000
   0.64623040  0.81002414  0.75000000
   0.81002414  0.16379374  0.25000000
   0.33333333  0.66666667  0.75000000
   0.66666667  0.33333333  0.25000000
   0.96015459  0.62242304  0.75000000
   0.33773154  0.96015459  0.25000000
   0.62242304  0.66226846  0.25000000
   0.37757696  0.33773154  0.75000000
   0.03984541  0.37757696  0.25000000
   0.66226846  0.03984541  0.75000000
Direct configuration=    10
   0.18165235  0.84202805  0.75000000
   0.33962429  0.18165235  0.25000000
   0.84202805  0.66037571  0.25000000
   0.15797195  0.33962429  0.75000000
   0.66037571  0.81834765  0.75000000
   0.81834765  0.15797195  0.25000000
   0.33333333  0.66666667  0.75000000
   0.66666667  0.33333333  0.25000000
   0.95660504  0.62998713  0.75000000
   0.32661790  0.95660504  0.25000000
   0.62998713  0.67338210  0.25000000
   0.37001287  0.32661790  0.75000000
   0.04339496  0.37001287  0.25000000
   0.67338210  0.04339496  0.75000000
Direct configuration=    11
   0.18626689  0.83880046  0.75000000
   0.34746643  0.18626689  0.25000000
   0.83880046  0.65253357  0.25000000
   0.16119954  0.34746643  0.75000000
   0.65253357  0.81373311  0.75000000
   0.81373311  0.16119954  0.25000000
   0.33333333  0.66666667  0.75000000
   0.66666667  0.33333333  0.25000000
   0.95857290  0.62579361  0.75000000
   0.33277929  0.95857290  0.25000000
   0.62579361  0.66722071  0.25000000
   0.37420639  0.33277929  0.75000000
   0.04142710  0.37420639  0.25000000
   0.66722071  0.04142710  0.75000000
Direct configuration=    12
   0.18854122  0.84044310  0.75000000
   0.34809812  0.18854122  0.25000000
   0.84044310  0.65190188  0.25000000
   0.15955690  0.34809812  0.75000000
   0.65190188  0.81145878  0.75000000
   0.81145878  0.15955690  0.25000000
   0.33333333  0.66666667  0.75000000
   0.66666667  0.33333333  0.25000000
   0.95962056  0.62808162  0.75000000
   0.33153894  0.95962056  0.25000000
   0.62808162  0.66846106  0.25000000
   0.37191838  0.33153894  0.75000000
   0.04037944  0.37191838  0.25000000
   0.66846106  0.04037944  0.75000000
Direct configuration=    13
   0.18788596  0.83996984  0.75000000
   0.34791612  0.18788596  0.25000000
   0.83996984  0.65208388  0.25000000
   0.16003016  0.34791612  0.75000000
   0.65208388  0.81211404  0.75000000
   0.81211404  0.16003016  0.25000000
   0.33333333  0.66666667  0.75000000
   0.66666667  0.33333333  0.25000000
   0.95931872  0.62742242  0.75000000
   0.33189630  0.95931872  0.25000000
   0.62742242  0.66810370  0.25000000
   0.37257758  0.33189630  0.75000000
   0.04068128  0.37257758  0.25000000
   0.66810370  0.04068128  0.75000000
Direct configuration=    14
   0.18847510  0.84128008  0.75000000
   0.34719502  0.18847510  0.25000000
   0.84128008  0.65280498  0.25000000
   0.15871992  0.34719502  0.75000000
   0.65280498  0.81152490  0.75000000
   0.81152490  0.15871992  0.25000000
   0.33333333  0.66666667  0.75000000
   0.66666667  0.33333333  0.25000000
   0.96124868  0.62897720  0.75000000
   0.33227148  0.96124868  0.25000000
   0.62897720  0.66772852  0.25000000
   0.37102280  0.33227148  0.75000000
   0.03875132  0.37102280  0.25000000
   0.66772852  0.03875132  0.75000000
Direct configuration=    15
   0.18950231  0.84356459  0.75000000
   0.34593772  0.18950231  0.25000000
   0.84356459  0.65406228  0.25000000
   0.15643541  0.34593772  0.75000000
   0.65406228  0.81049769  0.75000000
   0.81049769  0.15643541  0.25000000
   0.33333333  0.66666667  0.75000000
   0.66666667  0.33333333  0.25000000
   0.96461373  0.63168809  0.75000000
   0.33292564  0.96461373  0.25000000
   0.63168809  0.66707436  0.25000000
   0.36831191  0.33292564  0.75000000
   0.03538627  0.36831191  0.25000000
   0.66707436  0.03538627  0.75000000
Direct configuration=    16
   0.19011530  0.84490423  0.75000000
   0.34521107  0.19011530  0.25000000
   0.84490423  0.65478893  0.25000000
   0.15509577  0.34521107  0.75000000
   0.65478893  0.80988470  0.75000000
   0.80988470  0.15509577  0.25000000
   0.33333333  0.66666667  0.75000000
   0.66666667  0.33333333  0.25000000
   0.96539461  0.63216810  0.75000000
   0.33322651  0.96539461  0.25000000
   0.63216810  0.66677349  0.25000000
   0.36783190  0.33322651  0.75000000
   0.03460539  0.36783190  0.25000000
   0.66677349  0.03460539  0.75000000
Direct configuration=    17
   0.19166247  0.84828545  0.75000000
   0.34337702  0.19166247  0.25000000
   0.84828545  0.65662298  0.25000000
   0.15171455  0.34337702  0.75000000
   0.65662298  0.80833753  0.75000000
   0.80833753  0.15171455  0.25000000
   0.33333333  0.66666667  0.75000000
   0.66666667  0.33333333  0.25000000
   0.96736555  0.63337965  0.75000000
   0.33398590  0.96736555  0.25000000
   0.63337965  0.66601410  0.25000000
   0.36662035  0.33398590  0.75000000
   0.03263445  0.36662035  0.25000000
   0.66601410  0.03263445  0.75000000
Direct configuration=    18
   0.19157002  0.84826748  0.75000000
   0.34330254  0.19157002  0.25000000
   0.84826748  0.65669746  0.25000000
   0.15173252  0.34330254  0.75000000
   0.65669746  0.80842998  0.75000000
   0.80842998  0.15173252  0.25000000
   0.33333333  0.66666667  0.75000000
   0.66666667  0.33333333  0.25000000
   0.96730427  0.63335730  0.75000000
   0.33394697  0.96730427  0.25000000
   0.63335730  0.66605303  0.25000000
   0.36664270  0.33394697  0.75000000
   0.03269573  0.36664270  0.25000000
   0.66605303  0.03269573  0.75000000
Direct configuration=    19
   0.19129266  0.84821356  0.75000000
   0.34307911  0.19129266  0.25000000
   0.84821356  0.65692089  0.25000000
   0.15178644  0.34307911  0.75000000
   0.65692089  0.80870734  0.75000000
   0.80870734  0.15178644  0.25000000
   0.33333333  0.66666667  0.75000000
   0.66666667  0.33333333  0.25000000
   0.96712044  0.63329027  0.75000000
   0.33383017  0.96712044  0.25000000
   0.63329027  0.66616983  0.25000000
   0.36670973  0.33383017  0.75000000
   0.03287956  0.36670973  0.25000000
   0.66616983  0.03287956  0.75000000
