  14  14   0   0
  0.9716312E+01  0.7643574E-09  0.7643574E-09  0.2688475E-09  0.5000000E-15
  1.000000000000000E-004
  CAR 
 unknown system                          
     18.50476352    -11.02628129  301     11.53098180      1.00000000
    -11.026  0.0000E+00  0.0000E+00
    -10.928  0.0000E+00  0.0000E+00
    -10.829  0.0000E+00  0.0000E+00
    -10.731  0.0000E+00  0.0000E+00
    -10.633  0.0000E+00  0.0000E+00
    -10.534  0.8263E-33  0.8134E-34
    -10.436  0.3989E-26  0.3927E-27
    -10.337  0.2634E-20  0.2592E-21
    -10.239  0.2356E-15  0.2319E-16
    -10.140  0.2814E-11  0.2770E-12
    -10.042  0.4433E-08  0.4366E-09
     -9.943  0.8725E-06  0.8632E-07
     -9.845  0.1332E-04  0.1397E-05
     -9.747 -0.9993E-04 -0.8440E-05
     -9.648  0.9824E-03  0.8827E-04
     -9.550  0.4909E-02  0.5714E-03
     -9.451  0.7707E-02  0.1330E-02
     -9.353  0.1004E-01  0.2318E-02
     -9.254  0.1141E-01  0.3442E-02
     -9.156  0.1359E-01  0.4780E-02
     -9.058  0.1438E-01  0.6195E-02
     -8.959  0.1392E-01  0.7565E-02
     -8.861  0.1670E-01  0.9210E-02
     -8.762  0.2253E-01  0.1143E-01
     -8.664  0.1908E-01  0.1331E-01
     -8.565  0.2705E-01  0.1597E-01
     -8.467  0.2654E-01  0.1858E-01
     -8.368  0.3616E-01  0.2214E-01
     -8.270  0.2586E-01  0.2469E-01
     -8.172  0.2564E-01  0.2721E-01
     -8.073  0.2236E-01  0.2941E-01
     -7.975  0.1730E-01  0.3111E-01
     -7.876  0.2623E-01  0.3369E-01
     -7.778  0.3927E-01  0.3756E-01
     -7.679  0.3849E-01  0.4135E-01
     -7.581  0.2797E-01  0.4410E-01
     -7.483  0.3215E-01  0.4727E-01
     -7.384  0.4948E-01  0.5214E-01
     -7.286  0.4749E-01  0.5681E-01
     -7.187  0.4619E-01  0.6136E-01
     -7.089  0.3357E-01  0.6466E-01
     -6.990  0.4337E-01  0.6893E-01
     -6.892  0.5495E-01  0.7434E-01
     -6.793  0.4478E-01  0.7875E-01
     -6.695  0.6270E-01  0.8492E-01
     -6.597  0.5822E-01  0.9065E-01
     -6.498  0.3956E-01  0.9455E-01
     -6.400  0.4241E-01  0.9872E-01
     -6.301  0.5349E-01  0.1040E+00
     -6.203  0.5345E-01  0.1092E+00
     -6.104  0.6695E-01  0.1158E+00
     -6.006  0.2785E-01  0.1186E+00
     -5.908  0.1520E-01  0.1201E+00
     -5.809 -0.8627E-03  0.1200E+00
     -5.711  0.6165E-04  0.1200E+00
     -5.612  0.1792E-04  0.1200E+00
     -5.514  0.1270E-06  0.1200E+00
     -5.415  0.9595E-10  0.1200E+00
     -5.317  0.9079E-14  0.1200E+00
     -5.219  0.0000E+00  0.1200E+00
     -5.120  0.0000E+00  0.1200E+00
     -5.022  0.0000E+00  0.1200E+00
     -4.923  0.0000E+00  0.1200E+00
     -4.825  0.0000E+00  0.1200E+00
     -4.726  0.0000E+00  0.1200E+00
     -4.628  0.0000E+00  0.1200E+00
     -4.529  0.0000E+00  0.1200E+00
     -4.431  0.0000E+00  0.1200E+00
     -4.333  0.0000E+00  0.1200E+00
     -4.234  0.0000E+00  0.1200E+00
     -4.136  0.0000E+00  0.1200E+00
     -4.037  0.0000E+00  0.1200E+00
     -3.939  0.0000E+00  0.1200E+00
     -3.840  0.0000E+00  0.1200E+00
     -3.742  0.0000E+00  0.1200E+00
     -3.644  0.0000E+00  0.1200E+00
     -3.545  0.0000E+00  0.1200E+00
     -3.447  0.0000E+00  0.1200E+00
     -3.348  0.0000E+00  0.1200E+00
     -3.250  0.0000E+00  0.1200E+00
     -3.151  0.3449E-33  0.1200E+00
     -3.053  0.2282E-26  0.1200E+00
     -2.954  0.2055E-20  0.1200E+00
     -2.856  0.2477E-15  0.1200E+00
     -2.758  0.3862E-11  0.1200E+00
     -2.659  0.7369E-08  0.1200E+00
     -2.561  0.1516E-05  0.1200E+00
     -2.462  0.1751E-04  0.1200E+00
     -2.364 -0.1535E-03  0.1200E+00
     -2.265  0.1687E-02  0.1202E+00
     -2.167  0.5774E-02  0.1207E+00
     -2.069  0.1058E-01  0.1218E+00
     -1.970  0.9749E-02  0.1227E+00
     -1.872  0.7391E-02  0.1234E+00
     -1.773  0.9265E-02  0.1244E+00
     -1.675  0.8661E-02  0.1252E+00
     -1.576  0.1107E-01  0.1263E+00
     -1.478  0.1905E-02  0.1265E+00
     -1.379  0.8226E-02  0.1273E+00
     -1.281  0.1125E-01  0.1284E+00
     -1.183  0.7976E-02  0.1292E+00
     -1.084  0.1017E-01  0.1302E+00
     -0.986  0.2539E-01  0.1327E+00
     -0.887  0.2713E-01  0.1354E+00
     -0.789  0.2403E-01  0.1377E+00
     -0.690  0.3293E-01  0.1410E+00
     -0.592  0.4189E-01  0.1451E+00
     -0.494  0.4918E-01  0.1499E+00
     -0.395  0.3815E-01  0.1537E+00
     -0.297  0.6220E-01  0.1598E+00
     -0.198  0.4088E-01  0.1638E+00
     -0.100  0.3819E-01  0.1676E+00
     -0.001  0.1820E-01  0.1694E+00
      0.097  0.3349E-01  0.1727E+00
      0.196  0.3496E-01  0.1761E+00
      0.294  0.4470E-01  0.1805E+00
      0.392  0.4081E-01  0.1845E+00
      0.491  0.4812E-01  0.1893E+00
      0.589  0.4674E-01  0.1939E+00
      0.688  0.3217E-01  0.1971E+00
      0.786  0.3648E-01  0.2006E+00
      0.885  0.5094E-01  0.2057E+00
      0.983  0.3695E-01  0.2093E+00
      1.081  0.4037E-01  0.2133E+00
      1.180  0.5693E-01  0.2189E+00
      1.278  0.2845E-01  0.2217E+00
      1.377  0.2470E-01  0.2241E+00
      1.475  0.3040E-01  0.2271E+00
      1.574  0.3747E-01  0.2308E+00
      1.672  0.3883E-01  0.2346E+00
      1.771  0.5057E-01  0.2396E+00
      1.869  0.3698E-01  0.2432E+00
      1.967  0.4818E-01  0.2480E+00
      2.066  0.2607E-01  0.2505E+00
      2.164  0.2554E-01  0.2530E+00
      2.263  0.3397E-01  0.2564E+00
      2.361  0.4093E-01  0.2604E+00
      2.460  0.4285E-01  0.2646E+00
      2.558  0.4342E-01  0.2689E+00
      2.656  0.5299E-01  0.2741E+00
      2.755  0.4187E-01  0.2783E+00
      2.853  0.4429E-01  0.2826E+00
      2.952  0.6159E-01  0.2887E+00
      3.050  0.7617E-01  0.2962E+00
      3.149  0.5976E-01  0.3021E+00
      3.247  0.4502E-01  0.3065E+00
      3.345  0.4004E-01  0.3104E+00
      3.444  0.4211E-01  0.3146E+00
      3.542  0.3339E-01  0.3179E+00
      3.641  0.3654E-01  0.3215E+00
      3.739  0.7071E-01  0.3284E+00
      3.838  0.5856E-01  0.3342E+00
      3.936  0.6425E-01  0.3405E+00
      4.035  0.5592E-01  0.3460E+00
      4.133  0.2995E-01  0.3490E+00
      4.231  0.3674E-01  0.3526E+00
      4.330  0.5832E-01  0.3583E+00
      4.428  0.5248E-01  0.3635E+00
      4.527  0.3076E-01  0.3665E+00
      4.625  0.4609E-01  0.3710E+00
      4.724  0.4250E-01  0.3752E+00
      4.822  0.5442E-01  0.3806E+00
      4.920  0.4312E-01  0.3848E+00
      5.019  0.4691E-01  0.3895E+00
      5.117  0.4545E-01  0.3939E+00
      5.216  0.4938E-01  0.3988E+00
      5.314  0.5658E-01  0.4044E+00
      5.413  0.5346E-01  0.4096E+00
      5.511  0.5260E-01  0.4148E+00
      5.610  0.7605E-01  0.4223E+00
      5.708  0.6959E-01  0.4291E+00
      5.806  0.6291E-01  0.4353E+00
      5.905  0.7324E-01  0.4425E+00
      6.003  0.6534E-01  0.4490E+00
      6.102  0.5635E-01  0.4545E+00
      6.200  0.5962E-01  0.4604E+00
      6.299  0.4886E-01  0.4652E+00
      6.397  0.4115E-01  0.4692E+00
      6.495  0.2361E-01  0.4716E+00
      6.594  0.2023E-01  0.4736E+00
      6.692  0.7322E-02  0.4743E+00
      6.791  0.2868E-01  0.4771E+00
      6.889  0.4131E-01  0.4812E+00
      6.988  0.4037E-01  0.4851E+00
      7.086  0.5367E-01  0.4904E+00
      7.185  0.3652E-01  0.4940E+00
      7.283  0.4987E-01  0.4989E+00
      7.381  0.4957E-01  0.5038E+00
      7.480  0.6733E-01  0.5104E+00
      7.578  0.6949E-01  0.5173E+00
      7.677  0.7577E-01  0.5247E+00
      7.775  0.6666E-01  0.5313E+00
      7.874  0.5579E-01  0.5368E+00
      7.972  0.4893E-01  0.5416E+00
      8.070  0.3460E-01  0.5450E+00
      8.169  0.4150E-01  0.5491E+00
      8.267  0.3840E-01  0.5529E+00
      8.366  0.2439E-01  0.5553E+00
      8.464  0.1663E-01  0.5569E+00
      8.563  0.1563E-01  0.5585E+00
      8.661  0.9236E-02  0.5594E+00
      8.760  0.1117E-01  0.5605E+00
      8.858  0.1947E-01  0.5624E+00
      8.956  0.1659E-01  0.5640E+00
      9.055  0.3135E-01  0.5671E+00
      9.153  0.2642E-01  0.5697E+00
      9.252  0.3629E-01  0.5733E+00
      9.350  0.2007E-01  0.5752E+00
      9.449  0.1678E-01  0.5769E+00
      9.547  0.1171E-01  0.5781E+00
      9.645  0.3465E-01  0.5815E+00
      9.744  0.1629E-01  0.5831E+00
      9.842  0.1310E-01  0.5844E+00
      9.941  0.1563E-01  0.5859E+00
     10.039  0.1632E-01  0.5875E+00
     10.138  0.9427E-02  0.5884E+00
     10.236  0.2839E-01  0.5912E+00
     10.335  0.3563E-01  0.5947E+00
     10.433  0.2357E-01  0.5970E+00
     10.531  0.1105E-01  0.5981E+00
     10.630  0.6990E-02  0.5988E+00
     10.728  0.1099E-01  0.5999E+00
     10.827  0.2942E-01  0.6028E+00
     10.925  0.1938E-01  0.6047E+00
     11.024  0.2318E-01  0.6070E+00
     11.122  0.3302E-01  0.6102E+00
     11.220  0.3902E-01  0.6141E+00
     11.319  0.3013E-01  0.6171E+00
     11.417  0.1495E-01  0.6185E+00
     11.516  0.1239E-01  0.6197E+00
     11.614  0.1541E-01  0.6213E+00
     11.713  0.1138E-01  0.6224E+00
     11.811  0.1195E-01  0.6236E+00
     11.909  0.1648E-01  0.6252E+00
     12.008  0.1211E-01  0.6264E+00
     12.106  0.2337E-01  0.6287E+00
     12.205  0.1809E-01  0.6305E+00
     12.303  0.1845E-01  0.6323E+00
     12.402  0.4633E-01  0.6368E+00
     12.500  0.5565E-01  0.6423E+00
     12.599  0.4812E-01  0.6470E+00
     12.697  0.4382E-01  0.6514E+00
     12.795  0.3788E-01  0.6551E+00
     12.894  0.3036E-01  0.6581E+00
     12.992  0.2931E-01  0.6610E+00
     13.091  0.2471E-01  0.6634E+00
     13.189  0.4176E-01  0.6675E+00
     13.288  0.4611E-01  0.6720E+00
     13.386  0.2771E-01  0.6748E+00
     13.484  0.2877E-01  0.6776E+00
     13.583  0.2935E-01  0.6805E+00
     13.681  0.3091E-01  0.6835E+00
     13.780  0.1840E-01  0.6853E+00
     13.878  0.2052E-01  0.6874E+00
     13.977  0.3326E-01  0.6906E+00
     14.075  0.3467E-01  0.6940E+00
     14.174  0.1762E-01  0.6958E+00
     14.272  0.2901E-01  0.6986E+00
     14.370  0.4504E-01  0.7031E+00
     14.469  0.4018E-01  0.7070E+00
     14.567  0.3378E-01  0.7104E+00
     14.666  0.3122E-01  0.7134E+00
     14.764  0.4221E-01  0.7176E+00
     14.863  0.3117E-01  0.7207E+00
     14.961  0.3337E-01  0.7239E+00
     15.059  0.3132E-01  0.7270E+00
     15.158  0.6262E-01  0.7332E+00
     15.256  0.7210E-01  0.7403E+00
     15.355  0.5280E-01  0.7455E+00
     15.453  0.4384E-01  0.7498E+00
     15.552  0.4175E-01  0.7539E+00
     15.650  0.2794E-01  0.7567E+00
     15.749  0.4227E-01  0.7608E+00
     15.847  0.3033E-01  0.7638E+00
     15.945  0.1872E-01  0.7656E+00
     16.044  0.2729E-01  0.7683E+00
     16.142  0.2367E-01  0.7707E+00
     16.241  0.2484E-01  0.7731E+00
     16.339  0.2950E-01  0.7760E+00
     16.438  0.3627E-01  0.7796E+00
     16.536  0.3623E-01  0.7831E+00
     16.634  0.3991E-01  0.7871E+00
     16.733  0.5374E-01  0.7924E+00
     16.831  0.2393E-01  0.7947E+00
     16.930  0.3117E-01  0.7978E+00
     17.028  0.2215E-01  0.8000E+00
     17.127 -0.6649E-04  0.8000E+00
     17.225  0.3632E-03  0.8000E+00
     17.324  0.3726E-04  0.8000E+00
     17.422 -0.1936E-05  0.8000E+00
     17.520  0.7420E-06  0.8000E+00
     17.619  0.6348E-08  0.8000E+00
     17.717  0.4921E-11  0.8000E+00
     17.816  0.4464E-15  0.8000E+00
     17.914  0.0000E+00  0.8000E+00
     18.013  0.0000E+00  0.8000E+00
     18.111  0.0000E+00  0.8000E+00
     18.209  0.0000E+00  0.8000E+00
     18.308  0.0000E+00  0.8000E+00
     18.406  0.0000E+00  0.8000E+00
     18.505  0.0000E+00  0.8000E+00
