   14   14  100    1
  0.9716312E+01  0.7643573E-09  0.7643573E-09  0.2688475E-09  0.5000000E-15
  1.000000000000000E-004
  CAR 
 unknown system                          
     62     81     40
 
  0.3742002E-15  0.3742002E-15  0.3742002E-15  0.1200480E-02
    1       -9.683961   1.000000
    2       -8.322136   1.000000
    3       -8.322136   1.000000
    4       -7.636145   1.000000
    5       -7.636145   1.000000
    6       -7.465749   1.000000
    7       -1.123596   1.000000
    8       -1.123596   1.000000
    9       -1.088226   1.000000
   10       -0.197457   1.000000
   11        1.201213   1.000000
   12        1.715148   1.000000
   13        1.715148   1.000000
   14        3.637555   1.000000
   15        3.637555   1.000000
   16        4.930308   1.000000
   17        5.039572   1.000000
   18        5.039573   1.000000
   19        5.668252   1.000000
   20        5.907822   1.000000
   21        6.493361   1.000000
   22        6.493361   1.000000
   23        7.064770   1.000000
   24        7.064770   1.000000
   25        7.263755   1.000000
   26        8.238537   1.000000
   27        8.355856   1.000000
   28        8.355856   1.000000
   29       10.419928   1.000000
   30       10.522188   1.000000
   31       10.522188   1.000000
   32       15.103802   0.000000
   33       15.154108   0.000000
   34       15.154108   0.000000
   35       15.867523   0.000000
   36       15.867523   0.000000
   37       16.416921   0.000000
   38       16.637565   0.000000
   39       17.047033   0.000000
   40       17.047037   0.000000
 
  0.1428571E+00  0.3675066E-15  0.3742002E-15  0.7202881E-02
    1       -9.640147   1.000000
    2       -8.426933   1.000000
    3       -8.368670   1.000000
    4       -7.815602   1.000000
    5       -7.563963   1.000000
    6       -7.208313   1.000000
    7       -1.440962   1.000000
    8       -1.123027   1.000000
    9       -1.019315   1.000000
   10        0.112215   1.000000
   11        1.039795   1.000000
   12        1.617529   1.000000
   13        1.848436   1.000000
   14        3.542365   1.000000
   15        3.718820   1.000000
   16        4.769964   1.000000
   17        4.986414   1.000000
   18        5.205508   1.000000
   19        5.932078   1.000000
   20        5.942183   1.000000
   21        6.461969   1.000000
   22        6.485277   1.000000
   23        7.018170   1.000000
   24        7.078228   1.000000
   25        7.320960   1.000000
   26        8.099437   1.000000
   27        8.147846   1.000000
   28        8.370198   1.000000
   29       10.358798   1.000000
   30       10.691247   1.000000
   31       10.745063   1.000000
   32       14.690077   0.000000
   33       15.018465   0.000000
   34       15.223090   0.000000
   35       15.731235   0.000000
   36       15.910848   0.000000
   37       16.447806   0.000000
   38       16.718340   0.000000
   39       16.987200   0.000000
   40       16.991988   0.000000
 
  0.2857143E+00  0.3557776E-15  0.3742002E-15  0.7202881E-02
    1       -9.511427   1.000000
    2       -8.697991   1.000000
    3       -8.451766   1.000000
    4       -7.918178   1.000000
    5       -7.420615   1.000000
    6       -6.925734   1.000000
    7       -1.876663   1.000000
    8       -1.121822   1.000000
    9       -0.824355   1.000000
   10        0.399323   1.000000
   11        0.761078   1.000000
   12        1.413527   1.000000
   13        2.280239   1.000000
   14        3.356077   1.000000
   15        3.723041   1.000000
   16        4.649571   1.000000
   17        4.942323   1.000000
   18        5.474994   1.000000
   19        5.997689   1.000000
   20        6.369065   1.000000
   21        6.369084   1.000000
   22        6.464248   1.000000
   23        6.958213   1.000000
   24        7.102612   1.000000
   25        7.401524   1.000000
   26        7.593634   1.000000
   27        7.782943   1.000000
   28        8.710459   1.000000
   29       10.171195   1.000000
   30       10.983532   1.000000
   31       11.239255   0.999566
   32       13.758494   0.000000
   33       14.759735   0.000000
   34       15.328571   0.000000
   35       15.660305   0.000000
   36       15.984977   0.000000
   37       16.531401   0.000000
   38       16.571297   0.000000
   39       16.716549   0.000000
   40       16.866052   0.000000
 
  0.4285714E+00  0.3936520E-15  0.3742002E-15  0.7202881E-02
    1       -9.310981   1.000000
    2       -9.001267   1.000000
    3       -8.505630   1.000000
    4       -7.949044   1.000000
    5       -7.315335   1.000000
    6       -6.762231   1.000000
    7       -2.133714   1.000000
    8       -1.121424   1.000000
    9       -0.570006   1.000000
   10        0.163903   1.000000
   11        0.799670   1.000000
   12        1.260722   1.000000
   13        2.927333   1.000000
   14        3.227554   1.000000
   15        3.504263   1.000000
   16        4.242773   1.000000
   17        5.299600   1.000000
   18        5.688752   1.000000
   19        6.094760   1.000000
   20        6.252317   1.000000
   21        6.451057   1.000000
   22        6.511112   1.000000
   23        6.929661   1.000000
   24        7.122336   1.000000
   25        7.176887   1.000000
   26        7.450167   1.000000
   27        7.622369   1.000000
   28        9.124691   1.000000
   29        9.893398   1.000000
   30       11.152527   0.999996
   31       11.878202   0.000025
   32       12.779749   0.000000
   33       14.581101   0.000000
   34       15.551042   0.000000
   35       15.641643   0.000000
   36       15.869704   0.000000
   37       16.414074   0.000000
   38       16.634574   0.000000
   39       16.681553   0.000000
   40       16.804662   0.000000
 
  0.1428571E+00  0.1428571E+00  0.3742002E-15  0.7202881E-02
    1       -9.553760   1.000000
    2       -8.546190   1.000000
    3       -8.524858   1.000000
    4       -7.853730   1.000000
    5       -7.488501   1.000000
    6       -6.986080   1.000000
    7       -1.786551   1.000000
    8       -1.089784   1.000000
    9       -0.882735   1.000000
   10        0.310527   1.000000
   11        0.796578   1.000000
   12        1.602483   1.000000
   13        2.055694   1.000000
   14        3.335564   1.000000
   15        3.886893   1.000000
   16        4.645311   1.000000
   17        4.855053   1.000000
   18        5.452282   1.000000
   19        5.976855   1.000000
   20        6.264573   1.000000
   21        6.410454   1.000000
   22        6.455553   1.000000
   23        6.980659   1.000000
   24        7.089837   1.000000
   25        7.383590   1.000000
   26        7.729410   1.000000
   27        7.885498   1.000000
   28        8.599492   1.000000
   29       10.238022   1.000000
   30       10.939644   1.000000
   31       11.060419   1.000000
   32       14.100254   0.000000
   33       14.662475   0.000000
   34       15.310910   0.000000
   35       15.665357   0.000000
   36       16.012115   0.000000
   37       16.505312   0.000000
   38       16.650089   0.000000
   39       16.898636   0.000000
   40       16.932565   0.000000
 
  0.2857143E+00  0.1428571E+00  0.3742002E-15  0.7202881E-02
    1       -9.386687   1.000000
    2       -8.830961   1.000000
    3       -8.623411   1.000000
    4       -7.832657   1.000000
    5       -7.404850   1.000000
    6       -6.784392   1.000000
    7       -2.107984   1.000000
    8       -1.013902   1.000000
    9       -0.637382   1.000000
   10        0.181421   1.000000
   11        0.500296   1.000000
   12        1.734124   1.000000
   13        2.506797   1.000000
   14        3.103285   1.000000
   15        3.936251   1.000000
   16        4.364391   1.000000
   17        4.907382   1.000000
   18        5.734526   1.000000
   19        6.058680   1.000000
   20        6.318522   1.000000
   21        6.419729   1.000000
   22        6.480625   1.000000
   23        6.961044   1.000000
   24        7.100283   1.000000
   25        7.443263   1.000000
   26        7.470001   1.000000
   27        7.526637   1.000000
   28        8.987016   1.000000
   29       10.001072   1.000000
   30       11.233270   0.999669
   31       11.509154   0.722569
   32       13.212290   0.000000
   33       14.297533   0.000000
   34       15.453474   0.000000
   35       15.656888   0.000000
   36       16.122841   0.000000
   37       16.347765   0.000000
   38       16.605391   0.000000
   39       16.779474   0.000000
   40       16.877784   0.000000
 
  0.4285714E+00  0.1428571E+00  0.3742002E-15  0.7202881E-02
    1       -9.198846   1.000000
    2       -9.072012   1.000000
    3       -8.654680   1.000000
    4       -7.822652   1.000000
    5       -7.365263   1.000000
    6       -6.708270   1.000000
    7       -2.229782   1.000000
    8       -0.966358   1.000000
    9       -0.449239   1.000000
   10       -0.000437   1.000000
   11        0.358148   1.000000
   12        1.783728   1.000000
   13        2.870248   1.000000
   14        3.117658   1.000000
   15        3.668880   1.000000
   16        4.183074   1.000000
   17        5.107077   1.000000
   18        5.835521   1.000000
   19        6.136265   1.000000
   20        6.234088   1.000000
   21        6.406959   1.000000
   22        6.486646   1.000000
   23        6.957911   1.000000
   24        7.104597   1.000000
   25        7.214938   1.000000
   26        7.466261   1.000000
   27        7.569171   1.000000
   28        9.283168   1.000000
   29        9.782478   1.000000
   30       11.294740   0.996969
   31       12.089481   0.000000
   32       12.454054   0.000000
   33       14.204233   0.000000
   34       15.572456   0.000000
   35       15.727996   0.000000
   36       15.877264   0.000000
   37       16.359115   0.000000
   38       16.676314   0.000000
   39       16.748369   0.000000
   40       16.848246   0.000000
 
 -0.4285714E+00  0.1428571E+00  0.3742002E-15  0.7202881E-02
    1       -9.386746   1.000000
    2       -8.830936   1.000000
    3       -8.623432   1.000000
    4       -7.832647   1.000000
    5       -7.404854   1.000000
    6       -6.784324   1.000000
    7       -2.108234   1.000000
    8       -1.010179   1.000000
    9       -0.645462   1.000000
   10        0.195592   1.000000
   11        0.492006   1.000000
   12        1.729984   1.000000
   13        2.490291   1.000000
   14        3.154166   1.000000
   15        3.921344   1.000000
   16        4.293678   1.000000
   17        4.962021   1.000000
   18        5.758090   1.000000
   19        6.058469   1.000000
   20        6.319136   1.000000
   21        6.419198   1.000000
   22        6.470931   1.000000
   23        6.961122   1.000000
   24        7.100174   1.000000
   25        7.324997   1.000000
   26        7.443285   1.000000
   27        7.658015   1.000000
   28        8.992185   1.000000
   29        9.998410   1.000000
   30       11.178360   0.999982
   31       11.578600   0.075094
   32       13.163979   0.000000
   33       14.345800   0.000000
   34       15.483223   0.000000
   35       15.647480   0.000000
   36       16.009128   0.000000
   37       16.428392   0.000000
   38       16.602109   0.000000
   39       16.791808   0.000000
   40       16.899278   0.000000
 
  0.2857143E+00  0.2857143E+00  0.3742002E-15  0.7202881E-02
    1       -9.190723   1.000000
    2       -8.944132   1.000000
    3       -8.857762   1.000000
    4       -7.663816   1.000000
    5       -7.476924   1.000000
    6       -6.679230   1.000000
    7       -2.285354   1.000000
    8       -0.726516   1.000000
    9       -0.383538   1.000000
   10       -0.185592   1.000000
   11        0.078158   1.000000
   12        2.365060   1.000000
   13        2.562296   1.000000
   14        2.921957   1.000000
   15        3.846810   1.000000
   16        4.366694   1.000000
   17        4.768332   1.000000
   18        5.867743   1.000000
   19        6.140585   1.000000
   20        6.284538   1.000000
   21        6.336741   1.000000
   22        6.494264   1.000000
   23        7.003195   1.000000
   24        7.068149   1.000000
   25        7.374871   1.000000
   26        7.463572   1.000000
   27        7.473487   1.000000
   28        9.347980   1.000000
   29        9.740324   1.000000
   30       11.490691   0.876847
   31       11.893322   0.000010
   32       12.523025   0.000000
   33       13.905060   0.000000
   34       15.516182   0.000000
   35       15.747099   0.000000
   36       15.976135   0.000000
   37       16.237929   0.000000
   38       16.696062   0.000000
   39       16.722885   0.000000
   40       16.825718   0.000000
 
  0.3742002E-15  0.3742002E-15  0.5882353E-01  0.2400960E-02
    1       -9.631798   1.000000
    2       -8.276781   1.000000
    3       -8.276781   1.000000
    4       -7.593398   1.000000
    5       -7.593398   1.000000
    6       -7.427184   1.000000
    7       -1.081542   1.000000
    8       -1.081541   1.000000
    9       -1.029648   1.000000
   10       -0.145691   1.000000
   11        1.226869   1.000000
   12        1.748190   1.000000
   13        1.748190   1.000000
   14        3.683374   1.000000
   15        3.683374   1.000000
   16        4.943534   1.000000
   17        5.048983   1.000000
   18        5.048983   1.000000
   19        5.634242   1.000000
   20        5.660806   1.000000
   21        6.236446   1.000000
   22        6.236446   1.000000
   23        6.803853   1.000000
   24        6.803853   1.000000
   25        6.913572   1.000000
   26        8.373781   1.000000
   27        8.373781   1.000000
   28        8.431875   1.000000
   29       10.358245   1.000000
   30       10.619939   1.000000
   31       10.619939   1.000000
   32       14.993917   0.000000
   33       15.263074   0.000000
   34       15.263074   0.000000
   35       15.500480   0.000000
   36       15.500480   0.000000
   37       16.112700   0.000000
   38       16.350304   0.000000
   39       16.641180   0.000000
   40       16.641180   0.000000
 
  0.1428571E+00  0.3675066E-15  0.5882353E-01  0.1440576E-01
    1       -9.588230   1.000000
    2       -8.380731   1.000000
    3       -8.322897   1.000000
    4       -7.772962   1.000000
    5       -7.522076   1.000000
    6       -7.170772   1.000000
    7       -1.392912   1.000000
    8       -1.079566   1.000000
    9       -0.961069   1.000000
   10        0.158564   1.000000
   11        1.071017   1.000000
   12        1.651220   1.000000
   13        1.879639   1.000000
   14        3.588488   1.000000
   15        3.753302   1.000000
   16        4.787339   1.000000
   17        4.976303   1.000000
   18        5.209613   1.000000
   19        5.666115   1.000000
   20        5.936188   1.000000
   21        6.203736   1.000000
   22        6.228082   1.000000
   23        6.723412   1.000000
   24        6.826747   1.000000
   25        7.027401   1.000000
   26        8.131790   1.000000
   27        8.183829   1.000000
   28        8.536991   1.000000
   29       10.304884   1.000000
   30       10.767764   1.000000
   31       10.821652   1.000000
   32       14.755442   0.000000
   33       15.058446   0.000000
   34       15.116552   0.000000
   35       15.483542   0.000000
   36       15.596919   0.000000
   37       16.199360   0.000000
   38       16.415344   0.000000
   39       16.517432   0.000000
   40       16.631722   0.000000
 
  0.2857143E+00  0.3557776E-15  0.5882353E-01  0.1440576E-01
    1       -9.459947   1.000000
    2       -8.650128   1.000000
    3       -8.405177   1.000000
    4       -7.875281   1.000000
    5       -7.380521   1.000000
    6       -6.890501   1.000000
    7       -1.823337   1.000000
    8       -1.075663   1.000000
    9       -0.767264   1.000000
   10        0.444646   1.000000
   11        0.798321   1.000000
   12        1.447518   1.000000
   13        2.305120   1.000000
   14        3.403066   1.000000
   15        3.743366   1.000000
   16        4.636416   1.000000
   17        4.932867   1.000000
   18        5.468272   1.000000
   19        5.760944   1.000000
   20        6.044833   1.000000
   21        6.220907   1.000000
   22        6.388424   1.000000
   23        6.701726   1.000000
   24        6.874934   1.000000
   25        7.159493   1.000000
   26        7.642792   1.000000
   27        7.819309   1.000000
   28        8.830944   1.000000
   29       10.138856   1.000000
   30       11.023228   1.000000
   31       11.290435   0.997284
   32       13.822136   0.000000
   33       14.826099   0.000000
   34       15.105795   0.000000
   35       15.466101   0.000000
   36       15.722691   0.000000
   37       16.124582   0.000000
   38       16.470248   0.000000
   39       16.527432   0.000000
   40       16.723955   0.000000
 
  0.4285714E+00  0.3936520E-15  0.5882353E-01  0.1440576E-01
    1       -9.260229   1.000000
    2       -8.951935   1.000000
    3       -8.458599   1.000000
    4       -7.905977   1.000000
    5       -7.276557   1.000000
    6       -6.728582   1.000000
    7       -2.077759   1.000000
    8       -1.072708   1.000000
    9       -0.514721   1.000000
   10        0.214552   1.000000
   11        0.836981   1.000000
   12        1.294761   1.000000
   13        2.943438   1.000000
   14        3.274441   1.000000
   15        3.519123   1.000000
   16        4.243300   1.000000
   17        5.220070   1.000000
   18        5.654862   1.000000
   19        5.882506   1.000000
   20        5.948944   1.000000
   21        6.240056   1.000000
   22        6.538867   1.000000
   23        6.695314   1.000000
   24        6.904752   1.000000
   25        7.201763   1.000000
   26        7.272813   1.000000
   27        7.639200   1.000000
   28        9.193350   1.000000
   29        9.891134   1.000000
   30       11.169005   0.999990
   31       11.918267   0.000002
   32       12.839353   0.000000
   33       14.646116   0.000000
   34       15.210937   0.000000
   35       15.449853   0.000000
   36       15.680183   0.000000
   37       16.053337   0.000000
   38       16.488103   0.000000
   39       16.574075   0.000000
   40       16.855110   0.000000
 
  0.1428571E+00  0.1428571E+00  0.5882353E-01  0.1440576E-01
    1       -9.502189   1.000000
    2       -8.499290   1.000000
    3       -8.477867   1.000000
    4       -7.811285   1.000000
    5       -7.447577   1.000000
    6       -6.950330   1.000000
    7       -1.734369   1.000000
    8       -1.044382   1.000000
    9       -0.825732   1.000000
   10        0.355625   1.000000
   11        0.833871   1.000000
   12        1.634101   1.000000
   13        2.084492   1.000000
   14        3.380691   1.000000
   15        3.906382   1.000000
   16        4.649813   1.000000
   17        4.851515   1.000000
   18        5.429339   1.000000
   19        5.738729   1.000000
   20        6.116305   1.000000
   21        6.149574   1.000000
   22        6.331158   1.000000
   23        6.702376   1.000000
   24        6.854006   1.000000
   25        7.130614   1.000000
   26        7.767700   1.000000
   27        7.930085   1.000000
   28        8.734926   1.000000
   29       10.197687   1.000000
   30       10.993614   1.000000
   31       11.112800   1.000000
   32       14.168759   0.000000
   33       14.713649   0.000000
   34       15.098594   0.000000
   35       15.516369   0.000000
   36       15.705798   0.000000
   37       16.144348   0.000000
   38       16.507883   0.000000
   39       16.530004   0.000000
   40       16.709115   0.000000
 
  0.2857143E+00  0.1428571E+00  0.5882353E-01  0.1440576E-01
    1       -9.335788   1.000000
    2       -8.782401   1.000000
    3       -8.575905   1.000000
    4       -7.790413   1.000000
    5       -7.365235   1.000000
    6       -6.750485   1.000000
    7       -2.052758   1.000000
    8       -0.966427   1.000000
    9       -0.581894   1.000000
   10        0.229797   1.000000
   11        0.542538   1.000000
   12        1.762042   1.000000
   13        2.530225   1.000000
   14        3.144532   1.000000
   15        3.947488   1.000000
   16        4.359353   1.000000
   17        4.897584   1.000000
   18        5.641762   1.000000
   19        5.880657   1.000000
   20        6.006229   1.000000
   21        6.177324   1.000000
   22        6.501089   1.000000
   23        6.733858   1.000000
   24        6.875403   1.000000
   25        7.226376   1.000000
   26        7.502453   1.000000
   27        7.569971   1.000000
   28        9.072563   1.000000
   29        9.984996   1.000000
   30       11.243945   0.999469
   31       11.564905   0.171350
   32       13.271248   0.000000
   33       14.355562   0.000000
   34       15.174028   0.000000
   35       15.495501   0.000000
   36       15.764516   0.000000
   37       16.016687   0.000000
   38       16.604044   0.000000
   39       16.633602   0.000000
   40       16.932278   0.000000
 
  0.4285714E+00  0.1428571E+00  0.5882353E-01  0.1440576E-01
    1       -9.148637   1.000000
    2       -9.022485   1.000000
    3       -8.607008   1.000000
    4       -7.780546   1.000000
    5       -7.326263   1.000000
    6       -6.675190   1.000000
    7       -2.173465   1.000000
    8       -0.917796   1.000000
    9       -0.395899   1.000000
   10        0.051853   1.000000
   11        0.400520   1.000000
   12        1.810585   1.000000
   13        2.911081   1.000000
   14        3.124038   1.000000
   15        3.690438   1.000000
   16        4.187343   1.000000
   17        5.059511   1.000000
   18        5.715250   1.000000
   19        5.894625   1.000000
   20        6.027863   1.000000
   21        6.190247   1.000000
   22        6.534541   1.000000
   23        6.691284   1.000000
   24        6.881147   1.000000
   25        7.253382   1.000000
   26        7.284411   1.000000
   27        7.590665   1.000000
   28        9.332049   1.000000
   29        9.789137   1.000000
   30       11.301480   0.996463
   31       12.126058   0.000000
   32       12.520640   0.000000
   33       14.260334   0.000000
   34       15.264138   0.000000
   35       15.435228   0.000000
   36       15.695291   0.000000
   37       16.022387   0.000000
   38       16.641767   0.000000
   39       16.699761   0.000000
   40       16.934228   0.000000
 
 -0.4285714E+00  0.1428571E+00  0.5882353E-01  0.1440576E-01
    1       -9.335752   1.000000
    2       -8.782452   1.000000
    3       -8.575936   1.000000
    4       -7.790377   1.000000
    5       -7.365202   1.000000
    6       -6.750502   1.000000
    7       -2.052822   1.000000
    8       -0.962654   1.000000
    9       -0.590407   1.000000
   10        0.244969   1.000000
   11        0.533430   1.000000
   12        1.757989   1.000000
   13        2.514773   1.000000
   14        3.193610   1.000000
   15        3.936575   1.000000
   16        4.289826   1.000000
   17        4.946377   1.000000
   18        5.650293   1.000000
   19        5.871410   1.000000
   20        6.054095   1.000000
   21        6.146082   1.000000
   22        6.517081   1.000000
   23        6.716948   1.000000
   24        6.874392   1.000000
   25        7.224010   1.000000
   26        7.371770   1.000000
   27        7.690406   1.000000
   28        9.076712   1.000000
   29        9.982955   1.000000
   30       11.205394   0.999917
   31       11.614629  -0.045702
   32       13.229734   0.000000
   33       14.399322   0.000000
   34       15.176579   0.000000
   35       15.511590   0.000000
   36       15.720385   0.000000
   37       16.033236   0.000000
   38       16.578504   0.000000
   39       16.676229   0.000000
   40       16.852717   0.000000
 
  0.2857143E+00  0.2857143E+00  0.5882353E-01  0.1440576E-01
    1       -9.140531   1.000000
    2       -8.894938   1.000000
    3       -8.809243   1.000000
    4       -7.622718   1.000000
    5       -7.437061   1.000000
    6       -6.646353   1.000000
    7       -2.228704   1.000000
    8       -0.678692   1.000000
    9       -0.334757   1.000000
   10       -0.131783   1.000000
   11        0.127040   1.000000
   12        2.382986   1.000000
   13        2.596075   1.000000
   14        2.945435   1.000000
   15        3.860077   1.000000
   16        4.362760   1.000000
   17        4.752924   1.000000
   18        5.735386   1.000000
   19        5.949577   1.000000
   20        6.027859   1.000000
   21        6.118667   1.000000
   22        6.536854   1.000000
   23        6.742695   1.000000
   24        6.833380   1.000000
   25        7.283606   1.000000
   26        7.420034   1.000000
   27        7.501645   1.000000
   28        9.392301   1.000000
   29        9.747573   1.000000
   30       11.477525   0.957287
   31       11.954157   0.000000
   32       12.589578   0.000000
   33       13.954652   0.000000
   34       15.285672   0.000000
   35       15.435992   0.000000
   36       15.646805   0.000000
   37       15.984775   0.000000
   38       16.692950   0.000000
   39       16.883860   0.000000
   40       16.930488   0.000000
 
  0.3742002E-15  0.3742002E-15  0.1176471E+00  0.2400960E-02
    1       -9.476909   1.000000
    2       -8.142425   1.000000
    3       -8.142425   1.000000
    4       -7.467551   1.000000
    5       -7.467551   1.000000
    6       -7.314758   1.000000
    7       -0.958609   1.000000
    8       -0.958609   1.000000
    9       -0.854274   1.000000
   10        0.009510   1.000000
   11        1.288478   1.000000
   12        1.838755   1.000000
   13        1.838755   1.000000
   14        3.821124   1.000000
   15        3.821125   1.000000
   16        4.951392   1.000000
   17        4.957011   1.000000
   18        5.050622   1.000000
   19        5.050622   1.000000
   20        5.515911   1.000000
   21        5.585533   1.000000
   22        5.585533   1.000000
   23        6.170312   1.000000
   24        6.170312   1.000000
   25        6.354521   1.000000
   26        8.405047   1.000000
   27        8.405047   1.000000
   28        8.728049   1.000000
   29       10.119800   1.000000
   30       10.837669   1.000000
   31       10.837669   1.000000
   32       14.392559   0.000000
   33       14.452174   0.000000
   34       14.452174   0.000000
   35       15.046566   0.000000
   36       15.495291   0.000000
   37       15.495291   0.000000
   38       16.432394   0.000000
   39       16.432394   0.000000
   40       16.809491   0.000000
 
  0.1428571E+00  0.3675066E-15  0.1176471E+00  0.1440576E-01
    1       -9.433843   1.000000
    2       -8.244021   1.000000
    3       -8.187131   1.000000
    4       -7.647695   1.000000
    5       -7.398957   1.000000
    6       -7.061094   1.000000
    7       -1.251481   1.000000
    8       -0.953503   1.000000
    9       -0.787221   1.000000
   10        0.295314   1.000000
   11        1.151969   1.000000
   12        1.743185   1.000000
   13        1.963836   1.000000
   14        3.725804   1.000000
   15        3.835181   1.000000
   16        4.775928   1.000000
   17        4.923824   1.000000
   18        5.044679   1.000000
   19        5.186166   1.000000
   20        5.526254   1.000000
   21        5.603917   1.000000
   22        5.825941   1.000000
   23        6.045625   1.000000
   24        6.216254   1.000000
   25        6.556983   1.000000
   26        8.185420   1.000000
   27        8.239574   1.000000
   28        8.808701   1.000000
   29       10.088639   1.000000
   30       10.937094   1.000000
   31       10.996206   1.000000
   32       14.360139   0.000000
   33       14.446762   0.000000
   34       14.529975   0.000000
   35       15.024959   0.000000
   36       15.155883   0.000000
   37       15.332010   0.000000
   38       16.336402   0.000000
   39       16.491419   0.000000
   40       16.875401   0.000000
 
  0.2857143E+00  0.3557776E-15  0.1176471E+00  0.1440576E-01
    1       -9.306958   1.000000
    2       -8.508379   1.000000
    3       -8.267197   1.000000
    4       -7.749241   1.000000
    5       -7.262800   1.000000
    6       -6.788333   1.000000
    7       -1.665334   1.000000
    8       -0.941300   1.000000
    9       -0.597098   1.000000
   10        0.576335   1.000000
   11        0.902736   1.000000
   12        1.540976   1.000000
   13        2.368455   1.000000
   14        3.541404   1.000000
   15        3.768726   1.000000
   16        4.546752   1.000000
   17        4.774240   1.000000
   18        5.270188   1.000000
   19        5.316941   1.000000
   20        5.422618   1.000000
   21        5.740354   1.000000
   22        5.952056   1.000000
   23        6.231140   1.000000
   24        6.304759   1.000000
   25        6.851693   1.000000
   26        7.723564   1.000000
   27        7.887227   1.000000
   28        9.037186   1.000000
   29        9.986497   1.000000
   30       11.098622   1.000000
   31       11.410176   1.037022
   32       13.975792   0.000000
   33       14.326106   0.000000
   34       14.440411   0.000000
   35       14.729780   0.000000
   36       15.009383   0.000000
   37       15.480200   0.000000
   38       16.188541   0.000000
   39       16.601685   0.000000
   40       16.949886   0.000000
 
  0.4285714E+00  0.3936520E-15  0.1176471E+00  0.1440576E-01
    1       -9.109659   1.000000
    2       -8.805621   1.000000
    3       -8.319339   1.000000
    4       -7.779669   1.000000
    5       -7.163072   1.000000
    6       -6.631437   1.000000
    7       -1.911654   1.000000
    8       -0.931103   1.000000
    9       -0.351010   1.000000
   10        0.363014   1.000000
   11        0.941413   1.000000
   12        1.387536   1.000000
   13        2.973456   1.000000
   14        3.410983   1.000000
   15        3.539918   1.000000
   16        4.212137   1.000000
   17        4.775585   1.000000
   18        5.211849   1.000000
   19        5.350343   1.000000
   20        5.628298   1.000000
   21        5.940930   1.000000