 running on   16 total cores
 distrk:  each k-point on   16 cores,    1 groups
 distr:  one band on    4 cores,    4 groups
 using from now: INCAR     
 vasp.5.4.4.18Apr17-6-g9f103f2a35 (build Nov 01 2019 12:17:22) complex          
  
 POSCAR found type information on POSCAR  Si N 
 POSCAR found :  2 types and      14 ions
 WARNING: type information on POSCAR and POTCAR are incompatible
 POTCAR overwrites the type information in POSCAR
 typ   1 type information:  Si N 
 WARNING: type information on POSCAR and POTCAR are incompatible
 POTCAR overwrites the type information in POSCAR
 typ   2 type information:  N  Si
 LDA part: xc-table for Pade appr. of Perdew
 generate k-points for:    7    7   17
 POSCAR, INCAR and KPOINTS ok, starting setup
 FFT: planning ...
 WAVECAR not read
 entering main loop
       N       E                     dE             d eps       ncg     rms          rms(c)
DAV:   1     0.236214102018E+03    0.23621E+03   -0.26161E+04  6504   0.116E+03
DAV:   2    -0.836853756223E+02   -0.31990E+03   -0.30641E+03  8136   0.253E+02
DAV:   3    -0.103564859340E+03   -0.19879E+02   -0.19528E+02  8032   0.669E+01
DAV:   4    -0.103996704928E+03   -0.43185E+00   -0.42988E+00  8344   0.101E+01
DAV:   5    -0.104005399394E+03   -0.86945E-02   -0.86891E-02  8224   0.137E+00    0.271E+01
RMM:   6    -0.938632763633E+02    0.10142E+02   -0.43558E+01  6480   0.245E+01    0.127E+01
RMM:   7    -0.933770690371E+02    0.48621E+00   -0.19057E+00  6511   0.492E+00    0.673E+00
RMM:   8    -0.932600338359E+02    0.11704E+00   -0.69874E-01  6502   0.274E+00    0.785E-01
RMM:   9    -0.932596751907E+02    0.35865E-03   -0.10571E-01  6508   0.123E+00    0.531E-01
RMM:  10    -0.932577658014E+02    0.19094E-02   -0.10250E-02  6490   0.433E-01    0.182E-01
RMM:  11    -0.932589882665E+02   -0.12225E-02   -0.59885E-03  6490   0.299E-01    0.122E-01
RMM:  12    -0.932586212494E+02    0.36702E-03   -0.97633E-04  6442   0.126E-01    0.327E-02
RMM:  13    -0.932586508422E+02   -0.29593E-04   -0.17966E-04  4049   0.563E-02
   1 F= -.93258651E+02 E0= -.93258542E+02  d E =-.932587E+02
 curvature:   0.00 expect dE= 0.000E+00 dE for cont linesearch  0.000E+00
 trial: gam= 0.00000 g(F)=  0.259E+00 g(S)=  0.000E+00 ort = 0.000E+00 (trialstep = 0.100E+01)
 search vector abs. value=  0.259E+00
 bond charge predicted
       N       E                     dE             d eps       ncg     rms          rms(c)
DAV:   1    -0.932522570077E+02    0.63642E-02   -0.25920E+01  6880   0.286E+01    0.137E+00
RMM:   2    -0.932653934116E+02   -0.13136E-01   -0.46328E-01  6482   0.323E+00    0.713E-01
RMM:   3    -0.932578583930E+02    0.75350E-02   -0.40479E-02  6552   0.822E-01    0.474E-01
RMM:   4    -0.932566512558E+02    0.12071E-02   -0.86444E-03  6575   0.371E-01    0.196E-01
RMM:   5    -0.932567148854E+02   -0.63630E-04   -0.50926E-04  4986   0.920E-02
   2 F= -.93256715E+02 E0= -.93256540E+02  d E =0.193596E-02
 trial-energy change:    0.001936  1 .order    0.001264   -0.259468    0.261997
 step:   0.4956(harm=  0.4976)  dis= 0.01598  next Energy=   -93.322871 (dE=-0.642E-01)
 bond charge predicted
       N       E                     dE             d eps       ncg     rms          rms(c)
DAV:   1    -0.933218516351E+02   -0.65200E-01   -0.66093E+00  6896   0.144E+01    0.636E-01
RMM:   2    -0.933257387861E+02   -0.38872E-02   -0.11598E-01  6480   0.164E+00    0.348E-01
RMM:   3    -0.933232351285E+02    0.25037E-02   -0.12185E-02  6538   0.451E-01    0.179E-01
RMM:   4    -0.933230609435E+02    0.17419E-03   -0.19146E-03  6630   0.171E-01    0.858E-02
RMM:   5    -0.933230656900E+02   -0.47465E-05   -0.13293E-04  3959   0.516E-02
   3 F= -.93323066E+02 E0= -.93322863E+02  d E =-.644148E-01
 curvature:  -0.25 expect dE=-0.679E-02 dE for cont linesearch -0.927E-09
 trial: gam= 0.10525 g(F)=  0.273E-01 g(S)=  0.000E+00 ort =-0.311E-04 (trialstep = 0.899E+00)
 search vector abs. value=  0.301E-01
 bond charge predicted
       N       E                     dE             d eps       ncg     rms          rms(c)
DAV:   1    -0.933305740907E+02   -0.75131E-02   -0.28471E+00  6864   0.927E+00    0.409E-01
RMM:   2    -0.933336818587E+02   -0.31078E-02   -0.56553E-02  6482   0.110E+00    0.208E-01
RMM:   3    -0.933329408916E+02    0.74097E-03   -0.33398E-03  6604   0.242E-01    0.129E-01
RMM:   4    -0.933327699453E+02    0.17095E-03   -0.76069E-04  6141   0.117E-01    0.414E-02
RMM:   5    -0.933327726549E+02   -0.27096E-05   -0.31247E-05  3912   0.270E-02
   4 F= -.93332773E+02 E0= -.93332583E+02  d E =-.970696E-02
 trial-energy change:   -0.009707  1 .order   -0.009822   -0.024523    0.004879
 step:   0.7499(harm=  0.7499)  dis= 0.00839  next Energy=   -93.333292 (dE=-0.102E-01)
 bond charge predicted
       N       E                     dE             d eps       ncg     rms          rms(c)
DAV:   1    -0.933331392483E+02   -0.36930E-03   -0.78397E-02  7752   0.154E+00    0.652E-02
RMM:   2    -0.933332195749E+02   -0.80327E-04   -0.14977E-03  6343   0.180E-01    0.347E-02
RMM:   3    -0.933331956908E+02    0.23884E-04   -0.74000E-05  3533   0.404E-02
   5 F= -.93333196E+02 E0= -.93333002E+02  d E =-.101300E-01
 curvature:  -0.41 expect dE=-0.586E-02 dE for cont linesearch -0.295E-05
 trial: gam= 0.53184 g(F)=  0.141E-01 g(S)=  0.000E+00 ort =-0.463E-03 (trialstep = 0.869E+00)
 search vector abs. value=  0.222E-01
 bond charge predicted
       N       E                     dE             d eps       ncg     rms          rms(c)
DAV:   1    -0.933376135071E+02   -0.43939E-02   -0.23778E+00  6592   0.848E+00    0.453E-01
RMM:   2    -0.933406563712E+02   -0.30429E-02   -0.46912E-02  6482   0.106E+00    0.150E-01
RMM:   3    -0.933402103500E+02    0.44602E-03   -0.22978E-03  6631   0.203E-01    0.947E-02
RMM:   4    -0.933400979301E+02    0.11242E-03   -0.44738E-04  5530   0.923E-02    0.359E-02
RMM:   5    -0.933400983306E+02   -0.40056E-06   -0.35525E-05  3895   0.285E-02
   6 F= -.93340098E+02 E0= -.93339872E+02  d E =-.690264E-02
 trial-energy change:   -0.006903  1 .order   -0.006899   -0.012069   -0.001729
 step:   1.0146(harm=  1.0146)  dis= 0.01105  next Energy=   -93.340239 (dE=-0.704E-02)
 bond charge predicted
       N       E                     dE             d eps       ncg     rms          rms(c)
DAV:   1    -0.933401526935E+02   -0.54763E-04   -0.66045E-02  7528   0.141E+00    0.738E-02
RMM:   2    -0.933402397452E+02   -0.87052E-04   -0.12683E-03  6354   0.173E-01    0.236E-02
RMM:   3    -0.933402285738E+02    0.11171E-04   -0.51465E-05  3625   0.341E-02
   7 F= -.93340229E+02 E0= -.93339998E+02  d E =-.703288E-02
 curvature:  -0.81 expect dE=-0.193E-04 dE for cont linesearch -0.138E-06
 trial: gam=-0.00381 g(F)=  0.239E-04 g(S)=  0.000E+00 ort = 0.615E-04 (trialstep = 0.898E+00)
 search vector abs. value=  0.237E-04
 reached required accuracy - stopping structural energy minimisation
