 vasp.5.4.4.18Apr17-6-g9f103f2a35 (build Nov 01 2019 12:17:22) complex          
  
 executed on             LinuxIFC date 2023.05.19  18:18:50
 running on   16 total cores
 distrk:  each k-point on   16 cores,    1 groups
 distr:  one band on NCORES_PER_BAND=   4 cores,    4 groups


--------------------------------------------------------------------------------------------------------


 INCAR:
 POTCAR:    PAW_PBE N 08Apr2002                   
 POTCAR:    PAW_PBE Si 05Jan2001                  
 POTCAR:    PAW_PBE N 08Apr2002                   
   VRHFIN =N: s2p3                                                              
   LEXCH  = PE                                                                  
   EATOM  =   264.5486 eV,   19.4438 Ry                                         
                                                                                
   TITEL  = PAW_PBE N 08Apr2002                                                 
   LULTRA =        F    use ultrasoft PP ?                                      
   IUNSCR =        1    unscreen: 0-lin 1-nonlin 2-no                           
   RPACOR =    1.200    partial core radius                                     
   POMASS =   14.001; ZVAL   =    5.000    mass and valenz                      
   RCORE  =    1.500    outmost cutoff radius                                   
   RWIGS  =    1.400; RWIGS  =    0.741    wigner-seitz radius (au A)           
   ENMAX  =  400.000; ENMIN  =  300.000 eV                                      
   ICORE  =        2    local potential                                         
   LCOR   =        T    correct aug charges                                     
   LPAW   =        T    paw PP                                                  
   EAUG   =  627.112                                                            
   DEXC   =    0.000                                                            
   RMAX   =    1.529    core radius for proj-oper                               
   RAUG   =    1.300    factor for augmentation sphere                          
   RDEP   =    1.514    radius for radial grids                                 
   RDEPT  =    1.338    core radius for aug-charge                              
                                                                                
   Atomic configuration                                                         
    4 entries                                                                   
     n  l   j            E        occ.                                          
     1  0  0.50      -384.7179   2.0000                                         
     2  0  0.50       -18.5828   2.0000                                         
     2  1  0.50        -7.0898   3.0000                                         
     3  2  1.50        -6.8029   0.0000                                         
   Description                                                                  
     l       E           TYP  RCUT    TYP  RCUT                                 
     0    -18.5828119     23  1.200                                             
     0    -13.5018863     23  1.200                                             
     1     -7.0897853     23  1.500                                             
     1      9.5240782     23  1.500                                             
     2     -6.8029130      7  1.500                                             
  local pseudopotential read in
  partial core-charges read in
  partial kinetic energy density read in
  atomic valenz-charges read in
  non local Contribution for L=           0  read in
    real space projection operators read in
  non local Contribution for L=           0  read in
    real space projection operators read in
  non local Contribution for L=           1  read in
    real space projection operators read in
  non local Contribution for L=           1  read in
    real space projection operators read in
    PAW grid and wavefunctions read in
 
   number of l-projection  operators is LMAX  =           4
   number of lm-projection operators is LMMAX =           8
 
 POTCAR:    PAW_PBE Si 05Jan2001                  
   VRHFIN =Si: s2p2                                                             
   LEXCH  = PE                                                                  
   EATOM  =   103.0669 eV,    7.5752 Ry                                         
                                                                                
   TITEL  = PAW_PBE Si 05Jan2001                                                
   LULTRA =        F    use ultrasoft PP ?                                      
   IUNSCR =        1    unscreen: 0-lin 1-nonlin 2-no                           
   RPACOR =    1.500    partial core radius                                     
   POMASS =   28.085; ZVAL   =    4.000    mass and valenz                      
   RCORE  =    1.900    outmost cutoff radius                                   
   RWIGS  =    2.480; RWIGS  =    1.312    wigner-seitz radius (au A)           
   ENMAX  =  245.345; ENMIN  =  184.009 eV                                      
   ICORE  =        2    local potential                                         
   LCOR   =        T    correct aug charges                                     
   LPAW   =        T    paw PP                                                  
   EAUG   =  322.069                                                            
   DEXC   =    0.000                                                            
   RMAX   =    1.950    core radius for proj-oper                               
   RAUG   =    1.300    factor for augmentation sphere                          
   RDEP   =    1.993    radius for radial grids                                 
   RDEPT  =    1.837    core radius for aug-charge                              
                                                                                
   Atomic configuration                                                         
    6 entries                                                                   
     n  l   j            E        occ.                                          
     1  0  0.50     -1785.8828   2.0000                                         
     2  0  0.50      -139.4969   2.0000                                         
     2  1  1.50       -95.5546   6.0000                                         
     3  0  0.50       -10.8127   2.0000                                         
     3  1  0.50        -4.0811   2.0000                                         
     3  2  1.50        -4.0817   0.0000                                         
   Description                                                                  
     l       E           TYP  RCUT    TYP  RCUT                                 
     0    -10.8127223     23  1.900                                             
     0     -7.6451159     23  1.900                                             
     1     -4.0811372     23  1.900                                             
     1      2.4879257     23  1.900                                             
     2     -4.0817478      7  1.900                                             
  local pseudopotential read in
  partial core-charges read in
  partial kinetic energy density read in
  atomic valenz-charges read in
  non local Contribution for L=           0  read in
    real space projection operators read in
  non local Contribution for L=           0  read in
    real space projection operators read in
  non local Contribution for L=           1  read in
    real space projection operators read in
  non local Contribution for L=           1  read in
    real space projection operators read in
    PAW grid and wavefunctions read in
 
   number of l-projection  operators is LMAX  =           4
   number of lm-projection operators is LMMAX =           8
 
 Optimization of the real space projectors (new method)

 maximal supplied QI-value         = 25.13
 optimisation between [QCUT,QGAM] = [ 10.05, 20.36] = [ 28.30,116.06] Ry 
 Optimized for a Real-space Cutoff    1.70 Angstroem

   l    n(q)    QCUT    max X(q) W(low)/X(q) W(high)/X(q)  e(spline) 
   0     10    10.053    79.467    0.61E-04    0.98E-04    0.61E-06
   0     10    10.053    66.151    0.60E-04    0.98E-04    0.61E-06
   1     10    10.053     8.350    0.17E-03    0.71E-03    0.45E-05
   1     10    10.053     5.531    0.18E-03    0.77E-03    0.49E-05
 Optimization of the real space projectors (new method)

 maximal supplied QI-value         = 19.84
 optimisation between [QCUT,QGAM] = [ 10.12, 20.44] = [ 28.68,116.96] Ry 
 Optimized for a Real-space Cutoff    1.38 Angstroem

   l    n(q)    QCUT    max X(q) W(low)/X(q) W(high)/X(q)  e(spline) 
   0      8    10.119   159.560    0.58E-04    0.11E-03    0.54E-07
   0      8    10.119   115.863    0.56E-04    0.11E-03    0.54E-07
   1      8    10.119    88.339    0.22E-03    0.17E-03    0.19E-06
   1      8    10.119    48.592    0.22E-03    0.17E-03    0.18E-06
  PAW_PBE N 08Apr2002                   :
 energy of atom  1       EATOM= -264.5486
 kinetic energy error for atom=    0.0736 (will be added to EATOM!!)
  PAW_PBE Si 05Jan2001                  :
 energy of atom  2       EATOM= -103.0669
 kinetic energy error for atom=    0.0012 (will be added to EATOM!!)
 
 
 POSCAR: Si6 N8                                  
  positions in direct lattice
  No initial velocities read in
 exchange correlation table for  LEXCH =        8
   RHO(1)=    0.500       N(1)  =     2000
   RHO(2)=  100.500       N(2)  =     4000
 


--------------------------------------------------------------------------------------------------------


 ion  position               nearest neighbor table
   1  0.197  0.832  0.750-   9 1.73  10 1.74  10 1.74   7 2.00
   2  0.366  0.197  0.250-  10 1.73  12 1.74  12 1.74   8 2.00
   3  0.832  0.634  0.250-  11 1.73   9 1.74   9 1.74   8 2.00
   4  0.168  0.366  0.750-  12 1.73  13 1.74  13 1.74   7 2.00
   5  0.634  0.803  0.750-  14 1.73  11 1.74  11 1.74   7 2.00
   6  0.803  0.168  0.250-  13 1.73  14 1.74  14 1.74   8 2.00
   7  0.333  0.667  0.750-   5 2.00   4 2.00   1 2.00  11 2.58  11 2.58  13 2.58  13 2.58  10 2.58
                            10 2.58  12 2.64  14 2.64   9 2.64
   8  0.667  0.333  0.250-   2 2.00   3 2.00   6 2.00  12 2.58  12 2.58   9 2.58   9 2.58  14 2.58
                            14 2.58  11 2.64  10 2.64  13 2.64
   9  0.964  0.612  0.750-   1 1.73   3 1.74   3 1.74  13 2.46  13 2.46   8 2.58   8 2.58   7 2.64
                            10 3.14  10 3.14  11 3.14  11 3.14
  10  0.351  0.964  0.250-   2 1.73   1 1.74   1 1.74  14 2.46  14 2.46   7 2.58   7 2.58   8 2.64
                             9 3.14   9 3.14  12 3.14  12 3.14
  11  0.612  0.649  0.250-   3 1.73   5 1.74   5 1.74  12 2.46  12 2.46   7 2.58   7 2.58   8 2.64
                            14 3.14   9 3.14   9 3.14  14 3.14
  12  0.388  0.351  0.750-   4 1.73   2 1.74   2 1.74  11 2.46  11 2.46   8 2.58   8 2.58   7 2.64
                            13 3.14  10 3.14  10 3.14  13 3.14
  13  0.036  0.388  0.250-   6 1.73   4 1.74   4 1.74   9 2.46   9 2.46   7 2.58   7 2.58   8 2.64
                            14 3.14  12 3.14  12 3.14  14 3.14
  14  0.649  0.036  0.750-   5 1.73   6 1.74   6 1.74  10 2.46  10 2.46   8 2.58   8 2.58   7 2.64
                            13 3.14  11 3.14  11 3.14  13 3.14
 
  LATTYP: Found a hexagonal cell.
 ALAT       =     7.6435734313
 C/A-ratio  =     0.3517300815
  
  Lattice vectors:
  
 A1 = (   3.8217867206,  -6.6195287643,   0.0000000000)
 A2 = (   3.8217867107,   6.6195287701,   0.0000000000)
 A3 = (   0.0000000000,   0.0000000000,   2.6884747056)


Analysis of symmetry for initial positions (statically):
=====================================================================
 Subroutine PRICEL returns:
 Original cell was already a primitive cell.
 

 Routine SETGRP: Setting up the symmetry group for a 
 hexagonal supercell.


 Subroutine GETGRP returns: Found 12 space group operations
 (whereof  6 operations were pure point group operations)
 out of a pool of 24 trial point group operations.


The static configuration has the point symmetry S_6 .
 The point group associated with its full space group is C_6h.


Analysis of symmetry for dynamics (positions and initial velocities):
=====================================================================
 Subroutine PRICEL returns:
 Original cell was already a primitive cell.
 

 Routine SETGRP: Setting up the symmetry group for a 
 hexagonal supercell.


 Subroutine GETGRP returns: Found 12 space group operations
 (whereof  6 operations were pure point group operations)
 out of a pool of 24 trial point group operations.


The dynamic configuration has the point symmetry S_6 .
 The point group associated with its full space group is C_6h.


 Subroutine INISYM returns: Found 12 space group operations
 (whereof  6 operations are pure point group operations),
 and found     1 'primitive' translations

 
 
 KPOINTS: Automatic mesh                          

Automatic generation of k-mesh.
 generate k-points for:    7    7   17
Space group operators:
 irot       det(A)        alpha          n_x          n_y          n_z        tau_x        tau_y        tau_z
    1     1.000000     0.000000     1.000000     0.000000     0.000000     0.000000     0.000000     0.000000
    2    -1.000000     0.000000     1.000000     0.000000     0.000000     0.000000     0.000000     0.000000
    3     1.000000   120.000000     0.000000     0.000000    -1.000000     0.000000     0.000000     0.000000
    4    -1.000000   120.000000     0.000000     0.000000    -1.000000     0.000000     0.000000     0.000000
    5     1.000000   120.000000     0.000000     0.000000     1.000000     0.000000     0.000000     0.000000
    6    -1.000000   120.000000     0.000000     0.000000     1.000000     0.000000     0.000000     0.000000
    7     1.000000    60.000000     0.000000     0.000000    -1.000000     0.000000     0.000000     0.500000
    8    -1.000000    60.000000     0.000000     0.000000    -1.000000     0.000000    -0.000000     0.500000
    9     1.000000   180.000000     0.000000     0.000000     1.000000     0.000000    -0.000000     0.500000
   10    -1.000000   180.000000     0.000000     0.000000     1.000000     0.000000     0.000000     0.500000
   11     1.000000    60.000000     0.000000     0.000000     1.000000     0.000000    -0.000000     0.500000
   12    -1.000000    60.000000     0.000000     0.000000     1.000000     0.000000     0.000000     0.500000
 
 Subroutine IBZKPT returns following result:
 ===========================================
 
 Found     81 irreducible k-points:
 
 Following reciprocal coordinates:
            Coordinates               Weight
  0.000000  0.000000  0.000000      1.000000
  0.142857  0.000000  0.000000      6.000000
  0.285714  0.000000  0.000000      6.000000
  0.428571  0.000000  0.000000      6.000000
  0.142857  0.142857  0.000000      6.000000
  0.285714  0.142857  0.000000      6.000000
  0.428571  0.142857  0.000000      6.000000
 -0.428571  0.142857  0.000000      6.000000
  0.285714  0.285714  0.000000      6.000000
  0.000000  0.000000  0.058824      2.000000
  0.142857  0.000000  0.058824     12.000000
  0.285714  0.000000  0.058824     12.000000
  0.428571  0.000000  0.058824     12.000000
  0.142857  0.142857  0.058824     12.000000
  0.285714  0.142857  0.058824     12.000000
  0.428571  0.142857  0.058824     12.000000
 -0.428571  0.142857  0.058824     12.000000
  0.285714  0.285714  0.058824     12.000000
  0.000000  0.000000  0.117647      2.000000
  0.142857  0.000000  0.117647     12.000000
  0.285714  0.000000  0.117647     12.000000
  0.428571  0.000000  0.117647     12.000000
  0.142857  0.142857  0.117647     12.000000
  0.285714  0.142857  0.117647     12.000000
  0.428571  0.142857  0.117647     12.000000
 -0.428571  0.142857  0.117647     12.000000
  0.285714  0.285714  0.117647     12.000000
  0.000000  0.000000  0.176471      2.000000
  0.142857  0.000000  0.176471     12.000000
  0.285714  0.000000  0.176471     12.000000
  0.428571  0.000000  0.176471     12.000000
  0.142857  0.142857  0.176471     12.000000
  0.285714  0.142857  0.176471     12.000000
  0.428571  0.142857  0.176471     12.000000
 -0.428571  0.142857  0.176471     12.000000
  0.285714  0.285714  0.176471     12.000000
  0.000000  0.000000  0.235294      2.000000
  0.142857  0.000000  0.235294     12.000000
  0.285714  0.000000  0.235294     12.000000
  0.428571  0.000000  0.235294     12.000000
  0.142857  0.142857  0.235294     12.000000
  0.285714  0.142857  0.235294     12.000000
  0.428571  0.142857  0.235294     12.000000
 -0.428571  0.142857  0.235294     12.000000
  0.285714  0.285714  0.235294     12.000000
  0.000000  0.000000  0.294118      2.000000
  0.142857  0.000000  0.294118     12.000000
  0.285714  0.000000  0.294118     12.000000
  0.428571  0.000000  0.294118     12.000000
  0.142857  0.142857  0.294118     12.000000
  0.285714  0.142857  0.294118     12.000000
  0.428571  0.142857  0.294118     12.000000
 -0.428571  0.142857  0.294118     12.000000
  0.285714  0.285714  0.294118     12.000000
  0.000000  0.000000  0.352941      2.000000
  0.142857  0.000000  0.352941     12.000000
  0.285714  0.000000  0.352941     12.000000
  0.428571  0.000000  0.352941     12.000000
  0.142857  0.142857  0.352941     12.000000
  0.285714  0.142857  0.352941     12.000000
  0.428571  0.142857  0.352941     12.000000
 -0.428571  0.142857  0.352941     12.000000
  0.285714  0.285714  0.352941     12.000000
  0.000000  0.000000  0.411765      2.000000
  0.142857  0.000000  0.411765     12.000000
  0.285714  0.000000  0.411765     12.000000
  0.428571  0.000000  0.411765     12.000000
  0.142857  0.142857  0.411765     12.000000
  0.285714  0.142857  0.411765     12.000000
  0.428571  0.142857  0.411765     12.000000
 -0.428571  0.142857  0.411765     12.000000
  0.285714  0.285714  0.411765     12.000000
  0.000000  0.000000  0.470588      2.000000
  0.142857  0.000000  0.470588     12.000000
  0.285714  0.000000  0.470588     12.000000
  0.428571  0.000000  0.470588     12.000000
  0.142857  0.142857  0.470588     12.000000
  0.285714  0.142857  0.470588     12.000000
  0.428571  0.142857  0.470588     12.000000
 -0.428571  0.142857  0.470588     12.000000
  0.285714  0.285714  0.470588     12.000000
 
 Following cartesian coordinates:
            Coordinates               Weight
  0.000000  0.000000  0.000000      1.000000
  0.018690 -0.010791  0.000000      6.000000
  0.037380 -0.021581  0.000000      6.000000
  0.056070 -0.032372  0.000000      6.000000
  0.037380  0.000000  0.000000      6.000000
  0.056070 -0.010791  0.000000      6.000000
  0.074759 -0.021581  0.000000      6.000000
 -0.037380  0.043162  0.000000      6.000000
  0.074759  0.000000  0.000000      6.000000
  0.000000  0.000000  0.021880      2.000000
  0.018690 -0.010791  0.021880     12.000000
  0.037380 -0.021581  0.021880     12.000000
  0.056070 -0.032372  0.021880     12.000000
  0.037380  0.000000  0.021880     12.000000
  0.056070 -0.010791  0.021880     12.000000
  0.074759 -0.021581  0.021880     12.000000
 -0.037380  0.043162  0.021880     12.000000
  0.074759  0.000000  0.021880     12.000000
  0.000000  0.000000  0.043760      2.000000
  0.018690 -0.010791  0.043760     12.000000
  0.037380 -0.021581  0.043760     12.000000
  0.056070 -0.032372  0.043760     12.000000
  0.037380  0.000000  0.043760     12.000000
  0.056070 -0.010791  0.043760     12.000000
  0.074759 -0.021581  0.043760     12.000000
 -0.037380  0.043162  0.043760     12.000000
  0.074759  0.000000  0.043760     12.000000
  0.000000  0.000000  0.065640      2.000000
  0.018690 -0.010791  0.065640     12.000000
  0.037380 -0.021581  0.065640     12.000000
  0.056070 -0.032372  0.065640     12.000000
  0.037380  0.000000  0.065640     12.000000
  0.056070 -0.010791  0.065640     12.000000
  0.074759 -0.021581  0.065640     12.000000
 -0.037380  0.043162  0.065640     12.000000
  0.074759  0.000000  0.065640     12.000000
  0.000000  0.000000  0.087520      2.000000
  0.018690 -0.010791  0.087520     12.000000
  0.037380 -0.021581  0.087520     12.000000
  0.056070 -0.032372  0.087520     12.000000
  0.037380  0.000000  0.087520     12.000000
  0.056070 -0.010791  0.087520     12.000000
  0.074759 -0.021581  0.087520     12.000000
 -0.037380  0.043162  0.087520     12.000000
  0.074759  0.000000  0.087520     12.000000
  0.000000  0.000000  0.109399      2.000000
  0.018690 -0.010791  0.109399     12.000000
  0.037380 -0.021581  0.109399     12.000000
  0.056070 -0.032372  0.109399     12.000000
  0.037380  0.000000  0.109399     12.000000
  0.056070 -0.010791  0.109399     12.000000
  0.074759 -0.021581  0.109399     12.000000
 -0.037380  0.043162  0.109399     12.000000
  0.074759  0.000000  0.109399     12.000000
  0.000000  0.000000  0.131279      2.000000
  0.018690 -0.010791  0.131279     12.000000
  0.037380 -0.021581  0.131279     12.000000
  0.056070 -0.032372  0.131279     12.000000
  0.037380  0.000000  0.131279     12.000000
  0.056070 -0.010791  0.131279     12.000000
  0.074759 -0.021581  0.131279     12.000000
 -0.037380  0.043162  0.131279     12.000000
  0.074759  0.000000  0.131279     12.000000
  0.000000  0.000000  0.153159      2.000000
  0.018690 -0.010791  0.153159     12.000000
  0.037380 -0.021581  0.153159     12.000000
  0.056070 -0.032372  0.153159     12.000000
  0.037380  0.000000  0.153159     12.000000
  0.056070 -0.010791  0.153159     12.000000
  0.074759 -0.021581  0.153159     12.000000
 -0.037380  0.043162  0.153159     12.000000
  0.074759  0.000000  0.153159     12.000000
  0.000000  0.000000  0.175039      2.000000
  0.018690 -0.010791  0.175039     12.000000
  0.037380 -0.021581  0.175039     12.000000
  0.056070 -0.032372  0.175039     12.000000
  0.037380  0.000000  0.175039     12.000000
  0.056070 -0.010791  0.175039     12.000000
  0.074759 -0.021581  0.175039     12.000000
 -0.037380  0.043162  0.175039     12.000000
  0.074759  0.000000  0.175039     12.000000
 


--------------------------------------------------------------------------------------------------------




 Dimension of arrays:
   k-points           NKPTS =     81   k-points in BZ     NKDIM =     81   number of bands    NBANDS=     40
   number of dos      NEDOS =    301   number of ions     NIONS =     14
   non local maximal  LDIM  =      4   non local SUM 2l+1 LMDIM =      8
   total plane-waves  NPLWV =  45000
   max r-space proj   IRMAX =   6832   max aug-charges    IRDMAX=  11259
   dimension x,y,z NGX =    50 NGY =   50 NGZ =   18
   dimension x,y,z NGXF=   100 NGYF=  100 NGZF=   36
   support grid    NGXF=   100 NGYF=  100 NGZF=   36
   ions per type =               6   8
   NGX,Y,Z   is equivalent  to a cutoff of  10.87, 10.87, 11.13 a.u.
   NGXF,Y,Z  is equivalent  to a cutoff of  21.75, 21.75, 22.26 a.u.

 SYSTEM =  unknown system                          
 POSCAR =  Si6 N8                                  

 Startparameter for this run:
   NWRITE =      2    write-flag & timer
   PREC   = accura    normal or accurate (medium, high low for compatibility)
   ISTART =      0    job   : 0-new  1-cont  2-samecut
   ICHARG =      2    charge: 1-file 2-atom 10-const
   ISPIN  =      1    spin polarized calculation?
   LNONCOLLINEAR =      F non collinear calculations
   LSORBIT =      F    spin-orbit coupling
   INIWAV =      1    electr: 0-lowe 1-rand  2-diag
   LASPH  =      F    aspherical Exc in radial PAW
   METAGGA=      F    non-selfconsistent MetaGGA calc.

 Electronic Relaxation 1
   ENCUT  =  400.0 eV  29.40 Ry    5.42 a.u.  12.46 12.46  4.38*2*pi/ulx,y,z
   ENINI  =  400.0     initial cutoff
   ENAUG  =  627.1 eV  augmentation charge cutoff
   NELM   =     60;   NELMIN=  2; NELMDL= -5     # of ELM steps 
   EDIFF  = 0.1E-03   stopping-criterion for ELM
   LREAL  =      T    real-space projection
   NLSPLINE    = F    spline interpolate recip. space projectors
   LCOMPAT=      F    compatible to vasp.4.4
   GGA_COMPAT  = T    GGA compatible to vasp.4.4-vasp.4.6
   LMAXPAW     = -100 max onsite density
   LMAXMIX     =    2 max onsite mixed and CHGCAR
   VOSKOWN=      0    Vosko Wilk Nusair interpolation
   ROPT   =   -0.00025  -0.00025
 Ionic relaxation
   EDIFFG = 0.1E-02   stopping-criterion for IOM
   NSW    =    100    number of steps for IOM
   NBLOCK =      1;   KBLOCK =    100    inner block; outer block 
   IBRION =      2    ionic relax: 0-MD 1-quasi-New 2-CG
   NFREE  =      1    steps in history (QN), initial steepest desc. (CG)
   ISIF   =      2    stress and relaxation
   IWAVPR =     11    prediction:  0-non 1-charg 2-wave 3-comb
   ISYM   =      2    0-nonsym 1-usesym 2-fastsym
   LCORR  =      T    Harris-Foulkes like correction to forces

   POTIM  = 0.5000    time-step for ionic-motion
   TEIN   =    0.0    initial temperature
   TEBEG  =    0.0;   TEEND  =   0.0 temperature during run
   SMASS  =  -3.00    Nose mass-parameter (am)
   estimated Nose-frequenzy (Omega)   =  0.10E-29 period in steps =****** mass=  -0.134E-26a.u.
   SCALEE = 1.0000    scale energy and forces
   NPACO  =    256;   APACO  = 16.0  distance and # of slots for P.C.
   PSTRESS=    0.0 pullay stress

  Mass of Ions in am
   POMASS =  14.00 28.09
  Ionic Valenz
   ZVAL   =   5.00  4.00
  Atomic Wigner-Seitz radii
   RWIGS  =  -1.00 -1.00
  virtual crystal weights 
   VCA    =   1.00  1.00
   NELECT =      62.0000    total number of electrons
   NUPDOWN=      -1.0000    fix difference up-down

 DOS related values:
   EMIN   =  10.00;   EMAX   =-10.00  energy-range for DOS
   EFERMI =   0.00
   ISMEAR =     2;   SIGMA  =   0.10  broadening in eV -4-tet -1-fermi 0-gaus

 Electronic relaxation 2 (details)
   IALGO  =     68    algorithm
   LDIAG  =      T    sub-space diagonalisation (order eigenvalues)
   LSUBROT=      F    optimize rotation matrix (better conditioning)
   TURBO    =      0    0=normal 1=particle mesh
   IRESTART =      0    0=no restart 2=restart with 2 vectors
   NREBOOT  =      0    no. of reboots
   NMIN     =      0    reboot dimension
   EREF     =   0.00    reference energy to select bands
   IMIX   =      4    mixing-type and parameters
     AMIX     =   0.40;   BMIX     =  1.00
     AMIX_MAG =   1.60;   BMIX_MAG =  1.00
     AMIN     =   0.10
     WC   =   100.;   INIMIX=   1;  MIXPRE=   1;  MAXMIX= -45

 Intra band minimization:
   WEIMIN = 0.0010     energy-eigenvalue tresh-hold
   EBREAK =  0.63E-06  absolut break condition
   DEPER  =   0.30     relativ break condition  

   TIME   =   0.40     timestep for ELM

  volume/ion in A,a.u.               =       9.72        65.57
  Fermi-wavevector in a.u.,A,eV,Ry     =   1.259879  2.380826 21.596468  1.587296
  Thomas-Fermi vector in A             =   2.393417
 
 Write flags
   LWAVE        =      F    write WAVECAR
   LDOWNSAMPLE  =      F    k-point downsampling of WAVECAR
   LCHARG       =      F    write CHGCAR
   LVTOT        =      F    write LOCPOT, total local potential
   LVHAR        =      F    write LOCPOT, Hartree potential only
   LELF         =      F    write electronic localiz. function (ELF)
   LORBIT       =      0    0 simple, 1 ext, 2 COOP (PROOUT), +10 PAW based schemes


 Dipole corrections
   LMONO  =      F    monopole corrections only (constant potential shift)
   LDIPOL =      F    correct potential (dipole corrections)
   IDIPOL =      0    1-x, 2-y, 3-z, 4-all directions 
   EPSILON=  1.0000000 bulk dielectric constant

 Exchange correlation treatment:
   GGA     =    --    GGA type
   LEXCH   =     8    internal setting for exchange type
   VOSKOWN=      0    Vosko Wilk Nusair interpolation
   LHFCALC =     F    Hartree Fock is set to
   LHFONE  =     F    Hartree Fock one center treatment
   AEXX    =    0.0000 exact exchange contribution

 Linear response parameters
   LEPSILON=     F    determine dielectric tensor
   LRPA    =     F    only Hartree local field effects (RPA)
   LNABLA  =     F    use nabla operator in PAW spheres
   LVEL    =     F    velocity operator in full k-point grid
   LINTERFAST=   F  fast interpolation
   KINTER  =     0    interpolate to denser k-point grid
   CSHIFT  =0.1000    complex shift for real part using Kramers Kronig
   OMEGAMAX=  -1.0    maximum frequency
   DEG_THRESHOLD= 0.2000000E-02 threshold for treating states as degnerate
   RTIME   =   -0.100 relaxation time in fs
  (WPLASMAI=    0.000 imaginary part of plasma frequency in eV, 0.658/RTIME)
   DFIELD  = 0.0000000 0.0000000 0.0000000 field for delta impulse in time
 
 Orbital magnetization related:
   ORBITALMAG=     F  switch on orbital magnetization
   LCHIMAG   =     F  perturbation theory with respect to B field
   DQ        =  0.001000  dq finite difference perturbation B field
   LLRAUG    =     F  two centre corrections for induced B field



--------------------------------------------------------------------------------------------------------


 conjugate gradient relaxation of ions
 charge density and potential will be updated during run
 non-spin polarized calculation
 RMM-DIIS sequential band-by-band and
  variant of blocked Davidson during initial phase
 perform sub-space diagonalisation
    before iterative eigenvector-optimisation
 modified Broyden-mixing scheme, WC =      100.0
 initial mixing is a Kerker type mixing with AMIX =  0.4000 and BMIX =      1.0000
 Hartree-type preconditioning will be used
 using additional bands            9
 real space projection scheme for non local part
 use partial core corrections
 calculate Harris-corrections to forces 
   (improved forces if not selfconsistent)
 use gradient corrections 
 use of overlap-Matrix (Vanderbilt PP)
 Methfessel and Paxton  Order N= 2 SIGMA  =   0.10


--------------------------------------------------------------------------------------------------------


  energy-cutoff  :      400.00
  volume of cell :      136.03
      direct lattice vectors                 reciprocal lattice vectors
     3.821786721 -6.619528764  0.000000000     0.130828860 -0.075534078  0.000000000
     3.821786711  6.619528770  0.000000000     0.130828860  0.075534078  0.000000000
     0.000000000  0.000000000  2.688474706     0.000000000  0.000000000  0.371958121

  length of vectors
     7.643573431  7.643573431  2.688474706     0.151068155  0.151068155  0.371958121


 
 k-points in units of 2pi/SCALE and weight: Automatic mesh                          
   0.00000000  0.00000000  0.00000000       0.001
   0.01868984 -0.01079058  0.00000000       0.007
   0.03737967 -0.02158117  0.00000000       0.007
   0.05606951 -0.03237175  0.00000000       0.007
   0.03737967  0.00000000  0.00000000       0.007
   0.05606951 -0.01079058  0.00000000       0.007
   0.07475935 -0.02158116  0.00000000       0.007
  -0.03737967  0.04316233  0.00000000       0.007
   0.07475935  0.00000000  0.00000000       0.007
   0.00000000  0.00000000  0.02187989       0.002
   0.01868984 -0.01079058  0.02187989       0.014
   0.03737967 -0.02158117  0.02187989       0.014
   0.05606951 -0.03237175  0.02187989       0.014
   0.03737967  0.00000000  0.02187989       0.014
   0.05606951 -0.01079058  0.02187989       0.014
   0.07475935 -0.02158116  0.02187989       0.014
  -0.03737967  0.04316233  0.02187989       0.014
   0.07475935  0.00000000  0.02187989       0.014
   0.00000000  0.00000000  0.04375978       0.002
   0.01868984 -0.01079058  0.04375978       0.014
   0.03737967 -0.02158117  0.04375978       0.014
   0.05606951 -0.03237175  0.04375978       0.014
   0.03737967  0.00000000  0.04375978       0.014
   0.05606951 -0.01079058  0.04375978       0.014
   0.07475935 -0.02158116  0.04375978       0.014
  -0.03737967  0.04316233  0.04375978       0.014
   0.07475935  0.00000000  0.04375978       0.014
   0.00000000  0.00000000  0.06563967       0.002
   0.01868984 -0.01079058  0.06563967       0.014
   0.03737967 -0.02158117  0.06563967       0.014
   0.05606951 -0.03237175  0.06563967       0.014
   0.03737967  0.00000000  0.06563967       0.014
   0.05606951 -0.01079058  0.06563967       0.014
   0.07475935 -0.02158116  0.06563967       0.014
  -0.03737967  0.04316233  0.06563967       0.014
   0.07475935  0.00000000  0.06563967       0.014
   0.00000000  0.00000000  0.08751956       0.002
   0.01868984 -0.01079058  0.08751956       0.014
   0.03737967 -0.02158117  0.08751956       0.014
   0.05606951 -0.03237175  0.08751956       0.014
   0.03737967  0.00000000  0.08751956       0.014
   0.05606951 -0.01079058  0.08751956       0.014
   0.07475935 -0.02158116  0.08751956       0.014
  -0.03737967  0.04316233  0.08751956       0.014
   0.07475935  0.00000000  0.08751956       0.014
   0.00000000  0.00000000  0.10939945       0.002
   0.01868984 -0.01079058  0.10939945       0.014
   0.03737967 -0.02158117  0.10939945       0.014
   0.05606951 -0.03237175  0.10939945       0.014
   0.03737967  0.00000000  0.10939945       0.014
   0.05606951 -0.01079058  0.10939945       0.014
   0.07475935 -0.02158116  0.10939945       0.014
  -0.03737967  0.04316233  0.10939945       0.014
   0.07475935  0.00000000  0.10939945       0.014
   0.00000000  0.00000000  0.13127934       0.002
   0.01868984 -0.01079058  0.13127934       0.014
   0.03737967 -0.02158117  0.13127934       0.014
   0.05606951 -0.03237175  0.13127934       0.014
   0.03737967  0.00000000  0.13127934       0.014
   0.05606951 -0.01079058  0.13127934       0.014
   0.07475935 -0.02158116  0.13127934       0.014
  -0.03737967  0.04316233  0.13127934       0.014
   0.07475935  0.00000000  0.13127934       0.014
   0.00000000  0.00000000  0.15315923       0.002
   0.01868984 -0.01079058  0.15315923       0.014
   0.03737967 -0.02158117  0.15315923       0.014
   0.05606951 -0.03237175  0.15315923       0.014
   0.03737967  0.00000000  0.15315923       0.014
   0.05606951 -0.01079058  0.15315923       0.014
   0.07475935 -0.02158116  0.15315923       0.014
  -0.03737967  0.04316233  0.15315923       0.014
   0.07475935  0.00000000  0.15315923       0.014
   0.00000000  0.00000000  0.17503912       0.002
   0.01868984 -0.01079058  0.17503912       0.014
   0.03737967 -0.02158117  0.17503912       0.014
   0.05606951 -0.03237175  0.17503912       0.014
   0.03737967  0.00000000  0.17503912       0.014
   0.05606951 -0.01079058  0.17503912       0.014
   0.07475935 -0.02158116  0.17503912       0.014
  -0.03737967  0.04316233  0.17503912       0.014
   0.07475935  0.00000000  0.17503912       0.014
 
 k-points in reciprocal lattice and weights: Automatic mesh                          
   0.00000000  0.00000000  0.00000000       0.001
   0.14285714  0.00000000  0.00000000       0.007
   0.28571429  0.00000000  0.00000000       0.007
   0.42857143  0.00000000  0.00000000       0.007
   0.14285714  0.14285714  0.00000000       0.007
   0.28571429  0.14285714  0.00000000       0.007
   0.42857143  0.14285714  0.00000000       0.007
  -0.42857143  0.14285714  0.00000000       0.007
   0.28571429  0.28571429  0.00000000       0.007
   0.00000000  0.00000000  0.05882353       0.002
   0.14285714  0.00000000  0.05882353       0.014
   0.28571429  0.00000000  0.05882353       0.014
   0.42857143  0.00000000  0.05882353       0.014
   0.14285714  0.14285714  0.05882353       0.014
   0.28571429  0.14285714  0.05882353       0.014
   0.42857143  0.14285714  0.05882353       0.014
  -0.42857143  0.14285714  0.05882353       0.014
   0.28571429  0.28571429  0.05882353       0.014
   0.00000000  0.00000000  0.11764706       0.002
   0.14285714  0.00000000  0.11764706       0.014
   0.28571429  0.00000000  0.11764706       0.014
   0.42857143  0.00000000  0.11764706       0.014
   0.14285714  0.14285714  0.11764706       0.014
   0.28571429  0.14285714  0.11764706       0.014
   0.42857143  0.14285714  0.11764706       0.014
  -0.42857143  0.14285714  0.11764706       0.014
   0.28571429  0.28571429  0.11764706       0.014
   0.00000000  0.00000000  0.17647059       0.002
   0.14285714  0.00000000  0.17647059       0.014
   0.28571429  0.00000000  0.17647059       0.014
   0.42857143  0.00000000  0.17647059       0.014
   0.14285714  0.14285714  0.17647059       0.014
   0.28571429  0.14285714  0.17647059       0.014
   0.42857143  0.14285714  0.17647059       0.014
  -0.42857143  0.14285714  0.17647059       0.014
   0.28571429  0.28571429  0.17647059       0.014
   0.00000000  0.00000000  0.23529412       0.002
   0.14285714  0.00000000  0.23529412       0.014
   0.28571429  0.00000000  0.23529412       0.014
   0.42857143  0.00000000  0.23529412       0.014
   0.14285714  0.14285714  0.23529412       0.014
   0.28571429  0.14285714  0.23529412       0.014
   0.42857143  0.14285714  0.23529412       0.014
  -0.42857143  0.14285714  0.23529412       0.014
   0.28571429  0.28571429  0.23529412       0.014
   0.00000000  0.00000000  0.29411765       0.002
   0.14285714  0.00000000  0.29411765       0.014
   0.28571429  0.00000000  0.29411765       0.014
   0.42857143  0.00000000  0.29411765       0.014
   0.14285714  0.14285714  0.29411765       0.014
   0.28571429  0.14285714  0.29411765       0.014
   0.42857143  0.14285714  0.29411765       0.014
  -0.42857143  0.14285714  0.29411765       0.014
   0.28571429  0.28571429  0.29411765       0.014
   0.00000000  0.00000000  0.35294118       0.002
   0.14285714  0.00000000  0.35294118       0.014
   0.28571429  0.00000000  0.35294118       0.014
   0.42857143  0.00000000  0.35294118       0.014
   0.14285714  0.14285714  0.35294118       0.014
   0.28571429  0.14285714  0.35294118       0.014
   0.42857143  0.14285714  0.35294118       0.014
  -0.42857143  0.14285714  0.35294118       0.014
   0.28571429  0.28571429  0.35294118       0.014
   0.00000000  0.00000000  0.41176471       0.002
   0.14285714  0.00000000  0.41176471       0.014
   0.28571429  0.00000000  0.41176471       0.014
   0.42857143  0.00000000  0.41176471       0.014
   0.14285714  0.14285714  0.41176471       0.014
   0.28571429  0.14285714  0.41176471       0.014
   0.42857143  0.14285714  0.41176471       0.014
  -0.42857143  0.14285714  0.41176471       0.014
   0.28571429  0.28571429  0.41176471       0.014
   0.00000000  0.00000000  0.47058824       0.002
   0.14285714  0.00000000  0.47058824       0.014
   0.28571429  0.00000000  0.47058824       0.014
   0.42857143  0.00000000  0.47058824       0.014
   0.14285714  0.14285714  0.47058824       0.014
   0.28571429  0.14285714  0.47058824       0.014
   0.42857143  0.14285714  0.47058824       0.014
  -0.42857143  0.14285714  0.47058824       0.014
   0.28571429  0.28571429  0.47058824       0.014
 
 position of ions in fractional coordinates (direct lattice) 
   0.19708959  0.83151770  0.75000000
   0.36557189  0.19708959  0.25000000
   0.83151770  0.63442811  0.25000000
   0.16848230  0.36557189  0.75000000
   0.63442811  0.80291041  0.75000000
   0.80291041  0.16848230  0.25000000
   0.33333333  0.66666667  0.75000000
   0.66666667  0.33333333  0.25000000
   0.96358754  0.61246345  0.75000000
   0.35112409  0.96358754  0.25000000
   0.61246345  0.64887591  0.25000000
   0.38753655  0.35112409  0.75000000
   0.03641246  0.38753655  0.25000000
   0.64887591  0.03641246  0.75000000
 
 position of ions in cartesian coordinates  (Angst):
   3.93111769  4.19961513  2.01635603
   2.15037218 -1.11527341  0.67211868
   5.60253223 -1.30464022  0.67211868
   2.04104120  1.30464023  2.01635603
   5.49320125  1.11527342  2.01635603
   3.71245574 -4.19961512  0.67211868
   3.82178671  2.20650959  2.01635603
   3.82178672 -2.20650959  0.67211868
   6.02333074 -2.32427602  2.01635603
   5.02454745  4.05421943  0.67211868
   4.82057001  0.24103332  0.67211868
   2.82300343 -0.24103332  2.01635603
   1.62024269  2.32427602  0.67211868
   2.61902598 -4.05421942  2.01635603
 


--------------------------------------------------------------------------------------------------------


 k-point  1 :   0.0000 0.0000 0.0000  plane waves:    2481
 k-point  2 :   0.1429 0.0000 0.0000  plane waves:    2481
 k-point  3 :   0.2857 0.0000 0.0000  plane waves:    2492
 k-point  4 :   0.4286 0.0000 0.0000  plane waves:    2498
 k-point  5 :   0.1429 0.1429 0.0000  plane waves:    2481
 k-point  6 :   0.2857 0.1429 0.0000  plane waves:    2484
 k-point  7 :   0.4286 0.1429 0.0000  plane waves:    2474
 k-point  8 :  -0.4286 0.1429 0.0000  plane waves:    2484
 k-point  9 :   0.2857 0.2857 0.0000  plane waves:    2486
 k-point 10 :   0.0000 0.0000 0.0588  plane waves:    2487
 k-point 11 :   0.1429 0.0000 0.0588  plane waves:    2489
 k-point 12 :   0.2857 0.0000 0.0588  plane waves:    2488
 k-point 13 :   0.4286 0.0000 0.0588  plane waves:    2483
 k-point 14 :   0.1429 0.1429 0.0588  plane waves:    2485
 k-point 15 :   0.2857 0.1429 0.0588  plane waves:    2484
 k-point 16 :   0.4286 0.1429 0.0588  plane waves:    2484
 k-point 17 :  -0.4286 0.1429 0.0588  plane waves:    2484
 k-point 18 :   0.2857 0.2857 0.0588  plane waves:    2483
 k-point 19 :   0.0000 0.0000 0.1176  plane waves:    2475
 k-point 20 :   0.1429 0.0000 0.1176  plane waves:    2485
 k-point 21 :   0.2857 0.0000 0.1176  plane waves:    2485
 k-point 22 :   0.4286 0.0000 0.1176  plane waves:    2490
 k-point 23 :   0.1429 0.1429 0.1176  plane waves:    2489
 k-point 24 :   0.2857 0.1429 0.1176  plane waves:    2480
 k-point 25 :   0.4286 0.1429 0.1176  plane waves:    2481
 k-point 26 :  -0.4286 0.1429 0.1176  plane waves:    2480
 k-point 27 :   0.2857 0.2857 0.1176  plane waves:    2482
 k-point 28 :   0.0000 0.0000 0.1765  plane waves:    2475
 k-point 29 :   0.1429 0.0000 0.1765  plane waves:    2483
 k-point 30 :   0.2857 0.0000 0.1765  plane waves:    2472
 k-point 31 :   0.4286 0.0000 0.1765  plane waves:    2479
 k-point 32 :   0.1429 0.1429 0.1765  plane waves:    2489
 k-point 33 :   0.2857 0.1429 0.1765  plane waves:    2473
 k-point 34 :   0.4286 0.1429 0.1765  plane waves:    2476
 k-point 35 :  -0.4286 0.1429 0.1765  plane waves:    2473
 k-point 36 :   0.2857 0.2857 0.1765  plane waves:    2477
 k-point 37 :   0.0000 0.0000 0.2353  plane waves:    2487
 k-point 38 :   0.1429 0.0000 0.2353  plane waves:    2488
 k-point 39 :   0.2857 0.0000 0.2353  plane waves:    2473
 k-point 40 :   0.4286 0.0000 0.2353  plane waves:    2463
 k-point 41 :   0.1429 0.1429 0.2353  plane waves:    2481
 k-point 42 :   0.2857 0.1429 0.2353  plane waves:    2469
 k-point 43 :   0.4286 0.1429 0.2353  plane waves:    2466
 k-point 44 :  -0.4286 0.1429 0.2353  plane waves:    2469
 k-point 45 :   0.2857 0.2857 0.2353  plane waves:    2469
 k-point 46 :   0.0000 0.0000 0.2941  plane waves:    2475
 k-point 47 :   0.1429 0.0000 0.2941  plane waves:    2477
 k-point 48 :   0.2857 0.0000 0.2941  plane waves:    2471
 k-point 49 :   0.4286 0.0000 0.2941  plane waves:    2463
 k-point 50 :   0.1429 0.1429 0.2941  plane waves:    2468
 k-point 51 :   0.2857 0.1429 0.2941  plane waves:    2469
 k-point 52 :   0.4286 0.1429 0.2941  plane waves:    2472
 k-point 53 :  -0.4286 0.1429 0.2941  plane waves:    2469
 k-point 54 :   0.2857 0.2857 0.2941  plane waves:    2464
 k-point 55 :   0.0000 0.0000 0.3529  plane waves:    2451
 k-point 56 :   0.1429 0.0000 0.3529  plane waves:    2461
 k-point 57 :   0.2857 0.0000 0.3529  plane waves:    2463
 k-point 58 :   0.4286 0.0000 0.3529  plane waves:    2454
 k-point 59 :   0.1429 0.1429 0.3529  plane waves:    2458
 k-point 60 :   0.2857 0.1429 0.3529  plane waves:    2462
 k-point 61 :   0.4286 0.1429 0.3529  plane waves:    2449
 k-point 62 :  -0.4286 0.1429 0.3529  plane waves:    2462
 k-point 63 :   0.2857 0.2857 0.3529  plane waves:    2471
 k-point 64 :   0.0000 0.0000 0.4118  plane waves:    2462
 k-point 65 :   0.1429 0.0000 0.4118  plane waves:    2464
 k-point 66 :   0.2857 0.0000 0.4118  plane waves:    2464
 k-point 67 :   0.4286 0.0000 0.4118  plane waves:    2446
 k-point 68 :   0.1429 0.1429 0.4118  plane waves:    2457
 k-point 69 :   0.2857 0.1429 0.4118  plane waves:    2448
 k-point 70 :   0.4286 0.1429 0.4118  plane waves:    2456
 k-point 71 :  -0.4286 0.1429 0.4118  plane waves:    2448
 k-point 72 :   0.2857 0.2857 0.4118  plane waves:    2461
 k-point 73 :   0.0000 0.0000 0.4706  plane waves:    2480
 k-point 74 :   0.1429 0.0000 0.4706  plane waves:    2472
 k-point 75 :   0.2857 0.0000 0.4706  plane waves:    2460
 k-point 76 :   0.4286 0.0000 0.4706  plane waves:    2458
 k-point 77 :   0.1429 0.1429 0.4706  plane waves:    2458
 k-point 78 :   0.2857 0.1429 0.4706  plane waves:    2450
 k-point 79 :   0.4286 0.1429 0.4706  plane waves:    2460
 k-point 80 :  -0.4286 0.1429 0.4706  plane waves:    2450
 k-point 81 :   0.2857 0.2857 0.4706  plane waves:    2453

 maximum and minimum number of plane-waves per node :       647      592

 maximum number of plane-waves:      2498
 maximum index in each direction: 
   IXMAX=   12   IYMAX=   12   IZMAX=    4
   IXMIN=  -12   IYMIN=  -12   IZMIN=   -4


 real space projection operators:
  total allocation   :       4240.50 KBytes
  max/ min on nodes  :       1101.00       1017.25


 parallel 3D FFT for wavefunctions:
    minimum data exchange during FFTs selected (reduces bandwidth)
 parallel 3D FFT for charge:
    minimum data exchange during FFTs selected (reduces bandwidth)


 total amount of memory used by VASP MPI-rank0    44911. kBytes
=======================================================================

   base      :      30000. kBytes
   nonlr-proj:       2974. kBytes
   fftplans  :       1220. kBytes
   grid      :       1945. kBytes
   one-center:         12. kBytes
   wavefun   :       8760. kBytes
 
     INWAV:  cpu time    0.0000: real time    0.0000
 Broyden mixing: mesh for mixing (old mesh)
   NGX = 25   NGY = 25   NGZ =  9
  (NGX  =100   NGY  =100   NGZ  = 36)
  gives a total of   5625 points

 initial charge density was supplied:
 charge density of overlapping atoms calculated
 number of electron      62.0000000 magnetization 
 keeping initial charge density in first step


--------------------------------------------------------------------------------------------------------


 Maximum index for non-local projection operator         1758
 Maximum index for augmentation-charges         1075 (set IRDMAX)


--------------------------------------------------------------------------------------------------------


 First call to EWALD:  gamma=   0.345
 Maximum number of real-space cells 2x 2x 5
 Maximum number of reciprocal cells 4x 4x 2

    FEWALD:  cpu time    0.0017: real time    0.0017


--------------------------------------- Iteration      1(   1)  ---------------------------------------


    POTLOK:  cpu time    0.3368: real time    0.3377
    SETDIJ:  cpu time    0.0029: real time    0.0029
     EDDAV:  cpu time    2.3460: real time    2.3459
       DOS:  cpu time    0.0029: real time    0.0029
    --------------------------------------------
      LOOP:  cpu time    2.6885: real time    2.6894

 eigenvalue-minimisations  :  6504
 total energy-change (2. order) : 0.2362141E+03  (-0.2616130E+04)
 number of electron      62.0000000 magnetization 
 augmentation part       62.0000000 magnetization 

 Free energy of the ion-electron system (eV)
  ---------------------------------------------------
  alpha Z        PSCENC =        89.61755392
  Ewald energy   TEWEN  =     -2339.69296604
  -Hartree energ DENC   =      -488.82812833
  -exchange      EXHF   =         0.00000000
  -V(xc)+E(xc)   XCENC  =        57.90297697
  PAW double counting   =      1934.58678659    -1800.98643654
  entropy T*S    EENTRO =         0.00039633
  eigenvalues    EBANDS =       372.23793480
  atomic energy  EATOM  =      2411.37598431
  Solvation  Ediel_sol  =         0.00000000
  ---------------------------------------------------
  free energy    TOTEN  =       236.21410202 eV

  energy without entropy =      236.21370568  energy(sigma->0) =      236.21400293


--------------------------------------------------------------------------------------------------------




--------------------------------------- Iteration      1(   2)  ---------------------------------------


     EDDAV:  cpu time    2.8282: real time    2.8290
       DOS:  cpu time    0.0030: real time    0.0029
    --------------------------------------------
      LOOP:  cpu time    2.8311: real time    2.8320

 eigenvalue-minimisations  :  8136
 total energy-change (2. order) :-0.3198995E+03  (-0.3064107E+03)
 number of electron      62.0000000 magnetization 
 augmentation part       62.0000000 magnetization 

 Free energy of the ion-electron system (eV)
  ---------------------------------------------------
  alpha Z        PSCENC =        89.61755392
  Ewald energy   TEWEN  =     -2339.69296604
  -Hartree energ DENC   =      -488.82812833
  -exchange      EXHF   =         0.00000000
  -V(xc)+E(xc)   XCENC  =        57.90297697
  PAW double counting   =      1934.58678659    -1800.98643654
  entropy T*S    EENTRO =        -0.00006927
  eigenvalues    EBANDS =        52.33892276
  atomic energy  EATOM  =      2411.37598431
  Solvation  Ediel_sol  =         0.00000000
  ---------------------------------------------------
  free energy    TOTEN  =       -83.68537562 eV

  energy without entropy =      -83.68530635  energy(sigma->0) =      -83.68535831


--------------------------------------------------------------------------------------------------------




--------------------------------------- Iteration      1(   3)  ---------------------------------------


     EDDAV:  cpu time    2.7941: real time    2.7942
       DOS:  cpu time    0.0031: real time    0.0031
    --------------------------------------------
      LOOP:  cpu time    2.7971: real time    2.7972

 eigenvalue-minimisations  :  8032
 total energy-change (2. order) :-0.1987948E+02  (-0.1952766E+02)
 number of electron      62.0000000 magnetization 
 augmentation part       62.0000000 magnetization 

 Free energy of the ion-electron system (eV)
  ---------------------------------------------------
  alpha Z        PSCENC =        89.61755392
  Ewald energy   TEWEN  =     -2339.69296604
  -Hartree energ DENC   =      -488.82812833
  -exchange      EXHF   =         0.00000000
  -V(xc)+E(xc)   XCENC  =        57.90297697
  PAW double counting   =      1934.58678659    -1800.98643654
  entropy T*S    EENTRO =        -0.00015460
  eigenvalues    EBANDS =        32.45952437
  atomic energy  EATOM  =      2411.37598431
  Solvation  Ediel_sol  =         0.00000000
  ---------------------------------------------------
  free energy    TOTEN  =      -103.56485934 eV

  energy without entropy =     -103.56470474  energy(sigma->0) =     -103.56482069


--------------------------------------------------------------------------------------------------------




--------------------------------------- Iteration      1(   4)  ---------------------------------------


     EDDAV:  cpu time    2.9369: real time    2.9390
       DOS:  cpu time    0.0031: real time    0.0031
    --------------------------------------------
      LOOP:  cpu time    2.9399: real time    2.9421

 eigenvalue-minimisations  :  8344
 total energy-change (2. order) :-0.4318456E+00  (-0.4298780E+00)
 number of electron      62.0000000 magnetization 
 augmentation part       62.0000000 magnetization 

 Free energy of the ion-electron system (eV)
  ---------------------------------------------------
  alpha Z        PSCENC =        89.61755392
  Ewald energy   TEWEN  =     -2339.69296604
  -Hartree energ DENC   =      -488.82812833
  -exchange      EXHF   =         0.00000000
  -V(xc)+E(xc)   XCENC  =        57.90297697
  PAW double counting   =      1934.58678659    -1800.98643654
  entropy T*S    EENTRO =        -0.00002922
  eigenvalues    EBANDS =        32.02755340
  atomic energy  EATOM  =      2411.37598431
  Solvation  Ediel_sol  =         0.00000000
  ---------------------------------------------------
  free energy    TOTEN  =      -103.99670493 eV

  energy without entropy =     -103.99667571  energy(sigma->0) =     -103.99669762


--------------------------------------------------------------------------------------------------------




--------------------------------------- Iteration      1(   5)  ---------------------------------------


     EDDAV:  cpu time    2.8910: real time    2.8930
       DOS:  cpu time    0.0030: real time    0.0030
    CHARGE:  cpu time    0.1275: real time    0.1275
    MIXING:  cpu time    0.0006: real time    0.0007
    --------------------------------------------
      LOOP:  cpu time    3.0221: real time    3.0242

 eigenvalue-minimisations  :  8224
 total energy-change (2. order) :-0.8694465E-02  (-0.8689065E-02)
 number of electron      62.0000003 magnetization 
 augmentation part        0.5008985 magnetization 

 Broyden mixing:
  rms(total) = 0.27121E+01    rms(broyden)= 0.27117E+01
  rms(prec ) = 0.37558E+01
  weight for this iteration     100.00

 Free energy of the ion-electron system (eV)
  ---------------------------------------------------
  alpha Z        PSCENC =        89.61755392
  Ewald energy   TEWEN  =     -2339.69296604
  -Hartree energ DENC   =      -488.82812833
  -exchange      EXHF   =         0.00000000
  -V(xc)+E(xc)   XCENC  =        57.90297697
  PAW double counting   =      1934.58678659    -1800.98643654
  entropy T*S    EENTRO =        -0.00001690
  eigenvalues    EBANDS =        32.01884662
  atomic energy  EATOM  =      2411.37598431
  Solvation  Ediel_sol  =         0.00000000
  ---------------------------------------------------
  free energy    TOTEN  =      -104.00539939 eV

  energy without entropy =     -104.00538249  energy(sigma->0) =     -104.00539517


--------------------------------------------------------------------------------------------------------




--------------------------------------- Iteration      1(   6)  ---------------------------------------


    POTLOK:  cpu time    0.0188: real time    0.0188
    SETDIJ:  cpu time    0.0026: real time    0.0026
    EDDIAG:  cpu time    0.3671: real time    0.3672
  RMM-DIIS:  cpu time    1.5390: real time    1.5393
    ORTHCH:  cpu time    0.0372: real time    0.0372
       DOS:  cpu time    0.0030: real time    0.0030
    CHARGE:  cpu time    0.1311: real time    0.1311
    MIXING:  cpu time    0.0007: real time    0.0007
    --------------------------------------------
      LOOP:  cpu time    2.0994: real time    2.0999

 eigenvalue-minimisations  :  6480
 total energy-change (2. order) : 0.1014212E+02  (-0.4355793E+01)
 number of electron      62.0000000 magnetization 
 augmentation part       -0.1952505 magnetization 

 Broyden mixing:
  rms(total) = 0.12689E+01    rms(broyden)= 0.12684E+01
  rms(prec ) = 0.14566E+01
  weight for this iteration     100.00

 eigenvalues of (default mixing * dielectric matrix)
  average eigenvalue GAMMA=   1.2358
  1.2358

 Free energy of the ion-electron system (eV)
  ---------------------------------------------------
  alpha Z        PSCENC =        89.61755392
  Ewald energy   TEWEN  =     -2339.69296604
  -Hartree energ DENC   =      -569.44108991
  -exchange      EXHF   =         0.00000000
  -V(xc)+E(xc)   XCENC  =        63.78444357
  PAW double counting   =      4627.84467421    -4495.42977164
  entropy T*S    EENTRO =        -0.00020152
  eigenvalues    EBANDS =       118.07809674
  atomic energy  EATOM  =      2411.37598431
  Solvation  Ediel_sol  =         0.00000000
  ---------------------------------------------------
  free energy    TOTEN  =       -93.86327636 eV

  energy without entropy =      -93.86307484  energy(sigma->0) =      -93.86322598


--------------------------------------------------------------------------------------------------------




--------------------------------------- Iteration      1(   7)  ---------------------------------------


    POTLOK:  cpu time    0.0178: real time    0.0195
    SETDIJ:  cpu time    0.0031: real time    0.0031
    EDDIAG:  cpu time    0.3797: real time    0.3797
  RMM-DIIS:  cpu time    1.6054: real time    1.6054
    ORTHCH:  cpu time    0.0388: real time    0.0388
       DOS:  cpu time    0.0031: real time    0.0030
    CHARGE:  cpu time    0.1303: real time    0.1303
    MIXING:  cpu time    0.0006: real time    0.0006
    --------------------------------------------
      LOOP:  cpu time    2.1787: real time    2.1804

 eigenvalue-minimisations  :  6511
 total energy-change (2. order) : 0.4862073E+00  (-0.1905664E+00)
 number of electron      62.0000000 magnetization 
 augmentation part       -0.2417235 magnetization 

 Broyden mixing:
  rms(total) = 0.67336E+00    rms(broyden)= 0.67331E+00
  rms(prec ) = 0.77207E+00
  weight for this iteration     100.00

 eigenvalues of (default mixing * dielectric matrix)
  average eigenvalue GAMMA=   1.6537
  1.0888  2.2187

 Free energy of the ion-electron system (eV)
  ---------------------------------------------------
  alpha Z        PSCENC =        89.61755392
  Ewald energy   TEWEN  =     -2339.69296604
  -Hartree energ DENC   =      -579.87548044
  -exchange      EXHF   =         0.00000000
  -V(xc)+E(xc)   XCENC  =        64.78412860
  PAW double counting   =      7229.44602295    -7097.57828446
  entropy T*S    EENTRO =        -0.00054427
  eigenvalues    EBANDS =       128.54651639
  atomic energy  EATOM  =      2411.37598431
  Solvation  Ediel_sol  =         0.00000000
  ---------------------------------------------------
  free energy    TOTEN  =       -93.37706904 eV

  energy without entropy =      -93.37652477  energy(sigma->0) =      -93.37693297


--------------------------------------------------------------------------------------------------------




--------------------------------------- Iteration      1(   8)  ---------------------------------------


    POTLOK:  cpu time    0.0179: real time    0.0195
    SETDIJ:  cpu time    0.0023: real time    0.0023
    EDDIAG:  cpu time    0.3757: real time    0.3758
  RMM-DIIS:  cpu time    1.6261: real time    1.6263
    ORTHCH:  cpu time    0.0390: real time    0.0390
       DOS:  cpu time    0.0030: real time    0.0030
    CHARGE:  cpu time    0.1346: real time    0.1346
    MIXING:  cpu time    0.0008: real time    0.0008
    --------------------------------------------
      LOOP:  cpu time    2.1994: real time    2.2013

 eigenvalue-minimisations  :  6502
 total energy-change (2. order) : 0.1170352E+00  (-0.6987419E-01)
 number of electron      62.0000000 magnetization 
 augmentation part       -0.2147300 magnetization 

 Broyden mixing:
  rms(total) = 0.78477E-01    rms(broyden)= 0.78441E-01
  rms(prec ) = 0.13265E+00
  weight for this iteration     100.00

 eigenvalues of (default mixing * dielectric matrix)
  average eigenvalue GAMMA=   1.5921
  2.3954  1.1904  1.1904

 Free energy of the ion-electron system (eV)
  ---------------------------------------------------
  alpha Z        PSCENC =        89.61755392
  Ewald energy   TEWEN  =     -2339.69296604
  -Hartree energ DENC   =      -586.12585171
  -exchange      EXHF   =         0.00000000
  -V(xc)+E(xc)   XCENC  =        65.57423752
  PAW double counting   =     10518.78382371   -10387.46254400
  entropy T*S    EENTRO =        -0.00037328
  eigenvalues    EBANDS =       134.67010174
  atomic energy  EATOM  =      2411.37598431
  Solvation  Ediel_sol  =         0.00000000
  ---------------------------------------------------
  free energy    TOTEN  =       -93.26003384 eV

  energy without entropy =      -93.25966056  energy(sigma->0) =      -93.25994052


--------------------------------------------------------------------------------------------------------




--------------------------------------- Iteration      1(   9)  ---------------------------------------


    POTLOK:  cpu time    0.0171: real time    0.0190
    SETDIJ:  cpu time    0.0022: real time    0.0022
    EDDIAG:  cpu time    0.3771: real time    0.3771
  RMM-DIIS:  cpu time    1.6295: real time    1.6294
    ORTHCH:  cpu time    0.0370: real time    0.0370
       DOS:  cpu time    0.0030: real time    0.0030
    CHARGE:  cpu time    0.1335: real time    0.1336
    MIXING:  cpu time    0.0005: real time    0.0005
    --------------------------------------------
      LOOP:  cpu time    2.2001: real time    2.2019

 eigenvalue-minimisations  :  6508
 total energy-change (2. order) : 0.3586453E-03  (-0.1057060E-01)
 number of electron      62.0000000 magnetization 
 augmentation part       -0.2476844 magnetization 

 Broyden mixing:
  rms(total) = 0.53131E-01    rms(broyden)= 0.53107E-01
  rms(prec ) = 0.72252E-01
  weight for this iteration     100.00

 eigenvalues of (default mixing * dielectric matrix)
  average eigenvalue GAMMA=   1.6637
  1.0207  1.0207  2.3067  2.3067

 Free energy of the ion-electron system (eV)
  ---------------------------------------------------
  alpha Z        PSCENC =        89.61755392
  Ewald energy   TEWEN  =     -2339.69296604
  -Hartree energ DENC   =      -590.68046003
  -exchange      EXHF   =         0.00000000
  -V(xc)+E(xc)   XCENC  =        65.93221527
  PAW double counting   =     10837.69918814   -10706.44751398
  entropy T*S    EENTRO =        -0.00050275
  eigenvalues    EBANDS =       138.93682598
  atomic energy  EATOM  =      2411.37598431
  Solvation  Ediel_sol  =         0.00000000
  ---------------------------------------------------
  free energy    TOTEN  =       -93.25967519 eV

  energy without entropy =      -93.25917244  energy(sigma->0) =      -93.25954950


--------------------------------------------------------------------------------------------------------




--------------------------------------- Iteration      1(  10)  ---------------------------------------


    POTLOK:  cpu time    0.7651: real time    0.8408
    SETDIJ:  cpu time    0.0916: real time    0.0916
    EDDIAG:  cpu time   16.2447: real time   16.2452
  RMM-DIIS:  cpu time    1.5076: real time    1.5076
    ORTHCH:  cpu time    0.0366: real time    0.0366
       DOS:  cpu time    0.0030: real time    0.0030
    CHARGE:  cpu time    0.1312: real time    0.1312
    MIXING:  cpu time    0.0006: real time    0.0006
    --------------------------------------------
      LOOP:  cpu time   18.7803: real time   18.8565

 eigenvalue-minimisations  :  6490
 total energy-change (2. order) : 0.1909389E-02  (-0.1024983E-02)
 number of electron      62.0000000 magnetization 
 augmentation part       -0.2402821 magnetization 

 Broyden mixing:
  rms(total) = 0.18165E-01    rms(broyden)= 0.18165E-01
  rms(prec ) = 0.24871E-01
  weight for this iteration     100.00

 eigenvalues of (default mixing * dielectric matrix)
  average eigenvalue GAMMA=   1.8085
  2.8227  2.6132  1.0405  1.0405  1.5257

 Free energy of the ion-electron system (eV)
  ---------------------------------------------------
  alpha Z        PSCENC =        89.61755392
  Ewald energy   TEWEN  =     -2339.69296604
  -Hartree energ DENC   =      -589.33821796
  -exchange      EXHF   =         0.00000000
  -V(xc)+E(xc)   XCENC  =        65.82975288
  PAW double counting   =     10665.40107999   -10534.12316675
  entropy T*S    EENTRO =        -0.00044019
  eigenvalues    EBANDS =       137.67265404
  atomic energy  EATOM  =      2411.37598431
  Solvation  Ediel_sol  =         0.00000000
  ---------------------------------------------------
  free energy    TOTEN  =       -93.25776580 eV

  energy without entropy =      -93.25732561  energy(sigma->0) =      -93.25765575


--------------------------------------------------------------------------------------------------------




--------------------------------------- Iteration      1(  11)  ---------------------------------------


    POTLOK:  cpu time    0.0182: real time    0.0199
    SETDIJ:  cpu time    0.0027: real time    0.0027
    EDDIAG:  cpu time    0.3707: real time    0.3708
  RMM-DIIS:  cpu time    1.4728: real time    1.4730
    ORTHCH:  cpu time    0.0365: real time    0.0365
       DOS:  cpu time    0.0031: real time    0.0031
    CHARGE:  cpu time    0.1274: real time    0.1275
    MIXING:  cpu time    0.0006: real time    0.0006
    --------------------------------------------
      LOOP:  cpu time    2.0321: real time    2.0341

 eigenvalue-minimisations  :  6490
 total energy-change (2. order) :-0.1222465E-02  (-0.5988512E-03)
 number of electron      62.0000000 magnetization 
 augmentation part       -0.2334166 magnetization 

 Broyden mixing:
  rms(total) = 0.12250E-01    rms(broyden)= 0.12243E-01
  rms(prec ) = 0.19259E-01
  weight for this iteration     100.00

 eigenvalues of (default mixing * dielectric matrix)
  average eigenvalue GAMMA=   1.6620
  2.5636  2.5636  1.8214  0.9933  1.0151  1.0151

 Free energy of the ion-electron system (eV)
  ---------------------------------------------------
  alpha Z        PSCENC =        89.61755392
  Ewald energy   TEWEN  =     -2339.69296604
  -Hartree energ DENC   =      -589.14902451
  -exchange      EXHF   =         0.00000000
  -V(xc)+E(xc)   XCENC  =        65.81373161
  PAW double counting   =     10598.17371173   -10466.89364465
  entropy T*S    EENTRO =        -0.00040766
  eigenvalues    EBANDS =       137.49607302
  atomic energy  EATOM  =      2411.37598431
  Solvation  Ediel_sol  =         0.00000000
  ---------------------------------------------------
  free energy    TOTEN  =       -93.25898827 eV

  energy without entropy =      -93.25858061  energy(sigma->0) =      -93.25888635


--------------------------------------------------------------------------------------------------------




--------------------------------------- Iteration      1(  12)  ---------------------------------------


    POTLOK:  cpu time    0.0197: real time    0.0207
    SETDIJ:  cpu time    0.0023: real time    0.0023
    EDDIAG:  cpu time    0.3695: real time    0.3696
  RMM-DIIS:  cpu time    1.5166: real time    1.5171
    ORTHCH:  cpu time    0.0364: real time    0.0364
       DOS:  cpu time    0.0029: real time    0.0029
    CHARGE:  cpu time    0.1300: real time    0.1300
    MIXING:  cpu time    0.0006: real time    0.0006
    --------------------------------------------
      LOOP:  cpu time    2.0780: real time    2.0796

 eigenvalue-minimisations  :  6442
 total energy-change (2. order) : 0.3670171E-03  (-0.9763302E-04)
 number of electron      62.0000000 magnetization 
 augmentation part       -0.2360504 magnetization 

 Broyden mixing:
  rms(total) = 0.32721E-02    rms(broyden)= 0.32714E-02
  rms(prec ) = 0.48660E-02
  weight for this iteration     100.00

 eigenvalues of (default mixing * dielectric matrix)
  average eigenvalue GAMMA=   1.7657
  3.3678  2.4871  1.7868  1.5084  0.9845  1.1126  1.1126

 Free energy of the ion-electron system (eV)
  ---------------------------------------------------
  alpha Z        PSCENC =        89.61755392
  Ewald energy   TEWEN  =     -2339.69296604
  -Hartree energ DENC   =      -589.65470949
  -exchange      EXHF   =         0.00000000
  -V(xc)+E(xc)   XCENC  =        65.84762956
  PAW double counting   =     10610.95816782   -10479.68197595
  entropy T*S    EENTRO =        -0.00043094
  eigenvalues    EBANDS =       137.97212555
  atomic energy  EATOM  =      2411.37598431
  Solvation  Ediel_sol  =         0.00000000
  ---------------------------------------------------
  free energy    TOTEN  =       -93.25862125 eV

  energy without entropy =      -93.25819031  energy(sigma->0) =      -93.25851351


--------------------------------------------------------------------------------------------------------




--------------------------------------- Iteration      1(  13)  ---------------------------------------


    POTLOK:  cpu time    0.0147: real time    0.0165
    SETDIJ:  cpu time    0.0021: real time    0.0021
    EDDIAG:  cpu time    0.3663: real time    0.3663
  RMM-DIIS:  cpu time    1.0160: real time    1.0160
    ORTHCH:  cpu time    0.0367: real time    0.0367
       DOS:  cpu time    0.0030: real time    0.0030
    --------------------------------------------
      LOOP:  cpu time    1.4387: real time    1.4405

 eigenvalue-minimisations  :  4049
 total energy-change (2. order) :-0.2959283E-04  (-0.1796551E-04)
 number of electron      62.0000000 magnetization 
 augmentation part       -0.2360504 magnetization 

 Free energy of the ion-electron system (eV)
  ---------------------------------------------------
  alpha Z        PSCENC =        89.61755392
  Ewald energy   TEWEN  =     -2339.69296604
  -Hartree energ DENC   =      -589.78224339
  -exchange      EXHF   =         0.00000000
  -V(xc)+E(xc)   XCENC  =        65.85513179
  PAW double counting   =     10606.09684161   -10474.81986028
  entropy T*S    EENTRO =        -0.00043538
  eigenvalues    EBANDS =       138.09134262
  atomic energy  EATOM  =      2411.37598431
  Solvation  Ediel_sol  =         0.00000000
  ---------------------------------------------------
  free energy    TOTEN  =       -93.25865084 eV

  energy without entropy =      -93.25821547  energy(sigma->0) =      -93.25854200


--------------------------------------------------------------------------------------------------------




 average (electrostatic) potential at core
  the test charge radii are     0.7089  0.9892
  (the norm of the test charge is              1.0000)
       1 -58.7320       2 -58.7319       3 -58.7319       4 -58.7319       5 -58.7319
       6 -58.7320       7 -79.8996       8 -79.8996       9 -79.0733      10 -79.0733
      11 -79.0733      12 -79.0733      13 -79.0733      14 -79.0733
 
 
 
 E-fermi :  11.7071     XC(G=0): -11.5882     alpha+bet :-17.9380


 k-point     1 :       0.0000    0.0000    0.0000
  band No.  band energies     occupation 
      1      -9.7624      2.00000
      2      -8.4056      2.00000
      3      -8.4056      2.00000
      4      -7.7467      2.00000
      5      -7.7467      2.00000
      6      -7.6196      2.00000
      7      -1.1242      2.00000
      8      -1.1242      2.00000
      9      -0.9925      2.00000
     10      -0.2318      2.00000
     11       1.2975      2.00000
     12       1.6134      2.00000
     13       1.6134      2.00000
     14       3.6506      2.00000
     15       3.6506      2.00000
     16       4.8055      2.00000
     17       4.9298      2.00000
     18       4.9298      2.00000
     19       5.6840      2.00000
     20       5.7881      2.00000
     21       6.3633      2.00000
     22       6.3633      2.00000
     23       6.8967      2.00000
     24       6.8967      2.00000
     25       7.0659      2.00000
     26       8.3915      2.00000
     27       8.3915      2.00000
     28       8.4070      2.00000
     29      10.4807      2.00000
     30      10.7327      2.00000
     31      10.7327      2.00000
     32      15.1463      0.00000
     33      15.3557      0.00000
     34      15.3559      0.00000
     35      15.9159      0.00000
     36      15.9166      0.00000
     37      16.5605      0.00000
     38      16.6847      0.00000
     39      17.2167      0.00000
     40      17.2740      0.00000

 k-point     2 :       0.1429    0.0000    0.0000
  band No.  band energies     occupation 
      1      -9.7190      2.00000
      2      -8.5101      2.00000
      3      -8.4518      2.00000
      4      -7.9383      2.00000
      5      -7.6763      2.00000
      6      -7.3512      2.00000
      7      -1.4365      2.00000
      8      -1.1255      2.00000
      9      -0.9237      2.00000
     10       0.0698      2.00000
     11       1.1348      2.00000
     12       1.5276      2.00000
     13       1.7480      2.00000
     14       3.5522      2.00000
     15       3.7201      2.00000
     16       4.6914      2.00000
     17       4.8425      2.00000
     18       5.0802      2.00000
     19       5.8122      2.00000
     20       5.9771      2.00000
     21       6.3321      2.00000
     22       6.3552      2.00000
     23       6.8465      2.00000
     24       6.9099      2.00000
     25       7.1264      2.00000
     26       8.1478      2.00000
     27       8.1971      2.00000
     28       8.5241      2.00000
     29      10.4242      2.00000
     30      10.8889      2.00000
     31      10.9468      2.00000
     32      14.8455      0.00000
     33      15.2044      0.00000
     34      15.3021      0.00000
     35      15.7783      0.00000
     36      15.9508      0.00000
     37      16.6362      0.00000
     38      16.8253      0.00000
     39      16.9970      0.00000
     40      17.2651      0.00000

 k-point     3 :       0.2857    0.0000    0.0000
  band No.  band energies     occupation 
      1      -9.5919      2.00000
      2      -8.7814      2.00000
      3      -8.5340      2.00000
      4      -8.0374      2.00000
      5      -7.5374      2.00000
      6      -7.0735      2.00000
      7      -1.8627      2.00000
      8      -1.1287      2.00000
      9      -0.7288      2.00000
     10       0.3713      2.00000
     11       0.8226      2.00000
     12       1.3479      2.00000
     13       2.1815      2.00000
     14       3.3646      2.00000
     15       3.6833      2.00000
     16       4.5231      2.00000
     17       4.8680      2.00000
     18       5.3499      2.00000
     19       5.8772      2.00000
     20       6.2396      2.00000
     21       6.3343      2.00000
     22       6.4375      2.00000
     23       6.7861      2.00000
     24       6.9335      2.00000
     25       7.2076      2.00000
     26       7.6563      2.00000
     27       7.8348      2.00000
     28       8.8419      2.00000
     29      10.2446      2.00000
     30      11.1623      2.00000
     31      11.4319      1.99828
     32      13.9197      0.00000
     33      14.9484      0.00000
     34      15.3664      0.00000
     35      15.7430      0.00000
     36      16.0187      0.00000
     37      16.5437      0.00000
     38      16.7363      0.00000
     39      16.8312      0.00000
     40      17.1144      0.00000

 k-point     4 :       0.4286    0.0000    0.0000
  band No.  band energies     occupation 
      1      -9.3951      2.00000
      2      -9.0816      2.00000
      3      -8.5872      2.00000
      4      -8.0661      2.00000
      5      -7.4361      2.00000
      6      -6.9142      2.00000
      7      -2.1132      2.00000
      8      -1.1322      2.00000
      9      -0.4732      2.00000
     10       0.2176      2.00000
     11       0.7659      2.00000
     12       1.2124      2.00000
     13       2.8181      2.00000
     14       3.2343      2.00000
     15       3.4418      2.00000
     16       4.1313      2.00000
     17       5.2248      2.00000
     18       5.5526      2.00000
     19       5.9758      2.00000
     20       6.1210      2.00000
     21       6.3209      2.00000
     22       6.6348      2.00000
     23       6.7585      2.00000
     24       6.9528      2.00000
     25       7.2500      2.00000
     26       7.2557      2.00000
     27       7.6602      2.00000
     28       9.2301      2.00000
     29       9.9747      2.00000
     30      11.3188      2.00000
     31      12.0625      0.00003
     32      12.9520      0.00000
     33      14.7717      0.00000
     34      15.5868      0.00000
     35      15.7355      0.00000
     36      15.9101      0.00000
     37      16.2620      0.00000
     38      16.6041      0.00000
     39      16.8687      0.00000
     40      16.8967      0.00000

 k-point     5 :       0.1429    0.1429    0.0000
  band No.  band energies     occupation 
      1      -9.6337      2.00000
      2      -8.6263      2.00000
      3      -8.6124      2.00000
      4      -7.9730      2.00000
      5      -7.6038      2.00000
      6      -7.1321      2.00000
      7      -1.7750      2.00000
      8      -1.0946      2.00000
      9      -0.7877      2.00000
     10       0.2630      2.00000
     11       0.8814      2.00000
     12       1.5314      2.00000
     13       1.9586      2.00000
     14       3.3280      2.00000
     15       3.8807      2.00000
     16       4.5623      2.00000
     17       4.7162      2.00000
     18       5.3334      2.00000
     19       5.8566      2.00000
     20       6.2816      2.00000
     21       6.3232      2.00000
     22       6.3247      2.00000
     23       6.8085      2.00000
     24       6.9210      2.00000
     25       7.1897      2.00000
     26       7.7866      2.00000
     27       7.9406      2.00000
     28       8.7379      2.00000
     29      10.3083      2.00000
     30      11.1241      2.00000
     31      11.2544      2.00000
     32      14.2702      0.00000
     33      14.8091      0.00000
     34      15.3626      0.00000
     35      15.7424      0.00000
     36      16.0450      0.00000
     37      16.5966      0.00000
     38      16.7719      0.00000
     39      16.9544      0.00000
     40      17.1857      0.00000

 k-point     6 :       0.2857    0.1429    0.0000
  band No.  band energies     occupation 
      1      -9.4689      2.00000
      2      -8.9145      2.00000
      3      -8.7059      2.00000
      4      -7.9491      2.00000
      5      -7.5238      2.00000
      6      -6.9351      2.00000
      7      -2.0887      2.00000
      8      -1.0233      2.00000
      9      -0.5427      2.00000
     10       0.1758      2.00000
     11       0.5377      2.00000
     12       1.6702      2.00000
     13       2.4251      2.00000
     14       3.0626      2.00000
     15       3.9128      2.00000
     16       4.2435      2.00000
     17       4.8357      2.00000
     18       5.6057      2.00000
     19       5.9384      2.00000
     20       6.1892      2.00000
     21       6.2883      2.00000
     22       6.5855      2.00000
     23       6.7901      2.00000
     24       6.9310      2.00000
     25       7.2489      2.00000
     26       7.5274      2.00000
     27       7.5800      2.00000
     28       9.0982      2.00000
     29      10.0785      2.00000
     30      11.3958      1.99965
     31      11.7038      1.06950
     32      13.3851      0.00000
     33      14.4423      0.00000
     34      15.4952      0.00000
     35      15.7395      0.00000
     36      16.1879      0.00000
     37      16.2827      0.00000
     38      16.8532      0.00000
     39      16.9497      0.00000
     40      17.1073      0.00000

 k-point     7 :       0.4286    0.1429    0.0000
  band No.  band energies     occupation 
      1      -9.2874      2.00000
      2      -9.1493      2.00000
      3      -8.7367      2.00000
      4      -7.9384      2.00000
      5      -7.4861      2.00000
      6      -6.8610      2.00000
      7      -2.2073      2.00000
      8      -0.9798      2.00000
      9      -0.3500      2.00000
     10       0.0290      2.00000
     11       0.3615      2.00000
     12       1.7205      2.00000
     13       2.8259      2.00000
     14       3.0185      2.00000
     15       3.6158      2.00000
     16       4.1028      2.00000
     17       5.0312      2.00000
     18       5.7074      2.00000
     19       6.0212      2.00000
     20       6.0991      2.00000
     21       6.2756      2.00000
     22       6.6132      2.00000
     23       6.7878      2.00000
     24       6.9351      2.00000
     25       7.2715      2.00000
     26       7.2850      2.00000
     27       7.6103      2.00000
     28       9.3779      2.00000
     29       9.8648      2.00000
     30      11.4546      1.99615
     31      12.2697      0.00000
     32      12.6366      0.00000
     33      14.3561      0.00000
     34      15.6539      0.00000
     35      15.7687      0.00000
     36      15.9187      0.00000
     37      16.3258      0.00000
     38      16.8631      0.00000
     39      16.8874      0.00000
     40      17.0145      0.00000

[...]
     39      15.2171      0.00000
     40      15.3112      0.00000

 k-point    75 :       0.2857    0.0000    0.4706
  band No.  band energies     occupation 
      1      -6.9658      2.00000
      2      -6.7250      2.00000
      3      -6.3690      2.00000
      4      -6.3266      2.00000
      5      -6.1685      2.00000
      6      -6.1665      2.00000
      7      -0.6104      2.00000
      8      -0.4079      2.00000
      9       0.0589      2.00000
     10       0.2989      2.00000
     11       0.6235      2.00000
     12       0.9316      2.00000
     13       1.9155      2.00000
     14       2.4420      2.00000
     15       2.5761      2.00000
     16       2.8260      2.00000
     17       3.0070      2.00000
     18       3.2224      2.00000
     19       3.6239      2.00000
     20       3.9520      2.00000
     21       5.3733      2.00000
     22       5.6049      2.00000
     23       5.6336      2.00000
     24       5.8588      2.00000
     25       6.8063      2.00000
     26       7.0708      2.00000
     27       7.5980      2.00000
     28       7.8833      2.00000
     29       7.9789      2.00000
     30       8.3058      2.00000
     31       9.9691      2.00000
     32      10.3917      2.00000
     33      12.4341      0.00000
     34      12.7565      0.00000
     35      13.0642      0.00000
     36      13.5609      0.00000
     37      13.8070      0.00000
     38      14.3841      0.00000
     39      15.1608      0.00000
     40      15.3210      0.00000

 k-point    76 :       0.4286    0.0000    0.4706
  band No.  band energies     occupation 
      1      -6.9002      2.00000
      2      -6.7734      2.00000
      3      -6.3946      2.00000
      4      -6.3378      2.00000
      5      -6.1675      2.00000
      6      -6.1591      2.00000
      7      -0.7086      2.00000
      8      -0.5345      2.00000
      9       0.2738      2.00000
     10       0.3925      2.00000
     11       0.8582      2.00000
     12       1.1419      2.00000
     13       1.6885      2.00000
     14       2.2154      2.00000
     15       2.5248      2.00000
     16       2.7271      2.00000
     17       2.9699      2.00000
     18       3.0423      2.00000
     19       3.7385      2.00000
     20       4.0560      2.00000
     21       5.2656      2.00000
     22       5.5240      2.00000
     23       5.6013      2.00000
     24       5.9096      2.00000
     25       6.8919      2.00000
     26       7.0928      2.00000
     27       7.4570      2.00000
     28       7.8222      2.00000
     29       8.1765      2.00000
     30       8.4913      2.00000
     31      10.2591      2.00000
     32      10.4764      2.00000
     33      12.4319      0.00000
     34      12.6214      0.00000
     35      12.7971      0.00000
     36      13.2482      0.00000
     37      14.0067      0.00000
     38      14.5347      0.00000
     39      15.1855      0.00000
     40      15.3253      0.00000

 k-point    77 :       0.1429    0.1429    0.4706
  band No.  band energies     occupation 
      1      -6.9821      2.00000
      2      -6.7149      2.00000
      3      -6.3677      2.00000
      4      -6.3116      2.00000
      5      -6.1782      2.00000
      6      -6.1630      2.00000
      7      -0.5635      2.00000
      8      -0.3650      2.00000
      9       0.0163      2.00000
     10       0.2644      2.00000
     11       0.5248      2.00000
     12       0.8401      2.00000
     13       2.0139      2.00000
     14       2.4792      2.00000
     15       2.6102      2.00000
     16       2.9223      2.00000
     17       3.0191      2.00000
     18       3.2376      2.00000
     19       3.5981      2.00000
     20       3.8855      2.00000
     21       5.4493      2.00000
     22       5.5383      2.00000
     23       5.7159      2.00000
     24       5.8178      2.00000
     25       6.8002      2.00000
     26       7.0678      2.00000
     27       7.6732      2.00000
     28       7.7314      2.00000
     29       8.0705      2.00000
     30       8.2362      2.00000
     31       9.8604      2.00000
     32      10.3632      2.00000
     33      12.4338      0.00000
     34      12.7862      0.00000
     35      13.1565      0.00000
     36      13.6085      0.00000
     37      13.7841      0.00000
     38      14.3334      0.00000
     39      15.1607      0.00000
     40      15.3417      0.00000

 k-point    78 :       0.2857    0.1429    0.4706
  band No.  band energies     occupation 
      1      -6.9210      2.00000
      2      -6.7530      2.00000
      3      -6.4141      2.00000
      4      -6.3055      2.00000
      5      -6.1838      2.00000
      6      -6.1525      2.00000
      7      -0.6759      2.00000
      8      -0.5295      2.00000
      9       0.2221      2.00000
     10       0.4116      2.00000
     11       0.7769      2.00000
     12       1.0787      2.00000
     13       1.7222      2.00000
     14       2.2635      2.00000
     15       2.6416      2.00000
     16       2.7130      2.00000
     17       2.9804      2.00000
     18       3.0713      2.00000
     19       3.7286      2.00000
     20       3.9878      2.00000
     21       5.3269      2.00000
     22       5.5111      2.00000
     23       5.6116      2.00000
     24       5.8915      2.00000
     25       6.8837      2.00000
     26       7.0653      2.00000
     27       7.4913      2.00000
     28       7.7167      2.00000
     29       8.2927      2.00000
     30       8.4946      2.00000
     31      10.1716      2.00000
     32      10.3820      2.00000
     33      12.4419      0.00000
     34      12.6373      0.00000
     35      12.8665      0.00000
     36      13.2717      0.00000
     37      14.0363      0.00000
     38      14.5651      0.00000
     39      15.1655      0.00000
     40      15.2702      0.00000

 k-point    79 :       0.4286    0.1429    0.4706
  band No.  band energies     occupation 
      1      -6.8728      2.00000
      2      -6.7919      2.00000
      3      -6.4327      2.00000
      4      -6.3012      2.00000
      5      -6.1881      2.00000
      6      -6.1491      2.00000
      7      -0.7144      2.00000
      8      -0.5888      2.00000
      9       0.4028      2.00000
     10       0.4375      2.00000
     11       0.8369      2.00000
     12       1.1363      2.00000
     13       1.6674      2.00000
     14       2.1656      2.00000
     15       2.5466      2.00000
     16       2.7585      2.00000
     17       2.9372      2.00000
     18       2.9767      2.00000
     19       3.7676      2.00000
     20       4.0185      2.00000
     21       5.2849      2.00000
     22       5.4787      2.00000
     23       5.5648      2.00000
     24       5.9231      2.00000
     25       6.9289      2.00000
     26       7.0696      2.00000
     27       7.4514      2.00000
     28       7.6819      2.00000
     29       8.3535      2.00000
     30       8.6671      2.00000
     31      10.2773      2.00000
     32      10.4129      2.00000
     33      12.4462      0.00000
     34      12.5830      0.00000
     35      12.6987      0.00000
     36      13.0966      0.00000
     37      14.1786      0.00000
     38      14.6249      0.00000
     39      15.1919      0.00000
     40      15.2359      0.00000

 k-point    80 :      -0.4286    0.1429    0.4706
  band No.  band energies     occupation 
      1      -6.9210      2.00000
      2      -6.7530      2.00000
      3      -6.4141      2.00000
      4      -6.3055      2.00000
      5      -6.1837      2.00000
      6      -6.1526      2.00000
      7      -0.6774      2.00000
      8      -0.5268      2.00000
      9       0.2105      2.00000
     10       0.4263      2.00000
     11       0.7734      2.00000
     12       1.0771      2.00000
     13       1.7237      2.00000
     14       2.2621      2.00000
     15       2.6120      2.00000
     16       2.7538      2.00000
     17       2.9881      2.00000
     18       3.0526      2.00000
     19       3.7288      2.00000
     20       3.9869      2.00000
     21       5.3296      2.00000
     22       5.4963      2.00000
     23       5.6242      2.00000
     24       5.9006      2.00000
     25       6.8447      2.00000
     26       7.0688      2.00000
     27       7.5512      2.00000
     28       7.7111      2.00000
     29       8.2154      2.00000
     30       8.5491      2.00000
     31      10.1504      2.00000
     32      10.3964      2.00000
     33      12.4429      0.00000
     34      12.6605      0.00000
     35      12.8449      0.00000
     36      13.2786      0.00000
     37      14.0307      0.00000
     38      14.5489      0.00000
     39      15.1770      0.00000
     40      15.2783      0.00000

 k-point    81 :       0.2857    0.2857    0.4706
  band No.  band energies     occupation 
      1      -6.8614      2.00000
      2      -6.7960      2.00000
      3      -6.4573      2.00000
      4      -6.2643      2.00000
      5      -6.2130      2.00000
      6      -6.1451      2.00000
      7      -0.6962      2.00000
      8      -0.6356      2.00000
      9       0.4458      2.00000
     10       0.5724      2.00000
     11       0.7262      2.00000
     12       1.0973      2.00000
     13       1.6727      2.00000
     14       2.1511      2.00000
     15       2.6620      2.00000
     16       2.7348      2.00000
     17       2.8993      2.00000
     18       2.9419      2.00000
     19       3.8170      2.00000
     20       3.9352      2.00000
     21       5.3481      2.00000
     22       5.4270      2.00000
     23       5.5271      2.00000
     24       5.9300      2.00000
     25       6.9458      2.00000
     26       7.0364      2.00000
     27       7.4929      2.00000
     28       7.5767      2.00000
     29       8.4715      2.00000
     30       8.8264      2.00000
     31      10.2573      2.00000
     32      10.2958      2.00000
     33      12.4854      0.00000
     34      12.5480      0.00000
     35      12.6519      0.00000
     36      12.9973      0.00000
     37      14.3728      0.00000
     38      14.6601      0.00000
     39      15.1358      0.00000
     40      15.1641      0.00000


--------------------------------------------------------------------------------------------------------


 soft charge-density along one line, spin component           1
         0         1         2         3         4         5         6         7         8         9
 total charge-density along one line
 
 pseudopotential strength for first ion, spin component:           1
 12.122  14.523   0.002  -0.000  -0.001   0.006  -0.000  -0.002
 14.523  17.399   0.002  -0.000  -0.001   0.008  -0.000  -0.002
  0.002   0.002  -5.525  -0.000   0.002  -7.275  -0.000   0.003
 -0.000  -0.000  -0.000  -5.534   0.000  -0.000  -7.289   0.000
 -0.001  -0.001   0.002   0.000  -5.552   0.003   0.000  -7.318
  0.006   0.008  -7.275  -0.000   0.003  -8.840  -0.000   0.004
 -0.000  -0.000  -0.000  -7.289   0.000  -0.000  -8.863   0.000
 -0.002  -0.002   0.003   0.000  -7.318   0.004   0.000  -8.908
 total augmentation occupancy for first ion, spin component:           1
  8.081  -3.900  -0.358   0.000   0.098   0.149   0.000  -0.041
 -3.900   2.073   0.339   0.000  -0.080  -0.122   0.000   0.031
 -0.358   0.339   2.055   0.000  -0.045  -0.312   0.000   0.013
  0.000   0.000   0.000   2.362  -0.000   0.000  -0.396  -0.000
  0.098  -0.080  -0.045  -0.000   2.476   0.013   0.000  -0.461
  0.149  -0.122  -0.312  -0.000   0.013   0.064  -0.000  -0.005
  0.000   0.000  -0.000  -0.396   0.000  -0.000   0.079  -0.000
 -0.041   0.031   0.013  -0.000  -0.461  -0.005   0.000   0.103


------------------------ aborting loop because EDIFF is reached ----------------------------------------


    CHARGE:  cpu time    0.1324: real time    0.1324
    FORLOC:  cpu time    0.0023: real time    0.0023
    FORNL :  cpu time    0.9181: real time    0.9186
    STRESS:  cpu time    2.7365: real time    2.7365
    FORCOR:  cpu time    0.0177: real time    0.0177
    FORHAR:  cpu time    0.0052: real time    0.0052
    MIXING:  cpu time    0.0004: real time    0.0004
    OFIELD:  cpu time    0.0000: real time    0.0000

  FORCE on cell =-STRESS in cart. coord.  units (eV):
  Direction    XX          YY          ZZ          XY          YZ          ZX
  --------------------------------------------------------------------------------------
  Alpha Z    89.61755    89.61755    89.61755
  Ewald    -891.39290  -891.39290  -575.38191    -0.00000    -0.00000    -0.00000
  Hartree   122.90854   122.90854   327.58374     0.00000     0.00000    -0.00000
  E(xc)    -244.39380  -244.39380  -244.38281    -0.00000     0.00000     0.00000
  Local    -109.65946  -109.65912  -632.19453    -0.00000    -0.00000     0.00000
  n-local   211.67788   211.62163   213.78889    -0.51458     0.21824    -0.60971
  augment   -36.76932   -36.76960   -36.40440     0.00189     0.00000    -0.00000
  Kinetic   882.68855   885.75141   882.31279    -0.73582     0.03879     0.51922
  Fock        0.00000     0.00000     0.00000     0.00000     0.00000     0.00000
  -------------------------------------------------------------------------------------
  Total      26.18038    26.18038    24.93934    -0.00000     0.00000     0.00000
  in kB     308.35925   308.35925   293.74198    -0.00000     0.00000     0.00000
  external pressure =      303.49 kB  Pullay stress =        0.00 kB


 VOLUME and BASIS-vectors are now :
 -----------------------------------------------------------------------------
  energy-cutoff  :      400.00
  volume of cell :      136.03
      direct lattice vectors                 reciprocal lattice vectors
     3.821786721 -6.619528764  0.000000000     0.130828860 -0.075534078  0.000000000
     3.821786711  6.619528770  0.000000000     0.130828860  0.075534078  0.000000000
     0.000000000  0.000000000  2.688474706     0.000000000  0.000000000  0.371958121

  length of vectors
     7.643573431  7.643573431  2.688474706     0.151068155  0.151068155  0.371958121


 FORCES acting on ions
    electron-ion (+dipol)            ewald-force                    non-local-force                 convergence-correction
 -----------------------------------------------------------------------------------------------
   0.108E+02 -.786E+02 -.678E-07   -.124E+02 0.879E+02 -.469E-14   0.161E+01 -.921E+01 0.103E-17   0.123E-01 -.233E-01 -.371E-12
   0.735E+02 -.300E+02 -.382E-07   -.823E+02 0.332E+02 0.786E-14   0.878E+01 -.321E+01 0.602E-20   0.264E-01 -.983E-03 0.567E-12
   -.627E+02 -.487E+02 -.794E-07   0.699E+02 0.547E+02 0.498E-14   -.717E+01 -.600E+01 0.480E-17   -.140E-01 -.223E-01 0.456E-12
   0.627E+02 0.487E+02 0.794E-07   -.699E+02 -.547E+02 0.388E-14   0.717E+01 0.600E+01 0.353E-17   0.140E-01 0.223E-01 -.170E-13
   -.735E+02 0.300E+02 0.382E-07   0.823E+02 -.332E+02 0.746E-14   -.878E+01 0.321E+01 0.920E-18   -.264E-01 0.983E-03 -.315E-12
   -.108E+02 0.786E+02 0.678E-07   0.124E+02 -.879E+02 -.357E-14   -.161E+01 0.921E+01 0.695E-17   -.123E-01 0.233E-01 -.496E-12
   -.121E-05 0.195E-06 0.134E-07   -.133E-11 0.122E-10 -.816E-15   -.123E-16 -.223E-16 -.396E-18   0.212E-06 0.139E-06 -.142E-13
   0.121E-05 -.195E-06 -.134E-07   -.130E-11 -.688E-11 -.106E-14   -.741E-17 0.203E-16 0.485E-18   -.212E-06 -.139E-06 -.560E-14
   0.293E+01 0.172E+02 -.547E-07   -.404E+01 -.189E+02 -.740E-14   0.112E+01 0.173E+01 0.112E-16   -.424E-02 -.493E-02 -.402E-13
   -.134E+02 0.111E+02 -.609E-08   0.143E+02 -.130E+02 0.155E-14   -.943E+00 0.184E+01 0.642E-17   0.215E-02 -.614E-02 0.470E-13
   0.163E+02 0.605E+01 -.106E-06   -.184E+02 -.595E+01 -.801E-14   0.206E+01 -.101E+00 -.539E-17   -.639E-02 0.121E-02 0.521E-13
   -.163E+02 -.605E+01 0.106E-06   0.184E+02 0.595E+01 -.409E-14   -.206E+01 0.101E+00 0.104E-16   0.639E-02 -.121E-02 -.482E-13
   -.293E+01 -.172E+02 0.547E-07   0.404E+01 0.189E+02 -.416E-14   -.112E+01 -.173E+01 0.230E-17   0.424E-02 0.493E-02 -.174E-13
   0.134E+02 -.111E+02 0.608E-08   -.143E+02 0.130E+02 0.548E-14   0.943E+00 -.184E+01 -.665E-17   -.215E-02 0.614E-02 0.267E-13
 -----------------------------------------------------------------------------------------------
   0.329E-11 -.111E-09 -.136E-10   0.213E-13 0.568E-13 -.258E-14   0.255E-14 0.000E+00 0.356E-16   0.185E-11 0.377E-12 -.176E-12
 
 
 POSITION                                       TOTAL-FORCE (eV/Angst)
 -----------------------------------------------------------------------------------
      3.92074      4.23165      2.01636        -0.005218      0.003438     -0.000000
      2.11744     -1.10825      0.67212        -0.005587     -0.002800      0.000000
      5.62508     -1.27964      0.67212         0.000368      0.006238      0.000000
      2.01849      1.27964      2.01636        -0.000368     -0.006238      0.000000
      5.52613      1.10825      2.01636         0.005587      0.002800      0.000000
      3.72283     -4.23165      0.67212         0.005218     -0.003438     -0.000000
      3.82179      2.20651      2.01636         0.000000     -0.000000     -0.000000
      3.82179     -2.20651      0.67212         0.000000     -0.000000     -0.000000
      6.01099     -2.32751      2.01636        -0.000839     -0.006531      0.000000
      5.02118      4.04191      0.67212         0.005237     -0.003992      0.000000
      4.81160      0.25010      0.67212        -0.006075     -0.002539      0.000000
      2.83198     -0.25010      2.01636         0.006075      0.002539     -0.000000
      1.63258      2.32751      0.67212         0.000839      0.006531      0.000000
      2.62239     -4.04191      2.01636        -0.005237      0.003992     -0.000000
 -----------------------------------------------------------------------------------
    total drift:                                0.000000     -0.000000     -0.000000


--------------------------------------------------------------------------------------------------------



  FREE ENERGIE OF THE ION-ELECTRON SYSTEM (eV)
  ---------------------------------------------------
  free  energy   TOTEN  =       -93.34022857 eV

  energy  without entropy=      -93.33930623  energy(sigma->0) =      -93.33999799
 
 d Force = 0.1489922E-03[ 0.893E-05, 0.289E-03]  d Energy = 0.1302432E-03 0.187E-04
 d Force = 0.6563314E+00[ 0.653E+00, 0.659E+00]  d Ewald  = 0.6563314E+00-0.412E-07


--------------------------------------------------------------------------------------------------------


    POTLOK:  cpu time    0.0208: real time    0.0255


--------------------------------------------------------------------------------------------------------




--------------------------------------------------------------------------------------------------------


  
 reached required accuracy - stopping structural energy minimisation
     LOOP+:  cpu time   10.4514: real time   10.4646
    4ORBIT:  cpu time    0.0000: real time    0.0000

 total amount of memory used by VASP MPI-rank0    44911. kBytes
=======================================================================

   base      :      30000. kBytes
   nonlr-proj:       2974. kBytes
   fftplans  :       1220. kBytes
   grid      :       1945. kBytes
   one-center:         12. kBytes
   wavefun   :       8760. kBytes
 
  
  
 General timing and accounting informations for this job:
 ========================================================
  
                  Total CPU time used (sec):      167.294
                            User time (sec):      166.628
                          System time (sec):        0.666
                         Elapsed time (sec):      169.130
  
                   Maximum memory used (kb):       60956.
                   Average memory used (kb):           0.
  
                          Minor page faults:        56052
                          Major page faults:            2
                 Voluntary context switches:         4145
