<?xml version="1.0" encoding="ISO-8859-1"?>
<modeling>
 <generator>
  <i name="program" type="string">vasp </i>
  <i name="version" type="string">5.4.4.18Apr17-6-g9f103f2a35  </i>
  <i name="subversion" type="string">(build Nov 01 2019 12:17:22) complex            parallel </i>
  <i name="platform" type="string">LinuxIFC </i>
  <i name="date" type="string">2023 05 19 </i>
  <i name="time" type="string">18:18:50 </i>
 </generator>
 <incar>
  <i type="string" name="PREC">accurate</i>
  <i type="string" name="ALGO"> Fast</i>
  <i type="int" name="IBRION">     2</i>
  <i type="int" name="NSW">   100</i>
  <i type="int" name="ISIF">     2</i>
  <i type="string" name="LREAL"> Auto</i>
  <i type="int" name="ISMEAR">     2</i>
  <i name="SIGMA">      0.10000000</i>
  <i type="logical" name="LWAVE"> F  </i>
  <i type="logical" name="LCHARG"> F  </i>
  <v type="int" name="KPOINT_BSE">    -1     0     0     0</v>
 </incar>
 <structure name="primitive_cell" >
  <crystal>
   <varray name="basis" >
    <v>       3.82178672      -6.61952876       0.00000000 </v>
    <v>       3.82178671       6.61952877       0.00000000 </v>
    <v>       0.00000000       0.00000000       2.68847471 </v>
   </varray>
   <i name="volume">    136.02836273 </i>
   <varray name="rec_basis" >
    <v>       0.13082886      -0.07553408       0.00000000 </v>
    <v>       0.13082886       0.07553408       0.00000000 </v>
    <v>       0.00000000       0.00000000       0.37195812 </v>
   </varray>
  </crystal>
  <varray name="positions" >
   <v>       0.19708959      -0.16848230      -0.25000000 </v>
   <v>      -0.03641246      -0.38753655      -0.25000000 </v>
   <v>       0.35112409      -0.03641246       0.25000000 </v>
   <v>       0.33333333      -0.33333333      -0.25000000 </v>
   <v>       0.36557189       0.19708959       0.25000000 </v>
   <v>      -0.16848230      -0.36557189       0.25000000 </v>
   <v>      -0.35112409       0.03641246      -0.25000000 </v>
   <v>       0.03641246       0.38753655       0.25000000 </v>
   <v>       0.16848230       0.36557189      -0.25000000 </v>
   <v>      -0.36557189      -0.19708959      -0.25000000 </v>
   <v>       0.38753655       0.35112409      -0.25000000 </v>
   <v>      -0.33333333       0.33333333       0.25000000 </v>
   <v>      -0.38753655      -0.35112409       0.25000000 </v>
   <v>      -0.19708959       0.16848230       0.25000000 </v>
  </varray>
 </structure>
 <varray name="primitive_index" >
  <v type="int" >        1 </v>
  <v type="int" >        9 </v>
  <v type="int" >       10 </v>
  <v type="int" >        7 </v>
  <v type="int" >        2 </v>
  <v type="int" >        3 </v>
  <v type="int" >       14 </v>
  <v type="int" >       13 </v>
  <v type="int" >        4 </v>
  <v type="int" >        5 </v>
  <v type="int" >       12 </v>
  <v type="int" >        8 </v>
  <v type="int" >       11 </v>
  <v type="int" >        6 </v>
 </varray>
 <kpoints>
  <generation param="Auto">
   <i name="subdivisionlength">     45.00000000 </i>
   <v type="int" name="divisions">       7        7       17 </v>
   <v name="usershift">      0.00000000       0.00000000       0.00000000 </v>
   <v name="genvec1">      0.14285714       0.00000000       0.00000000 </v>
   <v name="genvec2">      0.00000000       0.14285714       0.00000000 </v>
   <v name="genvec3">      0.00000000       0.00000000       0.05882353 </v>
   <v name="shift">      0.00000000       0.00000000       0.00000000 </v>
  </generation>
  <varray name="kpointlist" >
   <v>       0.00000000       0.00000000       0.00000000 </v>
   <v>       0.14285714       0.00000000       0.00000000 </v>
   <v>       0.28571429       0.00000000       0.00000000 </v>
   <v>       0.42857143       0.00000000       0.00000000 </v>
   <v>       0.14285714       0.14285714       0.00000000 </v>
   <v>       0.28571429       0.14285714       0.00000000 </v>
   <v>       0.42857143       0.14285714       0.00000000 </v>
   <v>      -0.42857143       0.14285714       0.00000000 </v>
   <v>       0.28571429       0.28571429       0.00000000 </v>
   <v>       0.00000000       0.00000000       0.05882353 </v>
   <v>       0.14285714       0.00000000       0.05882353 </v>
   <v>       0.28571429       0.00000000       0.05882353 </v>
   <v>       0.42857143       0.00000000       0.05882353 </v>
   <v>       0.14285714       0.14285714       0.05882353 </v>
   <v>       0.28571429       0.14285714       0.05882353 </v>
   <v>       0.42857143       0.14285714       0.05882353 </v>
   <v>      -0.42857143       0.14285714       0.05882353 </v>
   <v>       0.28571429       0.28571429       0.05882353 </v>
   <v>       0.00000000       0.00000000       0.11764706 </v>
   <v>       0.14285714       0.00000000       0.11764706 </v>
   <v>       0.28571429       0.00000000       0.11764706 </v>
   <v>       0.42857143       0.00000000       0.11764706 </v>
   <v>       0.14285714       0.14285714       0.11764706 </v>
   <v>       0.28571429       0.14285714       0.11764706 </v>
   <v>       0.42857143       0.14285714       0.11764706 </v>
   <v>      -0.42857143       0.14285714       0.11764706 </v>
   <v>       0.28571429       0.28571429       0.11764706 </v>
   <v>       0.00000000       0.00000000       0.17647059 </v>
   <v>       0.14285714       0.00000000       0.17647059 </v>
   <v>       0.28571429       0.00000000       0.17647059 </v>
   <v>       0.42857143       0.00000000       0.17647059 </v>
   <v>       0.14285714       0.14285714       0.17647059 </v>
   <v>       0.28571429       0.14285714       0.17647059 </v>
   <v>       0.42857143       0.14285714       0.17647059 </v>
   <v>      -0.42857143       0.14285714       0.17647059 </v>
   <v>       0.28571429       0.28571429       0.17647059 </v>
   <v>       0.00000000       0.00000000       0.23529412 </v>
   <v>       0.14285714       0.00000000       0.23529412 </v>
   <v>       0.28571429       0.00000000       0.23529412 </v>
   <v>       0.42857143       0.00000000       0.23529412 </v>
   <v>       0.14285714       0.14285714       0.23529412 </v>
   <v>       0.28571429       0.14285714       0.23529412 </v>
   <v>       0.42857143       0.14285714       0.23529412 </v>
   <v>      -0.42857143       0.14285714       0.23529412 </v>
   <v>       0.28571429       0.28571429       0.23529412 </v>
   <v>       0.00000000       0.00000000       0.29411765 </v>
   <v>       0.14285714       0.00000000       0.29411765 </v>
   <v>       0.28571429       0.00000000       0.29411765 </v>
   <v>       0.42857143       0.00000000       0.29411765 </v>
   <v>       0.14285714       0.14285714       0.29411765 </v>
   <v>       0.28571429       0.14285714       0.29411765 </v>
   <v>       0.42857143       0.14285714       0.29411765 </v>
   <v>      -0.42857143       0.14285714       0.29411765 </v>
   <v>       0.28571429       0.28571429       0.29411765 </v>
   <v>       0.00000000       0.00000000       0.35294118 </v>
   <v>       0.14285714       0.00000000       0.35294118 </v>
   <v>       0.28571429       0.00000000       0.35294118 </v>
   <v>       0.42857143       0.00000000       0.35294118 </v>
   <v>       0.14285714       0.14285714       0.35294118 </v>
   <v>       0.28571429       0.14285714       0.35294118 </v>
   <v>       0.42857143       0.14285714       0.35294118 </v>
   <v>      -0.42857143       0.14285714       0.35294118 </v>
   <v>       0.28571429       0.28571429       0.35294118 </v>
   <v>       0.00000000       0.00000000       0.41176471 </v>
   <v>       0.14285714       0.00000000       0.41176471 </v>
   <v>       0.28571429       0.00000000       0.41176471 </v>
   <v>       0.42857143       0.00000000       0.41176471 </v>
   <v>       0.14285714       0.14285714       0.41176471 </v>
   <v>       0.28571429       0.14285714       0.41176471 </v>
   <v>       0.42857143       0.14285714       0.41176471 </v>
   <v>      -0.42857143       0.14285714       0.41176471 </v>
   <v>       0.28571429       0.28571429       0.41176471 </v>
   <v>       0.00000000       0.00000000       0.47058824 </v>
   <v>       0.14285714       0.00000000       0.47058824 </v>
   <v>       0.28571429       0.00000000       0.47058824 </v>
   <v>       0.42857143       0.00000000       0.47058824 </v>
   <v>       0.14285714       0.14285714       0.47058824 </v>
   <v>       0.28571429       0.14285714       0.47058824 </v>
   <v>       0.42857143       0.14285714       0.47058824 </v>
   <v>      -0.42857143       0.14285714       0.47058824 </v>
   <v>       0.28571429       0.28571429       0.47058824 </v>
  </varray>
  <varray name="weights" >
   <v>       0.00120048 </v>
   <v>       0.00720288 </v>
   <v>       0.00720288 </v>
   <v>       0.00720288 </v>
   <v>       0.00720288 </v>
   <v>       0.00720288 </v>
   <v>       0.00720288 </v>
   <v>       0.00720288 </v>
   <v>       0.00720288 </v>
   <v>       0.00240096 </v>
   <v>       0.01440576 </v>
   <v>       0.01440576 </v>
   <v>       0.01440576 </v>
   <v>       0.01440576 </v>
   <v>       0.01440576 </v>
   <v>       0.01440576 </v>
   <v>       0.01440576 </v>
   <v>       0.01440576 </v>
   <v>       0.00240096 </v>
   <v>       0.01440576 </v>
   <v>       0.01440576 </v>
   <v>       0.01440576 </v>
   <v>       0.01440576 </v>
   <v>       0.01440576 </v>
   <v>       0.01440576 </v>
   <v>       0.01440576 </v>
   <v>       0.01440576 </v>
   <v>       0.00240096 </v>
   <v>       0.01440576 </v>
   <v>       0.01440576 </v>
   <v>       0.01440576 </v>
   <v>       0.01440576 </v>
   <v>       0.01440576 </v>
   <v>       0.01440576 </v>
   <v>       0.01440576 </v>
   <v>       0.01440576 </v>
   <v>       0.00240096 </v>
   <v>       0.01440576 </v>
   <v>       0.01440576 </v>
   <v>       0.01440576 </v>
   <v>       0.01440576 </v>
   <v>       0.01440576 </v>
   <v>       0.01440576 </v>
   <v>       0.01440576 </v>
   <v>       0.01440576 </v>
   <v>       0.00240096 </v>
   <v>       0.01440576 </v>
   <v>       0.01440576 </v>
   <v>       0.01440576 </v>
   <v>       0.01440576 </v>
   <v>       0.01440576 </v>
   <v>       0.01440576 </v>
   <v>       0.01440576 </v>
   <v>       0.01440576 </v>
   <v>       0.00240096 </v>
   <v>       0.01440576 </v>
   <v>       0.01440576 </v>
   <v>       0.01440576 </v>
   <v>       0.01440576 </v>
   <v>       0.01440576 </v>
   <v>       0.01440576 </v>
   <v>       0.01440576 </v>
   <v>       0.01440576 </v>
   <v>       0.00240096 </v>
   <v>       0.01440576 </v>
   <v>       0.01440576 </v>
   <v>       0.01440576 </v>
   <v>       0.01440576 </v>
   <v>       0.01440576 </v>
   <v>       0.01440576 </v>
   <v>       0.01440576 </v>
   <v>       0.01440576 </v>
   <v>       0.00240096 </v>
   <v>       0.01440576 </v>
   <v>       0.01440576 </v>
   <v>       0.01440576 </v>
   <v>       0.01440576 </v>
   <v>       0.01440576 </v>
   <v>       0.01440576 </v>
   <v>       0.01440576 </v>
   <v>       0.01440576 </v>
  </varray>
 </kpoints>
 <parameters>
  <separator name="general" >
   <i type="string" name="SYSTEM">unknown system</i>
   <i type="logical" name="LCOMPAT"> F  </i>
  </separator>
  <separator name="electronic" >
   <i type="string" name="PREC">accura</i>
   <i name="ENMAX">    400.00000000</i>
   <i name="ENAUG">    627.11200000</i>
   <i name="EDIFF">      0.00010000</i>
   <i type="int" name="IALGO">    68</i>
   <i type="int" name="IWAVPR">    11</i>
   <i type="int" name="NBANDS">    40</i>
   <i name="NELECT">     62.00000000</i>
   <i type="int" name="TURBO">     0</i>
   <i type="int" name="IRESTART">     0</i>
   <i type="int" name="NREBOOT">     0</i>
   <i type="int" name="NMIN">     0</i>
   <i name="EREF">      0.00000000</i>
   <separator name="electronic smearing" >
    <i type="int" name="ISMEAR">     2</i>
    <i name="SIGMA">      0.10000000</i>
    <i name="KSPACING">      0.50000000</i>
    <i type="logical" name="KGAMMA"> T  </i>
   </separator>
   <separator name="electronic projectors" >
    <i type="logical" name="LREAL"> T  </i>
    <v name="ROPT">     -0.00025000     -0.00025000</v>
    <i type="int" name="LMAXPAW">  -100</i>
    <i type="int" name="LMAXMIX">     2</i>
    <i type="logical" name="NLSPLINE"> F  </i>
   </separator>
   <separator name="electronic startup" >
    <i type="int" name="ISTART">     0</i>
    <i type="int" name="ICHARG">     2</i>
    <i type="int" name="INIWAV">     1</i>
   </separator>
   <separator name="electronic spin" >
    <i type="int" name="ISPIN">     1</i>
    <i type="logical" name="LNONCOLLINEAR"> F  </i>
    <v name="MAGMOM">      1.00000000      1.00000000      1.00000000      1.00000000      1.00000000      1.00000000      1.00000000      1.00000000      1.00000000      1.00000000      1.00000000      1.00000000      1.00000000      1.00000000</v>
    <i name="NUPDOWN">     -1.00000000</i>
    <i type="logical" name="LSORBIT"> F  </i>
    <v name="SAXIS">      0.00000000      0.00000000      1.00000000</v>
    <i type="logical" name="LSPIRAL"> F  </i>
    <v name="QSPIRAL">      0.00000000      0.00000000      0.00000000</v>
    <i type="logical" name="LZEROZ"> F  </i>
   </separator>
   <separator name="electronic exchange-correlation" >
    <i type="logical" name="LASPH"> F  </i>
    <i type="logical" name="LMETAGGA"> F  </i>
   </separator>
   <separator name="electronic convergence" >
    <i type="int" name="NELM">    60</i>
    <i type="int" name="NELMDL">    -5</i>
    <i type="int" name="NELMIN">     2</i>
    <i name="ENINI">    400.00000000</i>
    <separator name="electronic convergence detail" >
     <i type="logical" name="LDIAG"> T  </i>
     <i type="logical" name="LSUBROT"> F  </i>
     <i name="WEIMIN">      0.00100000</i>
     <i name="EBREAK">      0.00000063</i>
     <i name="DEPER">      0.30000000</i>
     <i type="int" name="NRMM">     4</i>
     <i name="TIME">      0.40000000</i>
    </separator>
   </separator>
   <separator name="electronic mixer" >
    <i name="AMIX">      0.40000000</i>
    <i name="BMIX">      1.00000000</i>
    <i name="AMIN">      0.10000000</i>
    <i name="AMIX_MAG">      1.60000000</i>
    <i name="BMIX_MAG">      1.00000000</i>
    <separator name="electronic mixer details" >
     <i type="int" name="IMIX">     4</i>
     <i type="logical" name="MIXFIRST"> F  </i>
     <i type="int" name="MAXMIX">   -45</i>
     <i name="WC">    100.00000000</i>
     <i type="int" name="INIMIX">     1</i>
     <i type="int" name="MIXPRE">     1</i>
     <i type="int" name="MREMOVE">     5</i>
    </separator>
   </separator>
   <separator name="electronic dipolcorrection" >
    <i type="logical" name="LDIPOL"> F  </i>
    <i type="logical" name="LMONO"> F  </i>
    <i type="int" name="IDIPOL">     0</i>
    <i name="EPSILON">      1.00000000</i>
    <v name="DIPOL">   -100.00000000   -100.00000000   -100.00000000</v>
    <i name="EFIELD">      0.00000000</i>
   </separator>
  </separator>
  <separator name="grids" >
   <i type="int" name="NGX">    50</i>
   <i type="int" name="NGY">    50</i>
   <i type="int" name="NGZ">    18</i>
   <i type="int" name="NGXF">   100</i>
   <i type="int" name="NGYF">   100</i>
   <i type="int" name="NGZF">    36</i>
   <i type="logical" name="ADDGRID"> F  </i>
  </separator>
  <separator name="ionic" >
   <i type="int" name="NSW">   100</i>
   <i type="int" name="IBRION">     2</i>
   <i type="int" name="MDALGO">     0</i>
   <i type="int" name="ISIF">     2</i>
   <i name="PSTRESS">      0.00000000</i>
   <i name="EDIFFG">      0.00100000</i>
   <i type="int" name="NFREE">     1</i>
   <i name="POTIM">      0.50000000</i>
   <i name="SMASS">     -3.00000000</i>
   <i name="SCALEE">      1.00000000</i>
  </separator>
  <separator name="ionic md" >
   <i name="TEBEG">      0.00010000</i>
   <i name="TEEND">      0.00010000</i>
   <i type="int" name="NBLOCK">     1</i>
   <i type="int" name="KBLOCK">   100</i>
   <i type="int" name="NPACO">   256</i>
   <i name="APACO">     16.00000000</i>
  </separator>
  <separator name="symmetry" >
   <i type="int" name="ISYM">     2</i>
   <i name="SYMPREC">      0.00001000</i>
  </separator>
  <separator name="dos" >
   <i type="int" name="LORBIT">     0</i>
   <v name="RWIGS">     -1.00000000     -1.00000000</v>
   <i type="int" name="NEDOS">   301</i>
   <i name="EMIN">     10.00000000</i>
   <i name="EMAX">    -10.00000000</i>
   <i name="EFERMI">      0.00000000</i>
  </separator>
  <separator name="writing" >
   <i type="int" name="NWRITE">     2</i>
   <i type="logical" name="LWAVE"> F  </i>
   <i type="logical" name="LDOWNSAMPLE"> F  </i>
   <i type="logical" name="LCHARG"> F  </i>
   <i type="logical" name="LPARD"> F  </i>
   <i type="logical" name="LVTOT"> F  </i>
   <i type="logical" name="LVHAR"> F  </i>
   <i type="logical" name="LELF"> F  </i>
   <i type="logical" name="LOPTICS"> F  </i>
   <v name="STM">      0.00000000      0.00000000      0.00000000      0.00000000      0.00000000      0.00000000      0.00000000</v>
  </separator>
  <separator name="performance" >
   <i type="int" name="NPAR">     4</i>
   <i type="int" name="NSIM">     4</i>
   <i type="int" name="NBLK">    -1</i>
   <i type="logical" name="LPLANE"> T  </i>
   <i type="logical" name="LSCALAPACK"> F  </i>
   <i type="logical" name="LSCAAWARE"> F  </i>
   <i type="logical" name="LSCALU"> F  </i>
   <i type="logical" name="LASYNC"> F  </i>
   <i type="logical" name="LORBITALREAL"> F  </i>
  </separator>
  <separator name="miscellaneous" >
   <i type="int" name="IDIOT">     3</i>
   <i type="int" name="ISPECIAL">     0</i>
   <i type="logical" name="LMUSIC"> F  </i>
   <v name="POMASS">     14.00100000     28.08500000</v>
   <v name="DARWINR">      0.00000000      0.00000000</v>
   <v name="DARWINV">      1.00000000      1.00000000</v>
   <i type="logical" name="LCORR"> T  </i>
  </separator>
  <i type="logical" name="GGA_COMPAT"> T  </i>
  <i type="logical" name="LBERRY"> F  </i>
  <i type="int" name="ICORELEVEL">     0</i>
  <i type="logical" name="LDAU"> F  </i>
  <i type="int" name="I_CONSTRAINED_M">     0</i>
  <separator name="electronic exchange-correlation" >
   <i type="string" name="GGA">--</i>
   <i type="int" name="VOSKOWN">     0</i>
   <i type="logical" name="LHFCALC"> F  </i>
   <i type="string" name="PRECFOCK"></i>
   <i type="logical" name="LSYMGRAD"> F  </i>
   <i type="logical" name="LHFONE"> F  </i>
   <i type="logical" name="LRHFCALC"> F  </i>
   <i type="logical" name="LTHOMAS"> F  </i>
   <i type="logical" name="LMODELHF"> F  </i>
   <i name="ENCUT4O">     -1.00000000</i>
   <i type="int" name="EXXOEP">     0</i>
   <i type="int" name="FOURORBIT">     0</i>
   <i name="AEXX">      0.00000000</i>
   <i name="HFALPHA">      0.00000000</i>
   <i name="MCALPHA">      0.00000000</i>
   <i name="ALDAX">      1.00000000</i>
   <i name="AGGAX">      1.00000000</i>
   <i name="ALDAC">      1.00000000</i>
   <i name="AGGAC">      1.00000000</i>
   <i type="int" name="NKREDX">     1</i>
   <i type="int" name="NKREDY">     1</i>
   <i type="int" name="NKREDZ">     1</i>
   <i type="logical" name="SHIFTRED"> F  </i>
   <i type="logical" name="ODDONLY"> F  </i>
   <i type="logical" name="EVENONLY"> F  </i>
   <i type="int" name="LMAXFOCK">     0</i>
   <i type="int" name="NMAXFOCKAE">     0</i>
   <i type="logical" name="LFOCKAEDFT"> F  </i>
   <i name="HFSCREEN">      0.00000000</i>
   <i name="HFSCREENC">      0.00000000</i>
   <i type="int" name="NBANDSGWLOW">     0</i>
  </separator>
  <separator name="vdW DFT" >
   <i type="logical" name="LUSE_VDW"> F  </i>
   <i name="Zab_VDW">     -0.84910000</i>
   <i name="PARAM1">      0.12340000</i>
   <i name="PARAM2">      1.00000000</i>
   <i name="PARAM3">      0.00000000</i>
  </separator>
  <separator name="model GW" >
   <i type="int" name="MODEL_GW">     0</i>
   <i name="MODEL_EPS0">      5.82978697</i>
   <i name="MODEL_ALPHA">      1.00000000</i>
  </separator>
  <separator name="linear response parameters" >
   <i type="logical" name="LEPSILON"> F  </i>
   <i type="logical" name="LRPA"> F  </i>
   <i type="logical" name="LNABLA"> F  </i>
   <i type="logical" name="LVEL"> F  </i>
   <i type="int" name="KINTER">     0</i>
   <i name="CSHIFT">      0.10000000</i>
   <i name="OMEGAMAX">     -1.00000000</i>
   <i name="DEG_THRESHOLD">      0.00200000</i>
   <i name="RTIME">     -0.10000000</i>
   <i name="WPLASMAI">      0.00000000</i>
   <v name="DFIELD">      0.00000000      0.00000000      0.00000000</v>
   <v name="WPLASMA">      0.00000000      0.00000000      0.00000000      0.00000000      0.00000000      0.00000000      0.00000000      0.00000000      0.00000000</v>
  </separator>
  <separator name="orbital magnetization" >
   <i type="logical" name="NUCIND"> F  </i>
   <v name="MAGPOS">      0.00000000      0.00000000      0.00000000</v>
   <i type="logical" name="LNICSALL"> T  </i>
   <i type="logical" name="ORBITALMAG"> F  </i>
   <i type="logical" name="LMAGBLOCH"> F  </i>
   <i type="logical" name="LCHIMAG"> F  </i>
   <i type="logical" name="LGAUGE"> T  </i>
   <i type="int" name="MAGATOM">     0</i>
   <v name="MAGDIPOL">      0.00000000      0.00000000      0.00000000</v>
   <v name="AVECCONST">      0.00000000      0.00000000      0.00000000</v>
  </separator>
  <separator name="response functions" >
   <i type="logical" name="LADDER"> F  </i>
   <i type="logical" name="LRPAFORCE"> F  </i>
   <i type="logical" name="LFXC"> F  </i>
   <i type="logical" name="LHARTREE"> T  </i>
   <i type="int" name="IBSE">     0</i>
   <v type="int" name="KPOINT">    -1     0     0     0</v>
   <i type="logical" name="LTCTE"> F  </i>
   <i type="logical" name="LTETE"> F  </i>
   <i type="logical" name="LTRIPLET"> F  </i>
   <i type="logical" name="LFXCEPS"> F  </i>
   <i type="logical" name="LFXHEG"> F  </i>
   <i type="int" name="NATURALO">     2</i>
   <i type="logical" name="L2ORDER"> F  </i>
   <i type="logical" name="LMP2LT"> F  </i>
   <i type="logical" name="LUSEW"> F  </i>
   <i name="ENCUTGW">     -2.00000000</i>
   <i name="ENCUTGWSOFT">     -2.00000000</i>
   <i name="ENCUTLF">     -1.00000000</i>
   <i type="int" name="LMAXMP2">    -1</i>
   <i name="SCISSOR">      0.00000000</i>
   <i type="int" name="NOMEGA">     0</i>
   <i type="int" name="NOMEGAR">     0</i>
   <i type="int" name="NBANDSGW">    -1</i>
   <i type="int" name="NBANDSO">    -1</i>
   <i type="int" name="NBANDSV">    -1</i>
   <i type="int" name="NELM">     1</i>
   <i type="int" name="NELMHF">     1</i>
   <i type="int" name="DIM">     3</i>
   <i type="int" name="ANTIRES">     0</i>
   <i name="OMEGAMAX">    -30.00000000</i>
   <i name="OMEGAMIN">    -30.00000000</i>
   <i name="OMEGATL">   -200.00000000</i>
   <i type="int" name="OMEGAGRID">   140</i>
   <i name="CSHIFT">     -0.10000000</i>
   <i type="logical" name="SELFENERGY"> F  </i>
   <i type="logical" name="LSPECTRAL"> F  </i>
   <i type="logical" name="LSPECTRALGW"> F  </i>
   <i type="logical" name="LSINGLES"> F  </i>
   <i type="logical" name="LFERMIGW"> F  </i>
   <i type="logical" name="ODDONLYGW"> F  </i>
   <i type="logical" name="EVENONLYGW"> F  </i>
   <i type="int" name="NKREDLFX">     1</i>
   <i type="int" name="NKREDLFY">     1</i>
   <i type="int" name="NKREDLFZ">     1</i>
   <i type="int" name="MAXMEM">  2800</i>
   <i type="int" name="TELESCOPE">     0</i>
   <i type="int" name="TAUPAR">     1</i>
   <i type="int" name="OMEGAPAR">    -1</i>
   <i name="LAMBDA">      1.00000000</i>
  </separator>
  <separator name="External order field" >
   <i name="OFIELD_KAPPA">      0.00000000</i>
   <v name="OFIELD_K">      0.00000000      0.00000000      0.00000000</v>
   <i name="OFIELD_Q6_NEAR">      0.00000000</i>
   <i name="OFIELD_Q6_FAR">      0.00000000</i>
   <i name="OFIELD_A">      0.00000000</i>
  </separator>
 </parameters>
 <atominfo>
  <atoms>      14 </atoms>
  <types>       2 </types>
  <array name="atoms" >
   <dimension dim="1">ion</dimension>
   <field type="string">element</field>
   <field type="int">atomtype</field>
   <set>
    <rc><c>N </c><c>   1</c></rc>
    <rc><c>N </c><c>   1</c></rc>
    <rc><c>N </c><c>   1</c></rc>
    <rc><c>N </c><c>   1</c></rc>
    <rc><c>N </c><c>   1</c></rc>
    <rc><c>N </c><c>   1</c></rc>
    <rc><c>Si</c><c>   2</c></rc>
    <rc><c>Si</c><c>   2</c></rc>
    <rc><c>Si</c><c>   2</c></rc>
    <rc><c>Si</c><c>   2</c></rc>
    <rc><c>Si</c><c>   2</c></rc>
    <rc><c>Si</c><c>   2</c></rc>
    <rc><c>Si</c><c>   2</c></rc>
    <rc><c>Si</c><c>   2</c></rc>
   </set>
  </array>
  <array name="atomtypes" >
   <dimension dim="1">type</dimension>
   <field type="int">atomspertype</field>
   <field type="string">element</field>
   <field>mass</field>
   <field>valence</field>
   <field type="string">pseudopotential</field>
   <set>
    <rc><c>   6</c><c>N </c><c>     14.00100000</c><c>      5.00000000</c><c>  PAW_PBE N 08Apr2002                   </c></rc>
    <rc><c>   8</c><c>Si</c><c>     28.08500000</c><c>      4.00000000</c><c>  PAW_PBE Si 05Jan2001                  </c></rc>
   </set>
  </array>
 </atominfo>
 <structure name="initialpos" >
  <crystal>
   <varray name="basis" >
    <v>       3.82178672      -6.61952876       0.00000000 </v>
    <v>       3.82178671       6.61952877       0.00000000 </v>
    <v>       0.00000000       0.00000000       2.68847471 </v>
   </varray>
   <i name="volume">    136.02836273 </i>
   <varray name="rec_basis" >
    <v>       0.13082886      -0.07553408       0.00000000 </v>
    <v>       0.13082886       0.07553408       0.00000000 </v>
    <v>       0.00000000       0.00000000       0.37195812 </v>
   </varray>
  </crystal>
  <varray name="positions" >
   <v>       0.19708959       0.83151770       0.75000000 </v>
   <v>       0.36557189       0.19708959       0.25000000 </v>
   <v>       0.83151770       0.63442811       0.25000000 </v>
   <v>       0.16848230       0.36557189       0.75000000 </v>
   <v>       0.63442811       0.80291041       0.75000000 </v>
   <v>       0.80291041       0.16848230       0.25000000 </v>
   <v>       0.33333333       0.66666667       0.75000000 </v>
   <v>       0.66666667       0.33333333       0.25000000 </v>
   <v>       0.96358754       0.61246345       0.75000000 </v>
   <v>       0.35112409       0.96358754       0.25000000 </v>
   <v>       0.61246345       0.64887591       0.25000000 </v>
   <v>       0.38753655       0.35112409       0.75000000 </v>
   <v>       0.03641246       0.38753655       0.25000000 </v>
   <v>       0.64887591       0.03641246       0.75000000 </v>
  </varray>
 </structure>
 <calculation>
  <scstep>
   <time name="dav">    2.35    2.35</time>
   <time name="total">    2.69    2.69</time>
   <energy>
    <i name="alphaZ">     89.61755392 </i>
    <i name="ewald">  -2339.69296604 </i>
    <i name="hartreedc">   -488.82812833 </i>
    <i name="XCdc">     57.90297697 </i>
    <i name="pawpsdc">   1934.58678659 </i>
    <i name="pawaedc">  -1800.98643654 </i>
    <i name="eentropy">      0.00039633 </i>
    <i name="bandstr">    372.23793480 </i>
    <i name="atom">   2411.37598431 </i>
    <i name="e_fr_energy">    236.21410202 </i>
    <i name="e_wo_entrp">    236.21370568 </i>
    <i name="e_0_energy">    236.21400293 </i>
   </energy>
  </scstep>
  <scstep>
   <time name="dav">    2.83    2.83</time>
   <time name="total">    2.83    2.83</time>
   <energy>
    <i name="e_fr_energy">    -83.68537562 </i>
    <i name="e_wo_entrp">    -83.68530635 </i>
    <i name="e_0_energy">    -83.68535831 </i>
   </energy>
  </scstep>
  <scstep>
   <time name="dav">    2.79    2.79</time>
   <time name="total">    2.80    2.80</time>
   <energy>
    <i name="e_fr_energy">   -103.56485934 </i>
    <i name="e_wo_entrp">   -103.56470474 </i>
    <i name="e_0_energy">   -103.56482069 </i>
   </energy>
  </scstep>
  <scstep>
   <time name="dav">    2.94    2.94</time>
   <time name="total">    2.94    2.94</time>
   <energy>
    <i name="e_fr_energy">   -103.99670493 </i>
    <i name="e_wo_entrp">   -103.99667571 </i>
    <i name="e_0_energy">   -103.99669762 </i>
   </energy>
  </scstep>
  <scstep>
   <time name="dav">    2.89    2.89</time>
   <time name="total">    3.02    3.02</time>
   <energy>
    <i name="e_fr_energy">   -104.00539939 </i>
    <i name="e_wo_entrp">   -104.00538249 </i>
    <i name="e_0_energy">   -104.00539517 </i>
   </energy>
  </scstep>
  <scstep>
   <time name="diag">    0.37    0.37</time>
   <time name="diis">    1.54    1.54</time>
   <time name="orth">    0.04    0.04</time>
   <time name="total">    2.10    2.10</time>
   <energy>
    <i name="e_fr_energy">    -93.86327636 </i>
    <i name="e_wo_entrp">    -93.86307484 </i>
    <i name="e_0_energy">    -93.86322598 </i>
   </energy>
  </scstep>
  <scstep>
   <time name="diag">    0.38    0.38</time>
   <time name="diis">    1.61    1.61</time>
   <time name="orth">    0.04    0.04</time>
   <time name="total">    2.18    2.18</time>
   <energy>
    <i name="e_fr_energy">    -93.37706904 </i>
    <i name="e_wo_entrp">    -93.37652477 </i>
    <i name="e_0_energy">    -93.37693297 </i>
   </energy>
  </scstep>
  <scstep>
   <time name="diag">    0.38    0.38</time>
   <time name="diis">    1.63    1.63</time>
   <time name="orth">    0.04    0.04</time>
   <time name="total">    2.20    2.20</time>
   <energy>
    <i name="e_fr_energy">    -93.26003384 </i>
    <i name="e_wo_entrp">    -93.25966056 </i>
    <i name="e_0_energy">    -93.25994052 </i>
   </energy>
  </scstep>
  <scstep>
   <time name="diag">    0.38    0.38</time>
   <time name="diis">    1.63    1.63</time>
   <time name="orth">    0.04    0.04</time>
   <time name="total">    2.20    2.20</time>
   <energy>
    <i name="e_fr_energy">    -93.25967519 </i>
    <i name="e_wo_entrp">    -93.25917244 </i>
    <i name="e_0_energy">    -93.25954950 </i>
   </energy>
  </scstep>
  <scstep>
   <time name="diag">   16.24   16.25</time>
   <time name="diis">    1.51    1.51</time>
   <time name="orth">    0.04    0.04</time>
   <time name="total">   18.78   18.86</time>
   <energy>
    <i name="e_fr_energy">    -93.25776580 </i>
    <i name="e_wo_entrp">    -93.25732561 </i>
    <i name="e_0_energy">    -93.25765575 </i>
   </energy>
  </scstep>
  <scstep>
   <time name="diag">    0.37    0.37</time>
   <time name="diis">    1.47    1.47</time>
   <time name="orth">    0.04    0.04</time>
   <time name="total">    2.03    2.03</time>
   <energy>
    <i name="e_fr_energy">    -93.25898827 </i>
    <i name="e_wo_entrp">    -93.25858061 </i>
    <i name="e_0_energy">    -93.25888635 </i>
   </energy>
  </scstep>
  <scstep>
   <time name="diag">    0.37    0.37</time>
   <time name="diis">    1.52    1.52</time>
   <time name="orth">    0.04    0.04</time>
   <time name="total">    2.08    2.08</time>
   <energy>
    <i name="e_fr_energy">    -93.25862125 </i>
    <i name="e_wo_entrp">    -93.25819031 </i>
    <i name="e_0_energy">    -93.25851351 </i>
   </energy>
  </scstep>
  <scstep>
   <time name="diag">    0.37    0.37</time>
   <time name="diis">    1.02    1.02</time>
   <time name="orth">    0.04    0.04</time>
   <time name="total">    1.44    1.44</time>
   <energy>
    <i name="alphaZ">     89.61755392 </i>
    <i name="ewald">  -2339.69296604 </i>
    <i name="hartreedc">   -589.78224339 </i>
    <i name="XCdc">     65.85513179 </i>
    <i name="pawpsdc">  10606.09684161 </i>
    <i name="pawaedc"> -10474.81986028 </i>
    <i name="eentropy">     -0.00043538 </i>
    <i name="bandstr">    138.09134262 </i>
    <i name="atom">   2411.37598431 </i>
    <i name="e_fr_energy">    -93.25865084 </i>
    <i name="e_wo_entrp">    -93.25821547 </i>
    <i name="e_0_energy">    -93.25854200 </i>
   </energy>
  </scstep>
  <structure>
   <crystal>
    <varray name="basis" >
     <v>       3.82178672      -6.61952876       0.00000000 </v>
     <v>       3.82178671       6.61952877       0.00000000 </v>
     <v>       0.00000000       0.00000000       2.68847471 </v>
    </varray>
    <i name="volume">    136.02836273 </i>
    <varray name="rec_basis" >
     <v>       0.13082886      -0.07553408       0.00000000 </v>
     <v>       0.13082886       0.07553408       0.00000000 </v>
     <v>       0.00000000       0.00000000       0.37195812 </v>
    </varray>
   </crystal>
   <varray name="positions" >
    <v>       0.19708959       0.83151770       0.75000000 </v>
    <v>       0.36557189       0.19708959       0.25000000 </v>
    <v>       0.83151770       0.63442811       0.25000000 </v>
    <v>       0.16848230       0.36557189       0.75000000 </v>
    <v>       0.63442811       0.80291041       0.75000000 </v>
    <v>       0.80291041       0.16848230       0.25000000 </v>
    <v>       0.33333333       0.66666667       0.75000000 </v>
    <v>       0.66666667       0.33333333       0.25000000 </v>
    <v>       0.96358754       0.61246345       0.75000000 </v>
    <v>       0.35112409       0.96358754       0.25000000 </v>
    <v>       0.61246345       0.64887591       0.25000000 </v>
    <v>       0.38753655       0.35112409       0.75000000 </v>
    <v>       0.03641246       0.38753655       0.25000000 </v>
    <v>       0.64887591       0.03641246       0.75000000 </v>
   </varray>
  </structure>
  <varray name="forces" >
   <v>      -0.30078681       0.59103279      -0.00000000 </v>
   <v>      -0.66224282       0.03502738       0.00000000 </v>
   <v>       0.36145601       0.55600541       0.00000000 </v>
   <v>      -0.36145601      -0.55600541       0.00000000 </v>
   <v>       0.66224282      -0.03502738      -0.00000000 </v>
   <v>       0.30078681      -0.59103279      -0.00000000 </v>
   <v>      -0.00000000      -0.00000000       0.00000000 </v>
   <v>      -0.00000000      -0.00000000      -0.00000000 </v>
   <v>      -0.24880394      -0.62825528       0.00000000 </v>
   <v>       0.41968306      -0.52959817      -0.00000000 </v>
   <v>      -0.66848700      -0.09865711      -0.00000000 </v>
   <v>       0.66848700       0.09865711       0.00000000 </v>
   <v>       0.24880394       0.62825528      -0.00000000 </v>
   <v>      -0.41968306       0.52959817       0.00000000 </v>
  </varray>
  <varray name="stress" >
   <v>     329.72252290      -0.00000004      -0.00000000 </v>
   <v>       0.00000004     329.72252290       0.00000000 </v>
   <v>      -0.00000000       0.00000000     302.83375726 </v>
  </varray>
  <energy>
   <i name="e_fr_energy">    -93.25865084 </i>
   <i name="e_wo_entrp">    -93.25854200 </i>
   <i name="e_0_energy">     -0.00043538 </i>
  </energy>
  <time name="totalsc">   51.34   51.44</time>
 </calculation>
 <calculation>
  <scstep>
   <time name="dav">    2.55    2.55</time>
   <time name="total">    3.24    3.25</time>
   <energy>
    <i name="alphaZ">     89.61755392 </i>
    <i name="ewald">  -2359.28744764 </i>
    <i name="hartreedc">   -577.17633672 </i>
    <i name="XCdc">     65.53801183 </i>
    <i name="pawpsdc">  10612.36976242 </i>
    <i name="pawaedc"> -10481.09325108 </i>
    <i name="eentropy">     -0.00081856 </i>
    <i name="bandstr">    145.40428452 </i>
    <i name="atom">   2411.37598431 </i>
    <i name="e_fr_energy">    -93.25225701 </i>
    <i name="e_wo_entrp">    -93.25143844 </i>
    <i name="e_0_energy">    -93.25205237 </i>
   </energy>
  </scstep>
  <scstep>
   <time name="diag">   12.49   12.49</time>
   <time name="diis">    2.06    2.06</time>
   <time name="orth">    0.04    0.04</time>
   <time name="total">   15.85   15.84</time>
   <energy>
    <i name="e_fr_energy">    -93.26539341 </i>
    <i name="e_wo_entrp">    -93.26461894 </i>
    <i name="e_0_energy">    -93.26519979 </i>
   </energy>
  </scstep>
  <scstep>
   <time name="diag">    0.38    0.38</time>
   <time name="diis">    1.59    1.59</time>
   <time name="orth">    0.04    0.04</time>
   <time name="total">    2.16    2.18</time>
   <energy>
    <i name="e_fr_energy">    -93.25785839 </i>
    <i name="e_wo_entrp">    -93.25710613 </i>
    <i name="e_0_energy">    -93.25767033 </i>
   </energy>
  </scstep>
  <scstep>
   <time name="diag">    0.38    0.38</time>
   <time name="diis">    1.60    1.60</time>
   <time name="orth">    0.04    0.04</time>
   <time name="total">    2.17    2.17</time>
   <energy>
    <i name="e_fr_energy">    -93.25665126 </i>
    <i name="e_wo_entrp">    -93.25593768 </i>
    <i name="e_0_energy">    -93.25647286 </i>
   </energy>
  </scstep>
  <scstep>
   <time name="diag">    0.38    0.38</time>
   <time name="diis">    1.29    1.29</time>
   <time name="orth">    0.04    0.04</time>
   <time name="total">    1.72    1.73</time>
   <energy>
    <i name="alphaZ">     89.61755392 </i>
    <i name="ewald">  -2359.28744764 </i>
    <i name="hartreedc">   -572.97084264 </i>
    <i name="XCdc">     65.32543410 </i>
    <i name="pawpsdc">  10331.63401909 </i>
    <i name="pawaedc"> -10200.26784696 </i>
    <i name="eentropy">     -0.00069822 </i>
    <i name="bandstr">    141.31712915 </i>
    <i name="atom">   2411.37598431 </i>
    <i name="e_fr_energy">    -93.25671489 </i>
    <i name="e_wo_entrp">    -93.25601667 </i>
    <i name="e_0_energy">    -93.25654033 </i>
   </energy>
  </scstep>
  <structure>
   <crystal>
    <varray name="basis" >
     <v>       3.82178672      -6.61952876       0.00000000 </v>
     <v>       3.82178671       6.61952877       0.00000000 </v>
     <v>       0.00000000       0.00000000       2.68847471 </v>
    </varray>
    <i name="volume">    136.02836273 </i>
    <varray name="rec_basis" >
     <v>       0.13082886      -0.07553408       0.00000000 </v>
     <v>       0.13082886       0.07553408       0.00000000 </v>
     <v>       0.00000000       0.00000000       0.37195812 </v>
    </varray>
   </crystal>
   <varray name="positions" >
    <v>       0.19303746       0.83177298       0.75000000 </v>
    <v>       0.36126449       0.19303746       0.25000000 </v>
    <v>       0.83177298       0.63873551       0.25000000 </v>
    <v>       0.16822702       0.36126449       0.75000000 </v>
    <v>       0.63873551       0.80696254       0.75000000 </v>
    <v>       0.80696254       0.16822702       0.25000000 </v>
    <v>       0.33333333       0.66666667       0.75000000 </v>
    <v>       0.66666667       0.33333333       0.25000000 </v>
    <v>       0.96430655       0.60860378       0.75000000 </v>
    <v>       0.35570277       0.96430655       0.25000000 </v>
    <v>       0.60860378       0.64429723       0.25000000 </v>
    <v>       0.39139622       0.35570277       0.75000000 </v>
    <v>       0.03569345       0.39139622       0.25000000 </v>
    <v>       0.64429723       0.03569345       0.75000000 </v>
   </varray>
  </structure>
  <varray name="forces" >
   <v>       0.46983721      -0.24757684      -0.00000000 </v>
   <v>       0.44932644       0.28310254       0.00000000 </v>
   <v>       0.02051077      -0.53067938       0.00000000 </v>
   <v>      -0.02051077       0.53067938       0.00000000 </v>
   <v>      -0.44932644      -0.28310254      -0.00000000 </v>
   <v>      -0.46983721       0.24757684       0.00000000 </v>
   <v>       0.00000000       0.00000000      -0.00000000 </v>
   <v>       0.00000000       0.00000000      -0.00000000 </v>
   <v>      -0.04409471       1.00032717      -0.00000000 </v>
   <v>      -0.88835609       0.46197644      -0.00000000 </v>
   <v>       0.84426138       0.53835072       0.00000000 </v>
   <v>      -0.84426138      -0.53835072       0.00000000 </v>
   <v>       0.04409471      -1.00032717      -0.00000000 </v>
   <v>       0.88835609      -0.46197644      -0.00000000 </v>
  </varray>
  <varray name="stress" >
   <v>     306.59477882      -0.00000011       0.00000000 </v>
   <v>       0.00000011     306.59477882       0.00000000 </v>
   <v>       0.00000000       0.00000000     276.32599038 </v>
  </varray>
  <energy>
   <i name="e_fr_energy">    -93.25671489 </i>
   <i name="e_wo_entrp">    -93.25654033 </i>
   <i name="e_0_energy">     -0.00069822 </i>
  </energy>
  <time name="totalsc">   31.50   31.53</time>
 </calculation>
 <calculation>
  <scstep>
   <time name="dav">    2.57    2.57</time>
   <time name="total">    2.72    2.72</time>
   <energy>
    <i name="alphaZ">     89.61755392 </i>
    <i name="ewald">  -2349.36677739 </i>
    <i name="hartreedc">   -579.23721639 </i>
    <i name="XCdc">     65.48031215 </i>
    <i name="pawpsdc">  10318.71112377 </i>
    <i name="pawaedc"> -10187.34344187 </i>
    <i name="eentropy">     -0.00077905 </i>
    <i name="bandstr">    137.44138892 </i>
    <i name="atom">   2411.37598431 </i>
    <i name="e_fr_energy">    -93.32185164 </i>
    <i name="e_wo_entrp">    -93.32107258 </i>
    <i name="e_0_energy">    -93.32165687 </i>
   </energy>
  </scstep>
  <scstep>
   <time name="diag">    0.37    0.37</time>
   <time name="diis">    1.56    1.56</time>
   <time name="orth">    0.04    0.04</time>
   <time name="total">    2.11    2.11</time>
   <energy>
    <i name="e_fr_energy">    -93.32573879 </i>
    <i name="e_wo_entrp">    -93.32496000 </i>
    <i name="e_0_energy">    -93.32554409 </i>
   </energy>
  </scstep>
  <scstep>
   <time name="diag">    0.38    0.38</time>
   <time name="diis">    1.64    1.64</time>
   <time name="orth">    0.04    0.04</time>
   <time name="total">    2.21    2.21</time>
   <energy>
    <i name="e_fr_energy">    -93.32323513 </i>
    <i name="e_wo_entrp">    -93.32243266 </i>
    <i name="e_0_energy">    -93.32303451 </i>
   </energy>
  </scstep>
  <scstep>
   <time name="diag">    0.38    0.38</time>
   <time name="diis">    1.63    1.63</time>
   <time name="orth">    0.04    0.04</time>
   <time name="total">    2.20    2.21</time>
   <energy>
    <i name="e_fr_energy">    -93.32306094 </i>
    <i name="e_wo_entrp">    -93.32225097 </i>
    <i name="e_0_energy">    -93.32285845 </i>
   </energy>
  </scstep>
  <scstep>
   <time name="diag">    0.38    0.38</time>
   <time name="diis">    1.11    1.11</time>
   <time name="orth">    0.04    0.04</time>
   <time name="total">    1.55    1.55</time>
   <energy>
    <i name="alphaZ">     89.61755392 </i>
    <i name="ewald">  -2349.36677739 </i>
    <i name="hartreedc">   -581.45231930 </i>
    <i name="XCdc">     65.59348183 </i>
    <i name="pawpsdc">  10453.25882601 </i>
    <i name="pawaedc"> -10321.93601015 </i>
    <i name="eentropy">     -0.00081089 </i>
    <i name="bandstr">    139.58700597 </i>
    <i name="atom">   2411.37598431 </i>
    <i name="e_fr_energy">    -93.32306569 </i>
    <i name="e_wo_entrp">    -93.32225480 </i>
    <i name="e_0_energy">    -93.32286297 </i>
   </energy>
  </scstep>
  <structure>
   <crystal>
    <varray name="basis" >
     <v>       3.82178672      -6.61952876       0.00000000 </v>
     <v>       3.82178671       6.61952877       0.00000000 </v>
     <v>       0.00000000       0.00000000       2.68847471 </v>
    </varray>
    <i name="volume">    136.02836273 </i>
    <varray name="rec_basis" >
     <v>       0.13082886      -0.07553408       0.00000000 </v>
     <v>       0.13082886       0.07553408       0.00000000 </v>
     <v>       0.00000000       0.00000000       0.37195812 </v>
    </varray>
   </crystal>
   <varray name="positions" >
    <v>       0.19508118       0.83164423       0.75000000 </v>
    <v>       0.36343695       0.19508118       0.25000000 </v>
    <v>       0.83164423       0.63656305       0.25000000 </v>
    <v>       0.16835577       0.36343695       0.75000000 </v>
    <v>       0.63656305       0.80491882       0.75000000 </v>
    <v>       0.80491882       0.16835577       0.25000000 </v>
    <v>       0.33333333       0.66666667       0.75000000 </v>
    <v>       0.66666667       0.33333333       0.25000000 </v>
    <v>       0.96394391       0.61055043       0.75000000 </v>
    <v>       0.35339348       0.96394391       0.25000000 </v>
    <v>       0.61055043       0.64660652       0.25000000 </v>
    <v>       0.38944957       0.35339348       0.75000000 </v>
    <v>       0.03605609       0.38944957       0.25000000 </v>
    <v>       0.64660652       0.03605609       0.75000000 </v>
   </varray>
  </structure>
  <varray name="forces" >
   <v>       0.09659804       0.16813508      -0.00000000 </v>
   <v>      -0.09731023       0.16772390       0.00000000 </v>
   <v>       0.19390827       0.00041119       0.00000000 </v>
   <v>      -0.19390827      -0.00041119       0.00000000 </v>
   <v>       0.09731023      -0.16772390      -0.00000000 </v>
   <v>      -0.09659804      -0.16813508      -0.00000000 </v>
   <v>      -0.00000000       0.00000000      -0.00000000 </v>
   <v>      -0.00000000       0.00000000       0.00000000 </v>
   <v>      -0.16054154       0.17567494       0.00000000 </v>
   <v>      -0.23240974      -0.05119558       0.00000000 </v>
   <v>       0.07186819       0.22687053      -0.00000000 </v>
   <v>      -0.07186819      -0.22687053       0.00000000 </v>
   <v>       0.16054154      -0.17567494      -0.00000000 </v>
   <v>       0.23240974       0.05119558       0.00000000 </v>
  </varray>
  <varray name="stress" >
   <v>     318.27033242       0.00000001      -0.00000000 </v>
   <v>      -0.00000001     318.27033242       0.00000000 </v>
   <v>       0.00000000       0.00000000     287.92864407 </v>
  </varray>
  <energy>
   <i name="e_fr_energy">    -93.32306569 </i>
   <i name="e_wo_entrp">    -93.32286297 </i>
   <i name="e_0_energy">     -0.00081089 </i>
  </energy>
  <time name="totalsc">   24.11   24.13</time>
 </calculation>
 <calculation>
  <scstep>
   <time name="dav">    7.32    7.32</time>
   <time name="total">    8.38    8.41</time>
   <energy>
    <i name="alphaZ">     89.61755392 </i>
    <i name="ewald">  -2354.25454560 </i>
    <i name="hartreedc">   -577.45045580 </i>
    <i name="XCdc">     65.53526386 </i>
    <i name="pawpsdc">  10459.94215881 </i>
    <i name="pawaedc"> -10328.62060855 </i>
    <i name="eentropy">     -0.00071475 </i>
    <i name="bandstr">    140.52478972 </i>
    <i name="atom">   2411.37598431 </i>
    <i name="e_fr_energy">    -93.33057409 </i>
    <i name="e_wo_entrp">    -93.32985934 </i>
    <i name="e_0_energy">    -93.33039540 </i>
   </energy>
  </scstep>
  <scstep>
   <time name="diag">    0.38    0.38</time>
   <time name="diis">    1.62    1.62</time>
   <time name="orth">    0.04    0.04</time>
   <time name="total">    2.18    2.19</time>
   <energy>
    <i name="e_fr_energy">    -93.33368186 </i>
    <i name="e_wo_entrp">    -93.33294074 </i>
    <i name="e_0_energy">    -93.33349658 </i>
   </energy>
  </scstep>
  <scstep>
   <time name="diag">    0.38    0.38</time>
   <time name="diis">    1.62    1.62</time>
   <time name="orth">    0.04    0.04</time>
   <time name="total">    2.19    2.19</time>
   <energy>
    <i name="e_fr_energy">    -93.33294089 </i>
    <i name="e_wo_entrp">    -93.33218253 </i>
    <i name="e_0_energy">    -93.33275130 </i>
   </energy>
  </scstep>
  <scstep>
   <time name="diag">    0.38    0.38</time>
   <time name="diis">    1.48    2.15</time>
   <time name="orth">    0.24    0.45</time>
   <time name="total">    2.25    3.14</time>
   <energy>
    <i name="e_fr_energy">    -93.33276995 </i>
    <i name="e_wo_entrp">    -93.33200906 </i>
    <i name="e_0_energy">    -93.33257972 </i>
   </energy>
  </scstep>
  <scstep>
   <time name="diag">    0.38    0.38</time>
   <time name="diis">    1.12    1.12</time>
   <time name="orth">    0.04    0.04</time>
   <time name="total">    1.56    1.56</time>
   <energy>
    <i name="alphaZ">     89.61755392 </i>
    <i name="ewald">  -2354.25454560 </i>
    <i name="hartreedc">   -576.98089575 </i>
    <i name="XCdc">     65.51428119 </i>
    <i name="pawpsdc">  10433.90073415 </i>
    <i name="pawaedc"> -10302.56761838 </i>
    <i name="eentropy">     -0.00075947 </i>
    <i name="bandstr">    140.06249299 </i>
    <i name="atom">   2411.37598431 </i>
    <i name="e_fr_energy">    -93.33277265 </i>
    <i name="e_wo_entrp">    -93.33201319 </i>
    <i name="e_0_energy">    -93.33258279 </i>
   </energy>
  </scstep>
  <structure>
   <crystal>
    <varray name="basis" >
     <v>       3.82178672      -6.61952876       0.00000000 </v>
     <v>       3.82178671       6.61952877       0.00000000 </v>
     <v>       0.00000000       0.00000000       2.68847471 </v>
    </varray>
    <i name="volume">    136.02836273 </i>
    <varray name="rec_basis" >
     <v>       0.13082886      -0.07553408       0.00000000 </v>
     <v>       0.13082886       0.07553408       0.00000000 </v>
     <v>       0.00000000       0.00000000       0.37195812 </v>
    </varray>
   </crystal>
   <varray name="positions" >
    <v>       0.19469503       0.83276744       0.75000000 </v>
    <v>       0.36192759       0.19469503       0.25000000 </v>
    <v>       0.83276744       0.63807241       0.25000000 </v>
    <v>       0.16723256       0.36192759       0.75000000 </v>
    <v>       0.63807241       0.80530497       0.75000000 </v>
    <v>       0.80530497       0.16723256       0.25000000 </v>
    <v>       0.33333333       0.66666667       0.75000000 </v>
    <v>       0.66666667       0.33333333       0.25000000 </v>
    <v>       0.96252532       0.60984971       0.75000000 </v>
    <v>       0.35267561       0.96252532       0.25000000 </v>
    <v>       0.60984971       0.64732439       0.25000000 </v>
    <v>       0.39015029       0.35267561       0.75000000 </v>
    <v>       0.03747468       0.39015029       0.25000000 </v>
    <v>       0.64732439       0.03747468       0.75000000 </v>
   </varray>
  </structure>
  <varray name="forces" >
   <v>      -0.19077607       0.05931577       0.00000000 </v>
   <v>      -0.14675699      -0.13555904      -0.00000000 </v>
   <v>      -0.04401907       0.19487480      -0.00000000 </v>
   <v>       0.04401907      -0.19487480      -0.00000000 </v>
   <v>       0.14675699       0.13555904       0.00000000 </v>
   <v>       0.19077607      -0.05931577      -0.00000000 </v>
   <v>       0.00000000       0.00000000       0.00000000 </v>
   <v>       0.00000000       0.00000000      -0.00000000 </v>
   <v>       0.15871343       0.08778029       0.00000000 </v>
   <v>       0.00333675       0.18134001       0.00000000 </v>
   <v>       0.15537668      -0.09355972       0.00000000 </v>
   <v>      -0.15537668       0.09355972      -0.00000000 </v>
   <v>      -0.15871343      -0.08778029       0.00000000 </v>
   <v>      -0.00333675      -0.18134001      -0.00000000 </v>
  </varray>
  <varray name="stress" >
   <v>     308.12924727      -0.00000013       0.00000000 </v>
   <v>       0.00000013     308.12924727       0.00000000 </v>
   <v>       0.00000000       0.00000000     297.97932158 </v>
  </varray>
  <energy>
   <i name="e_fr_energy">    -93.33277265 </i>
   <i name="e_wo_entrp">    -93.33258279 </i>
   <i name="e_0_energy">     -0.00075947 </i>
  </energy>
  <time name="totalsc">   21.08   22.00</time>
 </calculation>
 <calculation>
  <scstep>
   <time name="dav">    2.81    2.81</time>
   <time name="total">    2.97    2.97</time>
   <energy>
    <i name="alphaZ">     89.61755392 </i>
    <i name="ewald">  -2353.45406623 </i>
    <i name="hartreedc">   -577.66459377 </i>
    <i name="XCdc">     65.52565028 </i>
    <i name="pawpsdc">  10431.76404826 </i>
    <i name="pawaedc"> -10300.43031227 </i>
    <i name="eentropy">     -0.00078252 </i>
    <i name="bandstr">    139.93337877 </i>
    <i name="atom">   2411.37598431 </i>
    <i name="e_fr_energy">    -93.33313925 </i>
    <i name="e_wo_entrp">    -93.33235672 </i>
    <i name="e_0_energy">    -93.33294362 </i>
   </energy>
  </scstep>
  <scstep>
   <time name="diag">    0.37    0.37</time>
   <time name="diis">    1.45    1.45</time>
   <time name="orth">    0.04    0.04</time>
   <time name="total">    2.01    2.01</time>
   <energy>
    <i name="e_fr_energy">    -93.33321957 </i>
    <i name="e_wo_entrp">    -93.33244220 </i>
    <i name="e_0_energy">    -93.33302523 </i>
   </energy>
  </scstep>
  <scstep>
   <time name="diag">    0.37    0.37</time>
   <time name="diis">    0.94    0.94</time>
   <time name="orth">    0.04    0.04</time>
   <time name="total">    1.37    1.37</time>
   <energy>
    <i name="alphaZ">     89.61755392 </i>
    <i name="ewald">  -2353.45406623 </i>
    <i name="hartreedc">   -577.72275212 </i>
    <i name="XCdc">     65.52814178 </i>
    <i name="pawpsdc">  10434.60336073 </i>
    <i name="pawaedc"> -10303.27069211 </i>
    <i name="eentropy">     -0.00077469 </i>
    <i name="bandstr">    139.99004872 </i>
    <i name="atom">   2411.37598431 </i>
    <i name="e_fr_energy">    -93.33319569 </i>
    <i name="e_wo_entrp">    -93.33242100 </i>
    <i name="e_0_energy">    -93.33300202 </i>
   </energy>
  </scstep>
  <structure>
   <crystal>
    <varray name="basis" >
     <v>       3.82178672      -6.61952876       0.00000000 </v>
     <v>       3.82178671       6.61952877       0.00000000 </v>
     <v>       0.00000000       0.00000000       2.68847471 </v>
    </varray>
    <i name="volume">    136.02836273 </i>
    <varray name="rec_basis" >
     <v>       0.13082886      -0.07553408       0.00000000 </v>
     <v>       0.13082886       0.07553408       0.00000000 </v>
     <v>       0.00000000       0.00000000       0.37195812 </v>
    </varray>
   </crystal>
   <varray name="positions" >
    <v>       0.19475911       0.83258106       0.75000000 </v>
    <v>       0.36217805       0.19475911       0.25000000 </v>
    <v>       0.83258106       0.63782195       0.25000000 </v>
    <v>       0.16741894       0.36217805       0.75000000 </v>
    <v>       0.63782195       0.80524089       0.75000000 </v>
    <v>       0.80524089       0.16741894       0.25000000 </v>
    <v>       0.33333333       0.66666667       0.75000000 </v>
    <v>       0.66666667       0.33333333       0.25000000 </v>
    <v>       0.96276071       0.60996599       0.75000000 </v>
    <v>       0.35279473       0.96276071       0.25000000 </v>
    <v>       0.60996599       0.64720527       0.25000000 </v>
    <v>       0.39003401       0.35279473       0.75000000 </v>
    <v>       0.03723929       0.39003401       0.25000000 </v>
    <v>       0.64720527       0.03723929       0.75000000 </v>
   </varray>
  </structure>
  <varray name="forces" >
   <v>      -0.14764319       0.07292235       0.00000000 </v>
   <v>      -0.13697420      -0.09140158       0.00000000 </v>
   <v>      -0.01066899       0.16432393       0.00000000 </v>
   <v>       0.01066899      -0.16432393      -0.00000000 </v>
   <v>       0.13697420       0.09140158      -0.00000000 </v>
   <v>       0.14764319      -0.07292235      -0.00000000 </v>
   <v>       0.00000000       0.00000000       0.00000000 </v>
   <v>       0.00000000       0.00000000       0.00000000 </v>
   <v>       0.10673745       0.10152196      -0.00000000 </v>
   <v>      -0.03455187       0.14319833       0.00000000 </v>
   <v>       0.14128932      -0.04167637      -0.00000000 </v>
   <v>      -0.14128932       0.04167637       0.00000000 </v>
   <v>      -0.10673745      -0.10152196      -0.00000000 </v>
   <v>       0.03455187      -0.14319833      -0.00000000 </v>
  </varray>
  <varray name="stress" >
   <v>     309.64145365       0.00000009      -0.00000000 </v>
   <v>      -0.00000009     309.64145365       0.00000000 </v>
   <v>       0.00000000       0.00000000     296.52633654 </v>
  </varray>
  <energy>
   <i name="e_fr_energy">    -93.33319569 </i>
   <i name="e_wo_entrp">    -93.33300202 </i>
   <i name="e_0_energy">     -0.00077469 </i>
  </energy>
  <time name="totalsc">   11.82   11.83</time>
 </calculation>
 <calculation>
  <scstep>
   <time name="dav">    2.34    2.34</time>
   <time name="total">    2.50    2.56</time>
   <energy>
    <i name="alphaZ">     89.61755392 </i>
    <i name="ewald">  -2357.50631298 </i>
    <i name="hartreedc">   -573.89443665 </i>
    <i name="XCdc">     65.47611683 </i>
    <i name="pawpsdc">  10435.91773622 </i>
    <i name="pawaedc"> -10304.58571765 </i>
    <i name="eentropy">     -0.00086758 </i>
    <i name="bandstr">    140.26233008 </i>
    <i name="atom">   2411.37598431 </i>
    <i name="e_fr_energy">    -93.33761351 </i>
    <i name="e_wo_entrp">    -93.33674592 </i>
    <i name="e_0_energy">    -93.33739661 </i>
   </energy>
  </scstep>
  <scstep>
   <time name="diag">    0.37    0.37</time>
   <time name="diis">    1.67    1.67</time>
   <time name="orth">    0.04    0.04</time>
   <time name="total">    2.23    2.23</time>
   <energy>
    <i name="e_fr_energy">    -93.34065637 </i>
    <i name="e_wo_entrp">    -93.33976081 </i>
    <i name="e_0_energy">    -93.34043248 </i>
   </energy>
  </scstep>
  <scstep>
   <time name="diag">    0.37    0.37</time>
   <time name="diis">    1.47    1.47</time>
   <time name="orth">    0.04    0.04</time>
   <time name="total">    2.03    2.03</time>
   <energy>
    <i name="e_fr_energy">    -93.34021035 </i>
    <i name="e_wo_entrp">    -93.33930031 </i>
    <i name="e_0_energy">    -93.33998284 </i>
   </energy>
  </scstep>
  <scstep>
   <time name="diag">    0.37    0.37</time>
   <time name="diis">    1.24    1.24</time>
   <time name="orth">    0.04    0.04</time>
   <time name="total">    1.80    1.80</time>
   <energy>
    <i name="e_fr_energy">    -93.34009793 </i>
    <i name="e_wo_entrp">    -93.33919013 </i>
    <i name="e_0_energy">    -93.33987098 </i>
   </energy>
  </scstep>
  <scstep>
   <time name="diag">    0.37    0.37</time>
   <time name="diis">    0.98    0.98</time>
   <time name="orth">    0.04    0.04</time>
   <time name="total">    1.40    1.40</time>
   <energy>
    <i name="alphaZ">     89.61755392 </i>
    <i name="ewald">  -2357.50631298 </i>
    <i name="hartreedc">   -573.97444210 </i>
    <i name="XCdc">     65.48630119 </i>
    <i name="pawpsdc">  10426.07097634 </i>
    <i name="pawaedc"> -10294.73686278 </i>
    <i name="eentropy">     -0.00090398 </i>
    <i name="bandstr">    140.32760776 </i>
    <i name="atom">   2411.37598431 </i>
    <i name="e_fr_energy">    -93.34009833 </i>
    <i name="e_wo_entrp">    -93.33919435 </i>
    <i name="e_0_energy">    -93.33987233 </i>
   </energy>
  </scstep>
  <structure>
   <crystal>
    <varray name="basis" >
     <v>       3.82178672      -6.61952876       0.00000000 </v>
     <v>       3.82178671       6.61952877       0.00000000 </v>
     <v>       0.00000000       0.00000000       2.68847471 </v>
    </varray>
    <i name="volume">    136.02836273 </i>
    <varray name="rec_basis" >
     <v>       0.13082886      -0.07553408       0.00000000 </v>
     <v>       0.13082886       0.07553408       0.00000000 </v>
     <v>       0.00000000       0.00000000       0.37195812 </v>
    </varray>
   </crystal>
   <varray name="positions" >
    <v>       0.19351951       0.83257954       0.75000000 </v>
    <v>       0.36093997       0.19351951       0.25000000 </v>
    <v>       0.83257954       0.63906003       0.25000000 </v>
    <v>       0.16742046       0.36093997       0.75000000 </v>
    <v>       0.63906003       0.80648049       0.75000000 </v>
    <v>       0.80648049       0.16742046       0.25000000 </v>
    <v>       0.33333333       0.66666667       0.75000000 </v>
    <v>       0.66666667       0.33333333       0.25000000 </v>
    <v>       0.96229533       0.61051289       0.75000000 </v>
    <v>       0.35178243       0.96229533       0.25000000 </v>
    <v>       0.61051289       0.64821757       0.25000000 </v>
    <v>       0.38948711       0.35178243       0.75000000 </v>
    <v>       0.03770467       0.38948711       0.25000000 </v>
    <v>       0.64821757       0.03770467       0.75000000 </v>
   </varray>
  </structure>
  <varray name="forces" >
   <v>      -0.02571165       0.01230199       0.00000000 </v>
   <v>      -0.02350966      -0.01611594       0.00000000 </v>
   <v>      -0.00220198       0.02841794      -0.00000000 </v>
   <v>       0.00220198      -0.02841794      -0.00000000 </v>
   <v>       0.02350966       0.01611594      -0.00000000 </v>
   <v>       0.02571165      -0.01230199      -0.00000000 </v>
   <v>      -0.00000000       0.00000000       0.00000000 </v>
   <v>      -0.00000000       0.00000000       0.00000000 </v>
   <v>       0.01468669       0.00907090      -0.00000000 </v>
   <v>      -0.00051228       0.01725450      -0.00000000 </v>
   <v>       0.01519897      -0.00818360       0.00000000 </v>
   <v>      -0.01519897       0.00818360      -0.00000000 </v>
   <v>      -0.01468669      -0.00907090      -0.00000000 </v>
   <v>       0.00051228      -0.01725450       0.00000000 </v>
  </varray>
  <varray name="stress" >
   <v>     308.69613955      -0.00000007       0.00000000 </v>
   <v>       0.00000007     308.69613955       0.00000000 </v>
   <v>      -0.00000000       0.00000000     294.11344575 </v>
  </varray>
  <energy>
   <i name="e_fr_energy">    -93.34009833 </i>
   <i name="e_wo_entrp">    -93.33987233 </i>
   <i name="e_0_energy">     -0.00090398 </i>
  </energy>
  <time name="totalsc">   14.08   14.15</time>
 </calculation>
 <calculation>
  <scstep>
   <time name="dav">    2.78    2.78</time>
   <time name="total">    2.93    2.93</time>
   <energy>
    <i name="alphaZ">     89.61755392 </i>
    <i name="ewald">  -2358.16264438 </i>
    <i name="hartreedc">   -573.38961610 </i>
    <i name="XCdc">     65.47986754 </i>
    <i name="pawpsdc">  10427.99543176 </i>
    <i name="pawaedc"> -10296.66089551 </i>
    <i name="eentropy">     -0.00091570 </i>
    <i name="bandstr">    140.40508147 </i>
    <i name="atom">   2411.37598431 </i>
    <i name="e_fr_energy">    -93.34015269 </i>
    <i name="e_wo_entrp">    -93.33923700 </i>
    <i name="e_0_energy">    -93.33992377 </i>
   </energy>
  </scstep>
  <scstep>
   <time name="diag">    0.38    0.38</time>
   <time name="diis">    1.64    1.64</time>
   <time name="orth">    0.04    0.04</time>
   <time name="total">    2.21    2.21</time>
   <energy>
    <i name="e_fr_energy">    -93.34023975 </i>
    <i name="e_wo_entrp">    -93.33931956 </i>
    <i name="e_0_energy">    -93.34000970 </i>
   </energy>
  </scstep>
  <scstep>
   <time name="diag">    0.38    0.38</time>
   <time name="diis">    1.02    1.02</time>
   <time name="orth">    0.04    0.04</time>
   <time name="total">    1.46    1.47</time>
   <energy>
    <i name="alphaZ">     89.61755392 </i>
    <i name="ewald">  -2358.16264438 </i>
    <i name="hartreedc">   -573.40149211 </i>
    <i name="XCdc">     65.48112774 </i>
    <i name="pawpsdc">  10424.71229316 </i>
    <i name="pawaedc"> -10293.37783623 </i>
    <i name="eentropy">     -0.00092235 </i>
    <i name="bandstr">    140.41570737 </i>
    <i name="atom">   2411.37598431 </i>
    <i name="e_fr_energy">    -93.34022857 </i>
    <i name="e_wo_entrp">    -93.33930623 </i>
    <i name="e_0_energy">    -93.33999799 </i>
   </energy>
  </scstep>
  <structure>
   <crystal>
    <varray name="basis" >
     <v>       3.82178672      -6.61952876       0.00000000 </v>
     <v>       3.82178671       6.61952877       0.00000000 </v>
     <v>       0.00000000       0.00000000       2.68847471 </v>
    </varray>
    <i name="volume">    136.02836273 </i>
    <varray name="rec_basis" >
     <v>       0.13082886      -0.07553408       0.00000000 </v>
     <v>       0.13082886       0.07553408       0.00000000 </v>
     <v>       0.00000000       0.00000000       0.37195812 </v>
    </varray>
   </crystal>
   <varray name="positions" >
    <v>       0.19331226       0.83257929       0.75000000 </v>
    <v>       0.36073297       0.19331226       0.25000000 </v>
    <v>       0.83257929       0.63926703       0.25000000 </v>
    <v>       0.16742071       0.36073297       0.75000000 </v>
    <v>       0.63926703       0.80668774       0.75000000 </v>
    <v>       0.80668774       0.16742071       0.25000000 </v>
    <v>       0.33333333       0.66666667       0.75000000 </v>
    <v>       0.66666667       0.33333333       0.25000000 </v>
    <v>       0.96221752       0.61060434       0.75000000 </v>
    <v>       0.35161318       0.96221752       0.25000000 </v>
    <v>       0.61060434       0.64838682       0.25000000 </v>
    <v>       0.38939566       0.35161318       0.75000000 </v>
    <v>       0.03778248       0.38939566       0.25000000 </v>
    <v>       0.64838682       0.03778248       0.75000000 </v>
   </varray>
  </structure>
  <varray name="forces" >
   <v>      -0.00521818       0.00343813      -0.00000000 </v>
   <v>      -0.00558660      -0.00280001       0.00000000 </v>
   <v>       0.00036842       0.00623814       0.00000000 </v>
   <v>      -0.00036842      -0.00623814       0.00000000 </v>
   <v>       0.00558660       0.00280001       0.00000000 </v>
   <v>       0.00521818      -0.00343813      -0.00000000 </v>
   <v>       0.00000000      -0.00000000      -0.00000000 </v>
   <v>       0.00000000      -0.00000000      -0.00000000 </v>
   <v>      -0.00083863      -0.00653088       0.00000000 </v>
   <v>       0.00523659      -0.00399172       0.00000000 </v>
   <v>      -0.00607522      -0.00253916       0.00000000 </v>
   <v>       0.00607522       0.00253916      -0.00000000 </v>
   <v>       0.00083863       0.00653088       0.00000000 </v>
   <v>      -0.00523659       0.00399172      -0.00000000 </v>
  </varray>
  <varray name="stress" >
   <v>     308.35924651       0.00000000       0.00000000 </v>
   <v>      -0.00000000     308.35924651       0.00000000 </v>
   <v>       0.00000000       0.00000000     293.74198161 </v>
  </varray>
  <energy>
   <i name="e_fr_energy">    -93.34022857 </i>
   <i name="e_wo_entrp">    -93.33999799 </i>
   <i name="e_0_energy">     -0.00092235 </i>
  </energy>
  <time name="totalsc">   10.45   10.46</time>
  <eigenvalues>
   <array>
    <dimension dim="1">band</dimension>
    <dimension dim="2">kpoint</dimension>
    <dimension dim="3">spin</dimension>
    <field>eigene</field>
    <field>occ</field>
    <set>
     <set comment="spin 1">
      <set comment="kpoint 1">
       <r>   -9.6840    1.0000 </r>
       <r>   -8.3221    1.0000 </r>
       <r>   -8.3221    1.0000 </r>
       <r>   -7.6361    1.0000 </r>
       <r>   -7.6361    1.0000 </r>
       <r>   -7.4657    1.0000 </r>
       <r>   -1.1236    1.0000 </r>
       <r>   -1.1236    1.0000 </r>
       <r>   -1.0882    1.0000 </r>
       <r>   -0.1975    1.0000 </r>
       <r>    1.2012    1.0000 </r>
       <r>    1.7151    1.0000 </r>
       <r>    1.7151    1.0000 </r>
       <r>    3.6376    1.0000 </r>
       <r>    3.6376    1.0000 </r>
       <r>    4.9303    1.0000 </r>
       <r>    5.0396    1.0000 </r>
       <r>    5.0396    1.0000 </r>
       <r>    5.6683    1.0000 </r>
       <r>    5.9078    1.0000 </r>
       <r>    6.4934    1.0000 </r>
       <r>    6.4934    1.0000 </r>
       <r>    7.0648    1.0000 </r>
       <r>    7.0648    1.0000 </r>
       <r>    7.2638    1.0000 </r>
       <r>    8.2385    1.0000 </r>
       <r>    8.3559    1.0000 </r>
       <r>    8.3559    1.0000 </r>
       <r>   10.4199    1.0000 </r>
       <r>   10.5222    1.0000 </r>
       <r>   10.5222    1.0000 </r>
       <r>   15.1038    0.0000 </r>
       <r>   15.1541    0.0000 </r>
       <r>   15.1541    0.0000 </r>
       <r>   15.8675    0.0000 </r>
       <r>   15.8675    0.0000 </r>
       <r>   16.4169    0.0000 </r>
       <r>   16.6376    0.0000 </r>
       <r>   17.0470    0.0000 </r>
       <r>   17.0470    0.0000 </r>
      </set>
      <set comment="kpoint 2">
       <r>   -9.6401    1.0000 </r>
       <r>   -8.4269    1.0000 </r>
       <r>   -8.3687    1.0000 </r>
       <r>   -7.8156    1.0000 </r>
       <r>   -7.5640    1.0000 </r>
       <r>   -7.2083    1.0000 </r>
       <r>   -1.4410    1.0000 </r>
       <r>   -1.1230    1.0000 </r>
       <r>   -1.0193    1.0000 </r>
       <r>    0.1122    1.0000 </r>
       <r>    1.0398    1.0000 </r>
       <r>    1.6175    1.0000 </r>
       <r>    1.8484    1.0000 </r>
       <r>    3.5424    1.0000 </r>
       <r>    3.7188    1.0000 </r>
       <r>    4.7700    1.0000 </r>
       <r>    4.9864    1.0000 </r>
       <r>    5.2055    1.0000 </r>
       <r>    5.9321    1.0000 </r>
       <r>    5.9422    1.0000 </r>
       <r>    6.4620    1.0000 </r>
       <r>    6.4853    1.0000 </r>
       <r>    7.0182    1.0000 </r>
       <r>    7.0782    1.0000 </r>
       <r>    7.3210    1.0000 </r>
       <r>    8.0994    1.0000 </r>
       <r>    8.1478    1.0000 </r>
       <r>    8.3702    1.0000 </r>
       <r>   10.3588    1.0000 </r>
       <r>   10.6912    1.0000 </r>
       <r>   10.7451    1.0000 </r>
       <r>   14.6901    0.0000 </r>
       <r>   15.0185    0.0000 </r>
       <r>   15.2231    0.0000 </r>
       <r>   15.7312    0.0000 </r>
       <r>   15.9108    0.0000 </r>
       <r>   16.4478    0.0000 </r>
       <r>   16.7183    0.0000 </r>
       <r>   16.9872    0.0000 </r>
       <r>   16.9920    0.0000 </r>
      </set>
      <set comment="kpoint 3">
       <r>   -9.5114    1.0000 </r>
       <r>   -8.6980    1.0000 </r>
       <r>   -8.4518    1.0000 </r>
       <r>   -7.9182    1.0000 </r>
       <r>   -7.4206    1.0000 </r>
       <r>   -6.9257    1.0000 </r>
       <r>   -1.8767    1.0000 </r>
       <r>   -1.1218    1.0000 </r>
       <r>   -0.8244    1.0000 </r>
       <r>    0.3993    1.0000 </r>
       <r>    0.7611    1.0000 </r>
       <r>    1.4135    1.0000 </r>
       <r>    2.2802    1.0000 </r>
       <r>    3.3561    1.0000 </r>
       <r>    3.7230    1.0000 </r>
       <r>    4.6496    1.0000 </r>
       <r>    4.9423    1.0000 </r>
       <r>    5.4750    1.0000 </r>
       <r>    5.9977    1.0000 </r>
       <r>    6.3691    1.0000 </r>
       <r>    6.3691    1.0000 </r>
       <r>    6.4642    1.0000 </r>
       <r>    6.9582    1.0000 </r>
       <r>    7.1026    1.0000 </r>
       <r>    7.4015    1.0000 </r>
       <r>    7.5936    1.0000 </r>
       <r>    7.7829    1.0000 </r>
       <r>    8.7105    1.0000 </r>
       <r>   10.1712    1.0000 </r>
       <r>   10.9835    1.0000 </r>
       <r>   11.2393    0.9996 </r>
       <r>   13.7585    0.0000 </r>
       <r>   14.7597    0.0000 </r>
       <r>   15.3286    0.0000 </r>
       <r>   15.6603    0.0000 </r>
       <r>   15.9850    0.0000 </r>
       <r>   16.5314    0.0000 </r>
       <r>   16.5713    0.0000 </r>
       <r>   16.7165    0.0000 </r>
       <r>   16.8661    0.0000 </r>
      </set>
      <set comment="kpoint 4">
       <r>   -9.3110    1.0000 </r>
       <r>   -9.0013    1.0000 </r>
       <r>   -8.5056    1.0000 </r>
       <r>   -7.9490    1.0000 </r>
       <r>   -7.3153    1.0000 </r>
       <r>   -6.7622    1.0000 </r>
       <r>   -2.1337    1.0000 </r>
       <r>   -1.1214    1.0000 </r>
       <r>   -0.5700    1.0000 </r>
       <r>    0.1639    1.0000 </r>
       <r>    0.7997    1.0000 </r>
       <r>    1.2607    1.0000 </r>
       <r>    2.9273    1.0000 </r>
       <r>    3.2276    1.0000 </r>
       <r>    3.5043    1.0000 </r>
       <r>    4.2428    1.0000 </r>
       <r>    5.2996    1.0000 </r>
       <r>    5.6888    1.0000 </r>
       <r>    6.0948    1.0000 </r>
       <r>    6.2523    1.0000 </r>
       <r>    6.4511    1.0000 </r>
       <r>    6.5111    1.0000 </r>
       <r>    6.9297    1.0000 </r>
       <r>    7.1223    1.0000 </r>
       <r>    7.1769    1.0000 </r>
       <r>    7.4502    1.0000 </r>
       <r>    7.6224    1.0000 </r>
       <r>    9.1247    1.0000 </r>
       <r>    9.8934    1.0000 </r>
       <r>   11.1525    1.0000 </r>
       <r>   11.8782    0.0000 </r>
       <r>   12.7797    0.0000 </r>
       <r>   14.5811    0.0000 </r>
       <r>   15.5510    0.0000 </r>
       <r>   15.6416    0.0000 </r>
       <r>   15.8697    0.0000 </r>
       <r>   16.4141    0.0000 </r>
       <r>   16.6346    0.0000 </r>
       <r>   16.6816    0.0000 </r>
       <r>   16.8047    0.0000 </r>
      </set>
      <set comment="kpoint 5">
       <r>   -9.5538    1.0000 </r>
       <r>   -8.5462    1.0000 </r>
       <r>   -8.5249    1.0000 </r>
       <r>   -7.8537    1.0000 </r>
       <r>   -7.4885    1.0000 </r>
       <r>   -6.9861    1.0000 </r>
       <r>   -1.7866    1.0000 </r>
       <r>   -1.0898    1.0000 </r>
       <r>   -0.8827    1.0000 </r>
       <r>    0.3105    1.0000 </r>
       <r>    0.7966    1.0000 </r>
       <r>    1.6025    1.0000 </r>
       <r>    2.0557    1.0000 </r>
       <r>    3.3356    1.0000 </r>
       <r>    3.8869    1.0000 </r>
       <r>    4.6453    1.0000 </r>
       <r>    4.8551    1.0000 </r>
       <r>    5.4523    1.0000 </r>
       <r>    5.9769    1.0000 </r>
       <r>    6.2646    1.0000 </r>
       <r>    6.4105    1.0000 </r>
       <r>    6.4556    1.0000 </r>
       <r>    6.9807    1.0000 </r>
       <r>    7.0898    1.0000 </r>
       <r>    7.3836    1.0000 </r>
       <r>    7.7294    1.0000 </r>
       <r>    7.8855    1.0000 </r>
       <r>    8.5995    1.0000 </r>
       <r>   10.2380    1.0000 </r>
       <r>   10.9396    1.0000 </r>
       <r>   11.0604    1.0000 </r>
       <r>   14.1003    0.0000 </r>
       <r>   14.6625    0.0000 </r>
       <r>   15.3109    0.0000 </r>
       <r>   15.6654    0.0000 </r>
       <r>   16.0121    0.0000 </r>
       <r>   16.5053    0.0000 </r>
       <r>   16.6501    0.0000 </r>
       <r>   16.8986    0.0000 </r>
       <r>   16.9326    0.0000 </r>
      </set>
      <set comment="kpoint 6">
       <r>   -9.3867    1.0000 </r>
       <r>   -8.8310    1.0000 </r>
       <r>   -8.6234    1.0000 </r>
       <r>   -7.8327    1.0000 </r>
       <r>   -7.4048    1.0000 </r>
       <r>   -6.7844    1.0000 </r>
       <r>   -2.1080    1.0000 </r>
       <r>   -1.0139    1.0000 </r>
       <r>   -0.6374    1.0000 </r>
       <r>    0.1814    1.0000 </r>
       <r>    0.5003    1.0000 </r>
       <r>    1.7341    1.0000 </r>
       <r>    2.5068    1.0000 </r>
       <r>    3.1033    1.0000 </r>
       <r>    3.9363    1.0000 </r>
       <r>    4.3644    1.0000 </r>
       <r>    4.9074    1.0000 </r>
       <r>    5.7345    1.0000 </r>
       <r>    6.0587    1.0000 </r>
       <r>    6.3185    1.0000 </r>
       <r>    6.4197    1.0000 </r>
       <r>    6.4806    1.0000 </r>
       <r>    6.9610    1.0000 </r>
       <r>    7.1003    1.0000 </r>
       <r>    7.4433    1.0000 </r>
       <r>    7.4700    1.0000 </r>
       <r>    7.5266    1.0000 </r>
       <r>    8.9870    1.0000 </r>
       <r>   10.0011    1.0000 </r>
       <r>   11.2333    0.9997 </r>
       <r>   11.5092    0.7226 </r>
       <r>   13.2123    0.0000 </r>
       <r>   14.2975    0.0000 </r>
       <r>   15.4535    0.0000 </r>
       <r>   15.6569    0.0000 </r>
       <r>   16.1228    0.0000 </r>
       <r>   16.3478    0.0000 </r>
       <r>   16.6054    0.0000 </r>
       <r>   16.7795    0.0000 </r>
       <r>   16.8778    0.0000 </r>
      </set>
      <set comment="kpoint 7">
       <r>   -9.1988    1.0000 </r>
       <r>   -9.0720    1.0000 </r>
       <r>   -8.6547    1.0000 </r>
       <r>   -7.8227    1.0000 </r>
       <r>   -7.3653    1.0000 </r>
       <r>   -6.7083    1.0000 </r>
       <r>   -2.2298    1.0000 </r>
       <r>   -0.9664    1.0000 </r>
       <r>   -0.4492    1.0000 </r>
       <r>   -0.0004    1.0000 </r>
       <r>    0.3581    1.0000 </r>
       <r>    1.7837    1.0000 </r>
       <r>    2.8702    1.0000 </r>
       <r>    3.1177    1.0000 </r>
       <r>    3.6689    1.0000 </r>
       <r>    4.1831    1.0000 </r>
       <r>    5.1071    1.0000 </r>
       <r>    5.8355    1.0000 </r>
       <r>    6.1363    1.0000 </r>
       <r>    6.2341    1.0000 </r>
       <r>    6.4070    1.0000 </r>
       <r>    6.4866    1.0000 </r>
       <r>    6.9579    1.0000 </r>
       <r>    7.1046    1.0000 </r>
       <r>    7.2149    1.0000 </r>
       <r>    7.4663    1.0000 </r>
       <r>    7.5692    1.0000 </r>
       <r>    9.2832    1.0000 </r>
       <r>    9.7825    1.0000 </r>
       <r>   11.2947    0.9970 </r>
       <r>   12.0895    0.0000 </r>
       <r>   12.4541    0.0000 </r>
       <r>   14.2042    0.0000 </r>
       <r>   15.5725    0.0000 </r>
       <r>   15.7280    0.0000 </r>
       <r>   15.8773    0.0000 </r>
       <r>   16.3591    0.0000 </r>
       <r>   16.6763    0.0000 </r>
       <r>   16.7484    0.0000 </r>
       <r>   16.8482    0.0000 </r>
      </set>
      <set comment="kpoint 8">
       <r>   -9.3867    1.0000 </r>
       <r>   -8.8309    1.0000 </r>
       <r>   -8.6234    1.0000 </r>
       <r>   -7.8326    1.0000 </r>
       <r>   -7.4049    1.0000 </r>
       <r>   -6.7843    1.0000 </r>
       <r>   -2.1082    1.0000 </r>
       <r>   -1.0102    1.0000 </r>
       <r>   -0.6455    1.0000 </r>
       <r>    0.1956    1.0000 </r>
       <r>    0.4920    1.0000 </r>
       <r>    1.7300    1.0000 </r>
       <r>    2.4903    1.0000 </r>
       <r>    3.1542    1.0000 </r>
       <r>    3.9213    1.0000 </r>
       <r>    4.2937    1.0000 </r>
       <r>    4.9620    1.0000 </r>
       <r>    5.7581    1.0000 </r>
       <r>    6.0585    1.0000 </r>
       <r>    6.3191    1.0000 </r>
       <r>    6.4192    1.0000 </r>
       <r>    6.4709    1.0000 </r>
       <r>    6.9611    1.0000 </r>
       <r>    7.1002    1.0000 </r>
       <r>    7.3250    1.0000 </r>
       <r>    7.4433    1.0000 </r>
       <r>    7.6580    1.0000 </r>
       <r>    8.9922    1.0000 </r>
       <r>    9.9984    1.0000 </r>
       <r>   11.1784    1.0000 </r>
       <r>   11.5786    0.0751 </r>
       <r>   13.1640    0.0000 </r>
       <r>   14.3458    0.0000 </r>
       <r>   15.4832    0.0000 </r>
       <r>   15.6475    0.0000 </r>
       <r>   16.0091    0.0000 </r>
       <r>   16.4284    0.0000 </r>
       <r>   16.6021    0.0000 </r>
       <r>   16.7918    0.0000 </r>
       <r>   16.8993    0.0000 </r>
      </set>
      <set comment="kpoint 9">
       <r>   -9.1907    1.0000 </r>
       <r>   -8.9441    1.0000 </r>
       <r>   -8.8578    1.0000 </r>
       <r>   -7.6638    1.0000 </r>
       <r>   -7.4769    1.0000 </r>
       <r>   -6.6792    1.0000 </r>
       <r>   -2.2854    1.0000 </r>
       <r>   -0.7265    1.0000 </r>
       <r>   -0.3835    1.0000 </r>
       <r>   -0.1856    1.0000 </r>
       <r>    0.0782    1.0000 </r>
       <r>    2.3651    1.0000 </r>
       <r>    2.5623    1.0000 </r>
       <r>    2.9220    1.0000 </r>
       <r>    3.8468    1.0000 </r>
       <r>    4.3667    1.0000 </r>
       <r>    4.7683    1.0000 </r>
       <r>    5.8677    1.0000 </r>
       <r>    6.1406    1.0000 </r>
       <r>    6.2845    1.0000 </r>
       <r>    6.3367    1.0000 </r>
       <r>    6.4943    1.0000 </r>
       <r>    7.0032    1.0000 </r>
       <r>    7.0681    1.0000 </r>
       <r>    7.3749    1.0000 </r>
       <r>    7.4636    1.0000 </r>
       <r>    7.4735    1.0000 </r>
       <r>    9.3480    1.0000 </r>
       <r>    9.7403    1.0000 </r>
       <r>   11.4907    0.8768 </r>
       <r>   11.8933    0.0000 </r>
       <r>   12.5230    0.0000 </r>
       <r>   13.9051    0.0000 </r>
       <r>   15.5162    0.0000 </r>
       <r>   15.7471    0.0000 </r>
       <r>   15.9761    0.0000 </r>
       <r>   16.2379    0.0000 </r>
       <r>   16.6961    0.0000 </r>
       <r>   16.7229    0.0000 </r>
       <r>   16.8257    0.0000 </r>
      </set>
      <set comment="kpoint 10">
       <r>   -9.6318    1.0000 </r>
       <r>   -8.2768    1.0000 </r>
       <r>   -8.2768    1.0000 </r>
       <r>   -7.5934    1.0000 </r>
       <r>   -7.5934    1.0000 </r>
       <r>   -7.4272    1.0000 </r>
       <r>   -1.0815    1.0000 </r>
       <r>   -1.0815    1.0000 </r>
       <r>   -1.0296    1.0000 </r>
       <r>   -0.1457    1.0000 </r>
       <r>    1.2269    1.0000 </r>
       <r>    1.7482    1.0000 </r>
       <r>    1.7482    1.0000 </r>
       <r>    3.6834    1.0000 </r>
       <r>    3.6834    1.0000 </r>
[...]
       <r>   13.0966    0.0000 </r>
       <r>   14.1786    0.0000 </r>
       <r>   14.6249    0.0000 </r>
       <r>   15.1919    0.0000 </r>
       <r>   15.2359    0.0000 </r>
      </set>
      <set comment="kpoint 80">
       <r>   -6.9210    1.0000 </r>
       <r>   -6.7530    1.0000 </r>
       <r>   -6.4141    1.0000 </r>
       <r>   -6.3055    1.0000 </r>
       <r>   -6.1837    1.0000 </r>
       <r>   -6.1526    1.0000 </r>
       <r>   -0.6774    1.0000 </r>
       <r>   -0.5268    1.0000 </r>
       <r>    0.2105    1.0000 </r>
       <r>    0.4263    1.0000 </r>
       <r>    0.7734    1.0000 </r>
       <r>    1.0771    1.0000 </r>
       <r>    1.7237    1.0000 </r>
       <r>    2.2621    1.0000 </r>
       <r>    2.6120    1.0000 </r>
       <r>    2.7538    1.0000 </r>
       <r>    2.9881    1.0000 </r>
       <r>    3.0526    1.0000 </r>
       <r>    3.7288    1.0000 </r>
       <r>    3.9869    1.0000 </r>
       <r>    5.3296    1.0000 </r>
       <r>    5.4963    1.0000 </r>
       <r>    5.6242    1.0000 </r>
       <r>    5.9006    1.0000 </r>
       <r>    6.8447    1.0000 </r>
       <r>    7.0688    1.0000 </r>
       <r>    7.5512    1.0000 </r>
       <r>    7.7111    1.0000 </r>
       <r>    8.2154    1.0000 </r>
       <r>    8.5491    1.0000 </r>
       <r>   10.1504    1.0000 </r>
       <r>   10.3964    1.0000 </r>
       <r>   12.4429    0.0000 </r>
       <r>   12.6605    0.0000 </r>
       <r>   12.8449    0.0000 </r>
       <r>   13.2786    0.0000 </r>
       <r>   14.0307    0.0000 </r>
       <r>   14.5489    0.0000 </r>
       <r>   15.1770    0.0000 </r>
       <r>   15.2783    0.0000 </r>
      </set>
      <set comment="kpoint 81">
       <r>   -6.8614    1.0000 </r>
       <r>   -6.7960    1.0000 </r>
       <r>   -6.4573    1.0000 </r>
       <r>   -6.2643    1.0000 </r>
       <r>   -6.2130    1.0000 </r>
       <r>   -6.1451    1.0000 </r>
       <r>   -0.6962    1.0000 </r>
       <r>   -0.6356    1.0000 </r>
       <r>    0.4458    1.0000 </r>
       <r>    0.5724    1.0000 </r>
       <r>    0.7262    1.0000 </r>
       <r>    1.0973    1.0000 </r>
       <r>    1.6727    1.0000 </r>
       <r>    2.1511    1.0000 </r>
       <r>    2.6620    1.0000 </r>
       <r>    2.7348    1.0000 </r>
       <r>    2.8993    1.0000 </r>
       <r>    2.9419    1.0000 </r>
       <r>    3.8170    1.0000 </r>
       <r>    3.9352    1.0000 </r>
       <r>    5.3481    1.0000 </r>
       <r>    5.4270    1.0000 </r>
       <r>    5.5271    1.0000 </r>
       <r>    5.9300    1.0000 </r>
       <r>    6.9458    1.0000 </r>
       <r>    7.0364    1.0000 </r>
       <r>    7.4929    1.0000 </r>
       <r>    7.5767    1.0000 </r>
       <r>    8.4715    1.0000 </r>
       <r>    8.8264    1.0000 </r>
       <r>   10.2573    1.0000 </r>
       <r>   10.2958    1.0000 </r>
       <r>   12.4854    0.0000 </r>
       <r>   12.5480    0.0000 </r>
       <r>   12.6519    0.0000 </r>
       <r>   12.9973    0.0000 </r>
       <r>   14.3728    0.0000 </r>
       <r>   14.6601    0.0000 </r>
       <r>   15.1358    0.0000 </r>
       <r>   15.1641    0.0000 </r>
      </set>
     </set>
    </set>
   </array>
  </eigenvalues>
  <separator name="orbital magnetization" >
   <v name="MAGDIPOLOUT">      0.00000000      0.00000000      0.00000000</v>
  </separator>
  <dos>
   <i name="efermi">     11.53098180 </i>
   <total>
    <array>
     <dimension dim="1">gridpoints</dimension>
     <dimension dim="2">spin</dimension>
     <field>energy</field>
     <field>total</field>
     <field>integrated</field>
     <set>
      <set comment="spin 1">
       <r>   -11.0263     0.0000     0.0000 </r>
       <r>   -10.9278     0.0000     0.0000 </r>
       <r>   -10.8294     0.0000     0.0000 </r>
       <r>   -10.7310     0.0000     0.0000 </r>
       <r>   -10.6325     0.0000     0.0000 </r>
       <r>   -10.5341     0.0000     0.0000 </r>
       <r>   -10.4357     0.0000     0.0000 </r>
       <r>   -10.3372     0.0000     0.0000 </r>
       <r>   -10.2388     0.0000     0.0000 </r>
       <r>   -10.1403     0.0000     0.0000 </r>
       <r>   -10.0419     0.0000     0.0000 </r>
       <r>    -9.9435     0.0001     0.0000 </r>
       <r>    -9.8450     0.0013     0.0001 </r>
       <r>    -9.7466    -0.0100    -0.0008 </r>
       <r>    -9.6482     0.0982     0.0088 </r>
       <r>    -9.5497     0.4909     0.0571 </r>
       <r>    -9.4513     0.7707     0.1330 </r>
       <r>    -9.3529     1.0040     0.2318 </r>
       <r>    -9.2544     1.1414     0.3442 </r>
       <r>    -9.1560     1.3591     0.4780 </r>
       <r>    -9.0575     1.4377     0.6195 </r>
       <r>    -8.9591     1.3921     0.7565 </r>
       <r>    -8.8607     1.6704     0.9210 </r>
       <r>    -8.7622     2.2530     1.1427 </r>
       <r>    -8.6638     1.9078     1.3305 </r>
       <r>    -8.5654     2.7051     1.5968 </r>
       <r>    -8.4669     2.6536     1.8580 </r>
       <r>    -8.3685     3.6158     2.2140 </r>
       <r>    -8.2701     2.5864     2.4686 </r>
       <r>    -8.1716     2.5637     2.7209 </r>
       <r>    -8.0732     2.2358     2.9410 </r>
       <r>    -7.9747     1.7301     3.1113 </r>
       <r>    -7.8763     2.6225     3.3695 </r>
       <r>    -7.7779     3.9271     3.7561 </r>
       <r>    -7.6794     3.8492     4.1350 </r>
       <r>    -7.5810     2.7970     4.4103 </r>
       <r>    -7.4826     3.2150     4.7268 </r>
       <r>    -7.3841     4.9476     5.2138 </r>
       <r>    -7.2857     4.7487     5.6812 </r>
       <r>    -7.1872     4.6190     6.1359 </r>
       <r>    -7.0888     3.3570     6.4664 </r>
       <r>    -6.9904     4.3373     6.8933 </r>
       <r>    -6.8919     5.4949     7.4342 </r>
       <r>    -6.7935     4.4777     7.8750 </r>
       <r>    -6.6951     6.2698     8.4922 </r>
       <r>    -6.5966     5.8224     9.0653 </r>
       <r>    -6.4982     3.9562     9.4547 </r>
       <r>    -6.3998     4.2410     9.8722 </r>
       <r>    -6.3013     5.3490    10.3987 </r>
       <r>    -6.2029     5.3448    10.9249 </r>
       <r>    -6.1044     6.6952    11.5839 </r>
       <r>    -6.0060     2.7852    11.8581 </r>
       <r>    -5.9076     1.5199    12.0077 </r>
       <r>    -5.8091    -0.0863    11.9992 </r>
       <r>    -5.7107     0.0062    11.9998 </r>
       <r>    -5.6123     0.0018    12.0000 </r>
       <r>    -5.5138     0.0000    12.0000 </r>
       <r>    -5.4154     0.0000    12.0000 </r>
       <r>    -5.3169     0.0000    12.0000 </r>
       <r>    -5.2185     0.0000    12.0000 </r>
       <r>    -5.1201     0.0000    12.0000 </r>
       <r>    -5.0216     0.0000    12.0000 </r>
       <r>    -4.9232     0.0000    12.0000 </r>
       <r>    -4.8248     0.0000    12.0000 </r>
       <r>    -4.7263     0.0000    12.0000 </r>
       <r>    -4.6279     0.0000    12.0000 </r>
       <r>    -4.5295     0.0000    12.0000 </r>
       <r>    -4.4310     0.0000    12.0000 </r>
       <r>    -4.3326     0.0000    12.0000 </r>
       <r>    -4.2341     0.0000    12.0000 </r>
       <r>    -4.1357     0.0000    12.0000 </r>
       <r>    -4.0373     0.0000    12.0000 </r>
       <r>    -3.9388     0.0000    12.0000 </r>
       <r>    -3.8404     0.0000    12.0000 </r>
       <r>    -3.7420     0.0000    12.0000 </r>
       <r>    -3.6435     0.0000    12.0000 </r>
       <r>    -3.5451     0.0000    12.0000 </r>
       <r>    -3.4466     0.0000    12.0000 </r>
       <r>    -3.3482     0.0000    12.0000 </r>
       <r>    -3.2498     0.0000    12.0000 </r>
       <r>    -3.1513     0.0000    12.0000 </r>
       <r>    -3.0529     0.0000    12.0000 </r>
       <r>    -2.9545     0.0000    12.0000 </r>
       <r>    -2.8560     0.0000    12.0000 </r>
       <r>    -2.7576     0.0000    12.0000 </r>
       <r>    -2.6592     0.0000    12.0000 </r>
       <r>    -2.5607     0.0002    12.0000 </r>
       <r>    -2.4623     0.0018    12.0002 </r>
       <r>    -2.3638    -0.0154    11.9987 </r>
       <r>    -2.2654     0.1687    12.0153 </r>
       <r>    -2.1670     0.5774    12.0721 </r>
       <r>    -2.0685     1.0576    12.1762 </r>
       <r>    -1.9701     0.9749    12.2722 </r>
       <r>    -1.8717     0.7391    12.3449 </r>
       <r>    -1.7732     0.9265    12.4361 </r>
       <r>    -1.6748     0.8661    12.5214 </r>
       <r>    -1.5763     1.1075    12.6304 </r>
       <r>    -1.4779     0.1905    12.6492 </r>
       <r>    -1.3795     0.8226    12.7301 </r>
       <r>    -1.2810     1.1251    12.8409 </r>
       <r>    -1.1826     0.7976    12.9194 </r>
       <r>    -1.0842     1.0172    13.0195 </r>
       <r>    -0.9857     2.5393    13.2695 </r>
       <r>    -0.8873     2.7132    13.5366 </r>
       <r>    -0.7889     2.4034    13.7732 </r>
       <r>    -0.6904     3.2933    14.0973 </r>
       <r>    -0.5920     4.1893    14.5097 </r>
       <r>    -0.4935     4.9179    14.9938 </r>
       <r>    -0.3951     3.8154    15.3694 </r>
       <r>    -0.2967     6.2202    15.9817 </r>
       <r>    -0.1982     4.0882    16.3841 </r>
       <r>    -0.0998     3.8192    16.7601 </r>
       <r>    -0.0014     1.8202    16.9392 </r>
       <r>     0.0971     3.3493    17.2689 </r>
       <r>     0.1955     3.4959    17.6131 </r>
       <r>     0.2940     4.4698    18.0531 </r>
       <r>     0.3924     4.0814    18.4548 </r>
       <r>     0.4908     4.8117    18.9285 </r>
       <r>     0.5893     4.6740    19.3886 </r>
       <r>     0.6877     3.2171    19.7053 </r>
       <r>     0.7861     3.6477    20.0643 </r>
       <r>     0.8846     5.0938    20.5657 </r>
       <r>     0.9830     3.6946    20.9294 </r>
       <r>     1.0814     4.0373    21.3268 </r>
       <r>     1.1799     5.6933    21.8873 </r>
       <r>     1.2783     2.8455    22.1674 </r>
       <r>     1.3768     2.4697    22.4105 </r>
       <r>     1.4752     3.0398    22.7097 </r>
       <r>     1.5736     3.7474    23.0786 </r>
       <r>     1.6721     3.8835    23.4609 </r>
       <r>     1.7705     5.0571    23.9587 </r>
       <r>     1.8689     3.6982    24.3227 </r>
       <r>     1.9674     4.8175    24.7969 </r>
       <r>     2.0658     2.6065    25.0535 </r>
       <r>     2.1643     2.5539    25.3049 </r>
       <r>     2.2627     3.3974    25.6393 </r>
       <r>     2.3611     4.0928    26.0422 </r>
       <r>     2.4596     4.2852    26.4641 </r>
       <r>     2.5580     4.3422    26.8915 </r>
       <r>     2.6564     5.2989    27.4131 </r>
       <r>     2.7549     4.1872    27.8253 </r>
       <r>     2.8533     4.4288    28.2612 </r>
       <r>     2.9517     6.1588    28.8675 </r>
       <r>     3.0502     7.6171    29.6173 </r>
       <r>     3.1486     5.9760    30.2055 </r>
       <r>     3.2471     4.5023    30.6487 </r>
       <r>     3.3455     4.0037    31.0428 </r>
       <r>     3.4439     4.2108    31.4573 </r>
       <r>     3.5424     3.3393    31.7860 </r>
       <r>     3.6408     3.6536    32.1457 </r>
       <r>     3.7392     7.0715    32.8418 </r>
       <r>     3.8377     5.8559    33.4182 </r>
       <r>     3.9361     6.4248    34.0507 </r>
       <r>     4.0346     5.5921    34.6011 </r>
       <r>     4.1330     2.9951    34.8959 </r>
       <r>     4.2314     3.6739    35.2576 </r>
       <r>     4.3299     5.8320    35.8317 </r>
       <r>     4.4283     5.2485    36.3483 </r>
       <r>     4.5267     3.0757    36.6511 </r>
       <r>     4.6252     4.6094    37.1048 </r>
       <r>     4.7236     4.2499    37.5232 </r>
       <r>     4.8220     5.4421    38.0589 </r>
       <r>     4.9205     4.3125    38.4834 </r>
       <r>     5.0189     4.6914    38.9452 </r>
       <r>     5.1174     4.5455    39.3926 </r>
       <r>     5.2158     4.9379    39.8787 </r>
       <r>     5.3142     5.6576    40.4356 </r>
       <r>     5.4127     5.3463    40.9619 </r>
       <r>     5.5111     5.2596    41.4796 </r>
       <r>     5.6095     7.6045    42.2282 </r>
       <r>     5.7080     6.9594    42.9133 </r>
       <r>     5.8064     6.2912    43.5326 </r>
       <r>     5.9049     7.3238    44.2535 </r>
       <r>     6.0033     6.5343    44.8967 </r>
       <r>     6.1017     5.6352    45.4514 </r>
       <r>     6.2002     5.9615    46.0382 </r>
       <r>     6.2986     4.8864    46.5192 </r>
       <r>     6.3970     4.1147    46.9243 </r>
       <r>     6.4955     2.3611    47.1567 </r>
       <r>     6.5939     2.0234    47.3559 </r>
       <r>     6.6923     0.7322    47.4280 </r>
       <r>     6.7908     2.8681    47.7103 </r>
       <r>     6.8892     4.1308    48.1169 </r>
       <r>     6.9877     4.0373    48.5143 </r>
       <r>     7.0861     5.3669    49.0426 </r>
       <r>     7.1845     3.6523    49.4021 </r>
       <r>     7.2830     4.9865    49.8930 </r>
       <r>     7.3814     4.9567    50.3809 </r>
       <r>     7.4798     6.7330    51.0437 </r>
       <r>     7.5783     6.9491    51.7277 </r>
       <r>     7.6767     7.5766    52.4735 </r>
       <r>     7.7752     6.6664    53.1298 </r>
       <r>     7.8736     5.5790    53.6789 </r>
       <r>     7.9720     4.8928    54.1606 </r>
       <r>     8.0705     3.4603    54.5012 </r>
       <r>     8.1689     4.1504    54.9097 </r>
       <r>     8.2673     3.8396    55.2877 </r>
       <r>     8.3658     2.4390    55.5278 </r>
       <r>     8.4642     1.6626    55.6915 </r>
       <r>     8.5626     1.5633    55.8453 </r>
       <r>     8.6611     0.9236    55.9363 </r>
       <r>     8.7595     1.1174    56.0462 </r>
       <r>     8.8580     1.9466    56.2379 </r>
       <r>     8.9564     1.6586    56.4011 </r>
       <r>     9.0548     3.1350    56.7097 </r>
       <r>     9.1533     2.6424    56.9698 </r>
       <r>     9.2517     3.6287    57.3270 </r>
       <r>     9.3501     2.0075    57.5246 </r>
       <r>     9.4486     1.6776    57.6898 </r>
       <r>     9.5470     1.1712    57.8051 </r>
       <r>     9.6455     3.4647    58.1461 </r>
       <r>     9.7439     1.6290    58.3065 </r>
       <r>     9.8423     1.3103    58.4355 </r>
       <r>     9.9408     1.5628    58.5893 </r>
       <r>    10.0392     1.6320    58.7499 </r>
       <r>    10.1376     0.9427    58.8427 </r>
       <r>    10.2361     2.8387    59.1222 </r>
       <r>    10.3345     3.5634    59.4729 </r>
       <r>    10.4329     2.3565    59.7049 </r>
       <r>    10.5314     1.1054    59.8137 </r>
       <r>    10.6298     0.6990    59.8825 </r>
       <r>    10.7283     1.0987    59.9907 </r>
       <r>    10.8267     2.9421    60.2803 </r>
       <r>    10.9251     1.9384    60.4711 </r>
       <r>    11.0236     2.3180    60.6993 </r>
       <r>    11.1220     3.3019    61.0243 </r>
       <r>    11.2204     3.9021    61.4084 </r>
       <r>    11.3189     3.0130    61.7050 </r>
       <r>    11.4173     1.4955    61.8522 </r>
       <r>    11.5157     1.2388    61.9742 </r>
       <r>    11.6142     1.5411    62.1259 </r>
       <r>    11.7126     1.1380    62.2379 </r>
       <r>    11.8111     1.1948    62.3555 </r>
       <r>    11.9095     1.6485    62.5178 </r>
       <r>    12.0079     1.2108    62.6370 </r>
       <r>    12.1064     2.3371    62.8670 </r>
       <r>    12.2048     1.8089    63.0451 </r>
       <r>    12.3032     1.8445    63.2266 </r>
       <r>    12.4017     4.6326    63.6827 </r>
       <r>    12.5001     5.5653    64.2305 </r>
       <r>    12.5986     4.8116    64.7041 </r>
       <r>    12.6970     4.3817    65.1354 </r>
       <r>    12.7954     3.7882    65.5083 </r>
       <r>    12.8939     3.0355    65.8072 </r>
       <r>    12.9923     2.9310    66.0957 </r>
       <r>    13.0907     2.4710    66.3389 </r>
       <r>    13.1892     4.1764    66.7500 </r>
       <r>    13.2876     4.6105    67.2039 </r>
       <r>    13.3860     2.7707    67.4766 </r>
       <r>    13.4845     2.8773    67.7598 </r>
       <r>    13.5829     2.9353    68.0488 </r>
       <r>    13.6814     3.0910    68.3530 </r>
       <r>    13.7798     1.8401    68.5342 </r>
       <r>    13.8782     2.0518    68.7362 </r>
       <r>    13.9767     3.3256    69.0635 </r>
       <r>    14.0751     3.4675    69.4048 </r>
       <r>    14.1735     1.7623    69.5783 </r>
       <r>    14.2720     2.9015    69.8639 </r>
       <r>    14.3704     4.5043    70.3073 </r>
       <r>    14.4689     4.0177    70.7028 </r>
       <r>    14.5673     3.3785    71.0354 </r>
       <r>    14.6657     3.1222    71.3427 </r>
       <r>    14.7642     4.2205    71.7582 </r>
       <r>    14.8626     3.1175    72.0650 </r>
       <r>    14.9610     3.3371    72.3935 </r>
       <r>    15.0595     3.1318    72.7018 </r>
       <r>    15.1579     6.2625    73.3183 </r>
       <r>    15.2563     7.2105    74.0280 </r>
       <r>    15.3548     5.2798    74.5478 </r>
       <r>    15.4532     4.3841    74.9793 </r>
       <r>    15.5517     4.1749    75.3903 </r>
       <r>    15.6501     2.7945    75.6654 </r>
       <r>    15.7485     4.2273    76.0815 </r>
       <r>    15.8470     3.0327    76.3800 </r>
       <r>    15.9454     1.8721    76.5643 </r>
       <r>    16.0438     2.7292    76.8330 </r>
       <r>    16.1423     2.3666    77.0659 </r>
       <r>    16.2407     2.4835    77.3104 </r>
       <r>    16.3392     2.9502    77.6008 </r>
       <r>    16.4376     3.6271    77.9578 </r>
       <r>    16.5360     3.6231    78.3145 </r>
       <r>    16.6345     3.9911    78.7073 </r>
       <r>    16.7329     5.3743    79.2364 </r>
       <r>    16.8313     2.3927    79.4719 </r>
       <r>    16.9298     3.1170    79.7787 </r>
       <r>    17.0282     2.2145    79.9967 </r>
       <r>    17.1266    -0.0066    79.9961 </r>
       <r>    17.2251     0.0363    79.9996 </r>
       <r>    17.3235     0.0037    80.0000 </r>
       <r>    17.4220    -0.0002    80.0000 </r>
       <r>    17.5204     0.0001    80.0000 </r>
       <r>    17.6188     0.0000    80.0000 </r>
       <r>    17.7173     0.0000    80.0000 </r>
       <r>    17.8157     0.0000    80.0000 </r>
       <r>    17.9141     0.0000    80.0000 </r>
       <r>    18.0126     0.0000    80.0000 </r>
       <r>    18.1110     0.0000    80.0000 </r>
       <r>    18.2095     0.0000    80.0000 </r>
       <r>    18.3079     0.0000    80.0000 </r>
       <r>    18.4063     0.0000    80.0000 </r>
       <r>    18.5048     0.0000    80.0000 </r>
      </set>
     </set>
    </array>
   </total>
  </dos>
 </calculation>
 <structure name="finalpos" >
  <crystal>
   <varray name="basis" >
    <v>       3.82178672      -6.61952876       0.00000000 </v>
    <v>       3.82178671       6.61952877       0.00000000 </v>
    <v>       0.00000000       0.00000000       2.68847471 </v>
   </varray>
   <i name="volume">    136.02836273 </i>
   <varray name="rec_basis" >
    <v>       0.13082886      -0.07553408       0.00000000 </v>
    <v>       0.13082886       0.07553408       0.00000000 </v>
    <v>       0.00000000       0.00000000       0.37195812 </v>
   </varray>
  </crystal>
  <varray name="positions" >
   <v>       0.19331226       0.83257929       0.75000000 </v>
   <v>       0.36073297       0.19331226       0.25000000 </v>
   <v>       0.83257929       0.63926703       0.25000000 </v>
   <v>       0.16742071       0.36073297       0.75000000 </v>
   <v>       0.63926703       0.80668774       0.75000000 </v>
   <v>       0.80668774       0.16742071       0.25000000 </v>
   <v>       0.33333333       0.66666667       0.75000000 </v>
   <v>       0.66666667       0.33333333       0.25000000 </v>
   <v>       0.96221752       0.61060434       0.75000000 </v>
   <v>       0.35161318       0.96221752       0.25000000 </v>
   <v>       0.61060434       0.64838682       0.25000000 </v>
   <v>       0.38939566       0.35161318       0.75000000 </v>
   <v>       0.03778248       0.38939566       0.25000000 </v>
   <v>       0.64838682       0.03778248       0.75000000 </v>
  </varray>
 </structure>
</modeling>
