unknown system                          
           1
     3.821787   -6.619529    0.000000
     3.821787    6.619529    0.000000
     0.000000    0.000000    2.688475
   Si   N 
   6   8
Direct configuration=     1
   0.19708959  0.83151770  0.75000000
   0.36557189  0.19708959  0.25000000
   0.83151770  0.63442811  0.25000000
   0.16848230  0.36557189  0.75000000
   0.63442811  0.80291041  0.75000000
   0.80291041  0.16848230  0.25000000
   0.33333333  0.66666667  0.75000000
   0.66666667  0.33333333  0.25000000
   0.96358754  0.61246345  0.75000000
   0.35112409  0.96358754  0.25000000
   0.61246345  0.64887591  0.25000000
   0.38753655  0.35112409  0.75000000
   0.03641246  0.38753655  0.25000000
   0.64887591  0.03641246  0.75000000
Direct configuration=     2
   0.19303746  0.83177298  0.75000000
   0.36126449  0.19303746  0.25000000
   0.83177298  0.63873551  0.25000000
   0.16822702  0.36126449  0.75000000
   0.63873551  0.80696254  0.75000000
   0.80696254  0.16822702  0.25000000
   0.33333333  0.66666667  0.75000000
   0.66666667  0.33333333  0.25000000
   0.96430655  0.60860378  0.75000000
   0.35570277  0.96430655  0.25000000
   0.60860378  0.64429723  0.25000000
   0.39139622  0.35570277  0.75000000
   0.03569345  0.39139622  0.25000000
   0.64429723  0.03569345  0.75000000
Direct configuration=     3
   0.19508118  0.83164423  0.75000000
   0.36343695  0.19508118  0.25000000
   0.83164423  0.63656305  0.25000000
   0.16835577  0.36343695  0.75000000
   0.63656305  0.80491882  0.75000000
   0.80491882  0.16835577  0.25000000
   0.33333333  0.66666667  0.75000000
   0.66666667  0.33333333  0.25000000
   0.96394391  0.61055043  0.75000000
   0.35339348  0.96394391  0.25000000
   0.61055043  0.64660652  0.25000000
   0.38944957  0.35339348  0.75000000
   0.03605609  0.38944957  0.25000000
   0.64660652  0.03605609  0.75000000
Direct configuration=     4
   0.19469503  0.83276744  0.75000000
   0.36192759  0.19469503  0.25000000
   0.83276744  0.63807241  0.25000000
   0.16723256  0.36192759  0.75000000
   0.63807241  0.80530497  0.75000000
   0.80530497  0.16723256  0.25000000
   0.33333333  0.66666667  0.75000000
   0.66666667  0.33333333  0.25000000
   0.96252532  0.60984971  0.75000000
   0.35267561  0.96252532  0.25000000
   0.60984971  0.64732439  0.25000000
   0.39015029  0.35267561  0.75000000
   0.03747468  0.39015029  0.25000000
   0.64732439  0.03747468  0.75000000
Direct configuration=     5
   0.19475911  0.83258106  0.75000000
   0.36217805  0.19475911  0.25000000
   0.83258106  0.63782195  0.25000000
   0.16741894  0.36217805  0.75000000
   0.63782195  0.80524089  0.75000000
   0.80524089  0.16741894  0.25000000
   0.33333333  0.66666667  0.75000000
   0.66666667  0.33333333  0.25000000
   0.96276071  0.60996599  0.75000000
   0.35279473  0.96276071  0.25000000
   0.60996599  0.64720527  0.25000000
   0.39003401  0.35279473  0.75000000
   0.03723929  0.39003401  0.25000000
   0.64720527  0.03723929  0.75000000
Direct configuration=     6
   0.19351951  0.83257954  0.75000000
   0.36093997  0.19351951  0.25000000
   0.83257954  0.63906003  0.25000000
   0.16742046  0.36093997  0.75000000
   0.63906003  0.80648049  0.75000000
   0.80648049  0.16742046  0.25000000
   0.33333333  0.66666667  0.75000000
   0.66666667  0.33333333  0.25000000
   0.96229533  0.61051289  0.75000000
   0.35178243  0.96229533  0.25000000
   0.61051289  0.64821757  0.25000000
   0.38948711  0.35178243  0.75000000
   0.03770467  0.38948711  0.25000000
   0.64821757  0.03770467  0.75000000
Direct configuration=     7
   0.19331226  0.83257929  0.75000000
   0.36073297  0.19331226  0.25000000
   0.83257929  0.63926703  0.25000000
   0.16742071  0.36073297  0.75000000
   0.63926703  0.80668774  0.75000000
   0.80668774  0.16742071  0.25000000
   0.33333333  0.66666667  0.75000000
   0.66666667  0.33333333  0.25000000
   0.96221752  0.61060434  0.75000000
   0.35161318  0.96221752  0.25000000
   0.61060434  0.64838682  0.25000000
   0.38939566  0.35161318  0.75000000
   0.03778248  0.38939566  0.25000000
   0.64838682  0.03778248  0.75000000
