  28  28   0   0
  0.1273097E+02  0.8628464E-09  0.8628464E-09  0.5528688E-09  0.5000000E-15
  1.000000000000000E-004
  CAR 
 unknown system                          
     13.62341234    -12.40129109  301      7.33380798      1.00000000
    -12.401  0.0000E+00  0.0000E+00
    -12.315  0.0000E+00  0.0000E+00
    -12.228  0.0000E+00  0.0000E+00
    -12.141  0.0000E+00  0.0000E+00
    -12.054  0.2916E-31  0.2529E-32
    -11.968  0.1995E-25  0.1730E-26
    -11.881  0.2947E-20  0.2556E-21
    -11.794  0.9389E-16  0.8145E-17
    -11.707  0.6401E-12  0.5553E-13
    -11.621  0.9221E-09  0.8005E-10
    -11.534  0.2700E-06  0.2351E-07
    -11.447  0.1417E-04  0.1253E-05
    -11.360  0.5758E-04  0.6248E-05
    -11.274 -0.5271E-03 -0.3948E-04
    -11.187  0.4128E-02  0.3186E-03
    -11.100  0.2077E-01  0.2121E-02
    -11.013  0.3584E-01  0.5229E-02
    -10.927  0.4317E-01  0.8975E-02
    -10.840  0.4379E-01  0.1277E-01
    -10.753  0.5087E-01  0.1719E-01
    -10.666  0.7654E-01  0.2383E-01
    -10.580  0.1044E+00  0.3288E-01
    -10.493  0.7488E-01  0.3938E-01
    -10.406  0.9672E-01  0.4777E-01
    -10.319  0.5002E-01  0.5211E-01
    -10.233  0.4172E-01  0.5573E-01
    -10.146  0.1960E-01  0.5743E-01
    -10.059  0.1503E-01  0.5873E-01
     -9.972  0.8835E-01  0.6640E-01
     -9.886  0.6468E-01  0.7201E-01
     -9.799  0.1236E-01  0.7308E-01
     -9.712  0.9317E-01  0.8116E-01
     -9.625  0.1584E+00  0.9491E-01
     -9.539  0.7789E-01  0.1017E+00
     -9.452  0.6295E-01  0.1071E+00
     -9.365  0.5033E-01  0.1115E+00
     -9.278  0.3419E-01  0.1145E+00
     -9.192  0.8933E-01  0.1222E+00
     -9.105  0.1310E+00  0.1336E+00
     -9.018  0.1794E+00  0.1491E+00
     -8.931  0.1469E+00  0.1619E+00
     -8.845  0.1462E+00  0.1746E+00
     -8.758  0.1051E+00  0.1837E+00
     -8.671  0.9497E-01  0.1919E+00
     -8.584  0.1193E+00  0.2023E+00
     -8.498  0.2294E+00  0.2222E+00
     -8.411  0.1887E+00  0.2385E+00
     -8.324  0.2063E-01  0.2403E+00
     -8.237 -0.4514E-02  0.2399E+00
     -8.151  0.6779E-03  0.2400E+00
     -8.064  0.7620E-04  0.2400E+00
     -7.977  0.8762E-06  0.2400E+00
     -7.890  0.1779E-08  0.2400E+00
     -7.804  0.7204E-12  0.2400E+00
     -7.717  0.6204E-16  0.2400E+00
     -7.630  0.0000E+00  0.2400E+00
     -7.543  0.0000E+00  0.2400E+00
     -7.457  0.0000E+00  0.2400E+00
     -7.370  0.0000E+00  0.2400E+00
     -7.283  0.0000E+00  0.2400E+00
     -7.196  0.0000E+00  0.2400E+00
     -7.110  0.0000E+00  0.2400E+00
     -7.023  0.0000E+00  0.2400E+00
     -6.936  0.0000E+00  0.2400E+00
     -6.849  0.0000E+00  0.2400E+00
     -6.763  0.0000E+00  0.2400E+00
     -6.676  0.0000E+00  0.2400E+00
     -6.589  0.0000E+00  0.2400E+00
     -6.502  0.0000E+00  0.2400E+00
     -6.416  0.0000E+00  0.2400E+00
     -6.329  0.0000E+00  0.2400E+00
     -6.242  0.0000E+00  0.2400E+00
     -6.155  0.0000E+00  0.2400E+00
     -6.069  0.0000E+00  0.2400E+00
     -5.982  0.0000E+00  0.2400E+00
     -5.895  0.0000E+00  0.2400E+00
     -5.808  0.0000E+00  0.2400E+00
     -5.722  0.0000E+00  0.2400E+00
     -5.635  0.0000E+00  0.2400E+00
     -5.548  0.0000E+00  0.2400E+00
     -5.461  0.0000E+00  0.2400E+00
     -5.375  0.0000E+00  0.2400E+00
     -5.288  0.0000E+00  0.2400E+00
     -5.201  0.0000E+00  0.2400E+00
     -5.114  0.0000E+00  0.2400E+00
     -5.028  0.2092E-32  0.2400E+00
     -4.941  0.1846E-26  0.2400E+00
     -4.854  0.3460E-21  0.2400E+00
     -4.767  0.1366E-16  0.2400E+00
     -4.681  0.1106E-12  0.2400E+00
     -4.594  0.1792E-09  0.2400E+00
     -4.507  0.5537E-07  0.2400E+00
     -4.420  0.2974E-05  0.2400E+00
     -4.334  0.1895E-04  0.2400E+00
     -4.247 -0.1010E-03  0.2400E+00
     -4.160  0.5294E-03  0.2400E+00
     -4.073  0.7325E-02  0.2407E+00
     -3.987  0.9007E-02  0.2415E+00
     -3.900  0.1434E-01  0.2427E+00
     -3.813  0.2114E-01  0.2445E+00
     -3.726  0.1098E-01  0.2455E+00
     -3.640  0.3325E-01  0.2484E+00
     -3.553  0.2605E-01  0.2506E+00
     -3.466  0.2371E-01  0.2527E+00
     -3.379  0.3721E-01  0.2559E+00
     -3.293  0.2781E-01  0.2583E+00
     -3.206  0.7625E-01  0.2649E+00
     -3.119  0.6811E-01  0.2709E+00
     -3.032  0.8368E-01  0.2781E+00
     -2.946  0.9530E-01  0.2864E+00
     -2.859  0.8684E-01  0.2939E+00
     -2.772  0.7673E-01  0.3006E+00
     -2.685  0.6519E-01  0.3062E+00
     -2.599  0.5865E-01  0.3113E+00
     -2.512  0.5669E-01  0.3162E+00
     -2.425  0.6662E-01  0.3220E+00
     -2.338  0.1093E+00  0.3315E+00
     -2.252  0.1200E+00  0.3419E+00
     -2.165  0.1001E+00  0.3506E+00
     -2.078  0.1102E+00  0.3601E+00
     -1.991  0.1301E+00  0.3714E+00
     -1.905  0.1032E+00  0.3804E+00
     -1.818  0.9681E-01  0.3888E+00
     -1.731  0.1120E+00  0.3985E+00
     -1.644  0.6163E-01  0.4039E+00
     -1.558  0.4482E-01  0.4077E+00
     -1.471  0.1379E-01  0.4089E+00
     -1.384  0.1896E-01  0.4106E+00
     -1.297  0.4586E-01  0.4146E+00
     -1.211  0.2173E-01  0.4164E+00
     -1.124  0.3947E-01  0.4199E+00
     -1.037  0.8033E-01  0.4268E+00
     -0.950  0.9525E-01  0.4351E+00
     -0.864  0.6709E-01  0.4409E+00
     -0.777  0.8875E-01  0.4486E+00
     -0.690  0.9325E-01  0.4567E+00
     -0.603  0.8225E-01  0.4638E+00
     -0.517  0.1264E+00  0.4748E+00
     -0.430  0.6983E-01  0.4809E+00
     -0.343  0.7504E-01  0.4874E+00
     -0.256  0.7918E-01  0.4942E+00
     -0.170  0.5491E-01  0.4990E+00
     -0.083  0.8433E-01  0.5063E+00
      0.004  0.1018E+00  0.5152E+00
      0.091  0.1143E+00  0.5251E+00
      0.177  0.8804E-01  0.5327E+00
      0.264  0.8392E-01  0.5400E+00
      0.351  0.1136E+00  0.5498E+00
      0.438  0.1236E+00  0.5606E+00
      0.524  0.1108E+00  0.5702E+00
      0.611  0.1134E+00  0.5800E+00
      0.698  0.1058E+00  0.5892E+00
      0.785  0.1407E+00  0.6014E+00
      0.871  0.1603E+00  0.6153E+00
      0.958  0.9372E-01  0.6234E+00
      1.045  0.1195E+00  0.6338E+00
      1.132  0.1275E+00  0.6448E+00
      1.218  0.1186E+00  0.6551E+00
      1.305  0.1100E+00  0.6647E+00
      1.392  0.1385E+00  0.6767E+00
      1.479  0.1728E+00  0.6917E+00
      1.565  0.1594E+00  0.7055E+00
      1.652  0.1193E+00  0.7158E+00
      1.739  0.1100E+00  0.7254E+00
      1.826  0.1157E+00  0.7354E+00
      1.912  0.1181E+00  0.7457E+00
      1.999  0.9641E-01  0.7540E+00
      2.086  0.1337E+00  0.7656E+00
      2.173  0.1243E+00  0.7764E+00
      2.259  0.1233E+00  0.7871E+00
      2.346  0.1130E+00  0.7969E+00
      2.433  0.1214E+00  0.8074E+00
      2.520  0.9672E-01  0.8158E+00
      2.606  0.1085E+00  0.8252E+00
      2.693  0.1096E+00  0.8347E+00
      2.780  0.1099E+00  0.8443E+00
      2.867  0.9305E-01  0.8523E+00
      2.953  0.9196E-01  0.8603E+00
      3.040  0.8670E-01  0.8678E+00
      3.127  0.1112E+00  0.8775E+00
      3.214  0.9344E-01  0.8856E+00
      3.300  0.1120E+00  0.8953E+00
      3.387  0.1416E+00  0.9076E+00
      3.474  0.9450E-01  0.9158E+00
      3.561  0.7132E-01  0.9220E+00
      3.647  0.9946E-01  0.9306E+00
      3.734  0.1357E+00  0.9424E+00
      3.821  0.1239E+00  0.9531E+00
      3.908  0.1203E+00  0.9636E+00
      3.994  0.1364E+00  0.9754E+00
      4.081  0.9125E-01  0.9833E+00
      4.168  0.8182E-01  0.9904E+00
      4.255  0.1158E+00  0.1000E+01
      4.341  0.1683E+00  0.1015E+01
      4.428  0.1948E+00  0.1032E+01
      4.515  0.8902E-01  0.1040E+01
      4.602  0.8036E-01  0.1047E+01
      4.688  0.9856E-01  0.1055E+01
      4.775  0.6929E-01  0.1061E+01
      4.862  0.5640E-01  0.1066E+01
      4.949  0.1383E+00  0.1078E+01
      5.035  0.1780E+00  0.1094E+01
      5.122  0.1541E+00  0.1107E+01
      5.209  0.1512E+00  0.1120E+01
      5.296  0.1048E+00  0.1129E+01
      5.382  0.6252E-01  0.1135E+01
      5.469  0.5436E-01  0.1139E+01
      5.556  0.8481E-01  0.1147E+01
      5.643  0.7851E-01  0.1153E+01
      5.729  0.1092E+00  0.1163E+01
      5.816  0.1262E+00  0.1174E+01
      5.903  0.1249E+00  0.1185E+01
      5.989  0.8528E-01  0.1192E+01
      6.076  0.5679E-01  0.1197E+01
      6.163  0.2138E-01  0.1199E+01
      6.250  0.6168E-01  0.1204E+01
      6.336  0.1091E+00  0.1214E+01
      6.423  0.4696E-01  0.1218E+01
      6.510 -0.2809E-02  0.1217E+01
      6.597 -0.1269E-03  0.1217E+01
      6.683  0.1538E-03  0.1217E+01
      6.770  0.1573E-04  0.1218E+01
      6.857  0.6168E-04  0.1218E+01
      6.944 -0.2996E-03  0.1217E+01
      7.030  0.2156E-02  0.1218E+01
      7.117  0.2127E-01  0.1220E+01
      7.204  0.4815E-01  0.1224E+01
      7.291  0.9704E-01  0.1232E+01
      7.377  0.1897E+00  0.1249E+01
      7.464  0.1169E+00  0.1259E+01
      7.551  0.3890E-01  0.1262E+01
      7.638  0.5314E-02  0.1263E+01
      7.724 -0.6505E-03  0.1262E+01
      7.811  0.1214E-03  0.1262E+01
      7.898  0.2243E-04  0.1262E+01
      7.985  0.4077E-06  0.1262E+01
      8.071  0.1327E-08  0.1262E+01
      8.158  0.5301E-11  0.1263E+01
      8.245  0.7183E-08  0.1263E+01
      8.332  0.2199E-05  0.1263E+01
      8.418  0.1000E-03  0.1263E+01
      8.505 -0.1757E-03  0.1262E+01
      8.592 -0.2109E-02  0.1262E+01
      8.679  0.3326E-01  0.1265E+01
      8.765  0.2911E-01  0.1268E+01
      8.852 -0.2616E-02  0.1267E+01
      8.939 -0.1870E-04  0.1267E+01
      9.026  0.9061E-04  0.1268E+01
      9.112  0.8368E-03  0.1268E+01
      9.199  0.4331E-02  0.1268E+01
      9.286  0.1245E-01  0.1269E+01
      9.373  0.1431E-01  0.1270E+01
      9.459  0.1917E-01  0.1272E+01
      9.546  0.3262E-01  0.1275E+01
      9.633  0.4478E-01  0.1279E+01
      9.720  0.1154E+00  0.1289E+01
      9.806  0.1844E+00  0.1305E+01
      9.893  0.1446E+00  0.1317E+01
      9.980  0.9974E-01  0.1326E+01
     10.067  0.1005E+00  0.1335E+01
     10.153  0.1037E+00  0.1344E+01
     10.240  0.1047E+00  0.1353E+01
     10.327  0.5687E-01  0.1358E+01
     10.414  0.5873E-01  0.1363E+01
     10.500  0.4884E-01  0.1367E+01
     10.587  0.8790E-01  0.1375E+01
     10.674  0.9952E-01  0.1383E+01
     10.761  0.1360E+00  0.1395E+01
     10.847  0.1046E+00  0.1404E+01
     10.934  0.8224E-01  0.1411E+01
     11.021  0.1247E+00  0.1422E+01
     11.108  0.1038E+00  0.1431E+01
     11.194  0.1105E+00  0.1441E+01
     11.281  0.8828E-01  0.1448E+01
     11.368  0.1482E+00  0.1461E+01
     11.455  0.1481E+00  0.1474E+01
     11.541  0.1411E+00  0.1486E+01
     11.628  0.1300E+00  0.1497E+01
     11.715  0.1606E+00  0.1511E+01
     11.802  0.1930E+00  0.1528E+01
     11.888  0.1943E+00  0.1545E+01
     11.975  0.1397E+00  0.1557E+01
     12.062  0.1713E+00  0.1572E+01
     12.149  0.1718E+00  0.1587E+01
     12.235  0.8987E-01  0.1595E+01
     12.322  0.4763E-01  0.1599E+01
     12.409  0.1252E-01  0.1600E+01
     12.496  0.1291E-02  0.1600E+01
     12.582  0.4017E-04  0.1600E+01
     12.669  0.1147E-04  0.1600E+01
     12.756  0.8851E-05  0.1600E+01
     12.843  0.2600E-06  0.1600E+01
     12.929  0.1163E-08  0.1600E+01
     13.016  0.9623E-12  0.1600E+01
     13.103  0.1578E-15  0.1600E+01
     13.190  0.0000E+00  0.1600E+01
     13.276  0.0000E+00  0.1600E+01
     13.363  0.0000E+00  0.1600E+01
     13.450  0.0000E+00  0.1600E+01
     13.537  0.0000E+00  0.1600E+01
     13.623  0.0000E+00  0.1600E+01
