   28   28  100    1
  0.1273097E+02  0.8628463E-09  0.8628463E-09  0.5528688E-09  0.5000000E-15
  1.000000000000000E-004
  CAR 
 unknown system                          
    124     44     80
 
  0.3742002E-15  0.3742002E-15  0.3742002E-15  0.3472222E-02
    1      -11.218350   1.000000
    2      -10.569906   1.000000
    3      -10.569906   1.000000
    4       -9.769819   1.000000
    5       -9.769819   1.000000
    6       -9.089728   1.000000
    7       -8.742798   1.000000
    8       -8.695293   1.000000
    9       -8.695293   1.000000
   10       -8.662247   1.000000
   11       -8.598893   1.000000
   12       -8.598893   1.000000
   13       -4.175952   1.000000
   14       -3.291077   1.000000
   15       -3.291077   1.000000
   16       -2.948388   1.000000
   17       -2.372854   1.000000
   18       -2.098896   1.000000
   19       -2.098896   1.000000
   20       -1.568239   1.000000
   21       -1.171915   1.000000
   22       -1.171915   1.000000
   23       -0.832622   1.000000
   24       -0.523342   1.000000
   25       -0.523342   1.000000
   26       -0.154254   1.000000
   27       -0.134852   1.000000
   28        0.521925   1.000000
   29        0.648012   1.000000
   30        0.648012   1.000000
   31        0.939041   1.000000
   32        1.370224   1.000000
   33        1.406977   1.000000
   34        1.406977   1.000000
   35        1.585337   1.000000
   36        1.585337   1.000000
   37        1.947222   1.000000
   38        2.030688   1.000000
   39        2.030688   1.000000
   40        2.284400   1.000000
   41        2.284400   1.000000
   42        3.048507   1.000000
   43        3.087348   1.000000
   44        3.087348   1.000000
   45        3.201672   1.000000
   46        3.201672   1.000000
   47        3.715660   1.000000
   48        3.888864   1.000000
   49        4.071846   1.000000
   50        4.105387   1.000000
   51        4.105387   1.000000
   52        4.577061   1.000000
   53        4.707610   1.000000
   54        4.849531   1.000000
   55        4.849531   1.000000
   56        5.241672   1.000000
   57        5.241672   1.000000
   58        5.854096   1.000000
   59        5.854096   1.000000
   60        6.321721   1.000000
   61        6.321722   1.000000
   62        7.006049   0.999926
   63        7.567229   0.003242
   64        9.091147   0.000000
   65        9.091147   0.000000
   66        9.920979   0.000000
   67        9.920979   0.000000
   68       10.040588   0.000000
   69       10.266031   0.000000
   70       10.266032   0.000000
   71       11.068017   0.000000
   72       11.155531   0.000000
   73       11.275381   0.000000
   74       11.275381   0.000000
   75       11.682553   0.000000
   76       11.933253   0.000000
   77       12.140611   0.000000
   78       12.140647   0.000000
   79       12.171926   0.000000
   80       12.305647   0.000000
 
  0.1666667E+00  0.1241096E-14  0.3742002E-15  0.2083333E-01
    1      -11.187975   1.000000
    2      -10.631975   1.000000
    3      -10.593319   1.000000
    4       -9.738232   1.000000
    5       -9.702847   1.000000
    6       -9.061593   1.000000
    7       -8.860335   1.000000
    8       -8.713227   1.000000
    9       -8.686271   1.000000
   10       -8.654414   1.000000
   11       -8.597948   1.000000
   12       -8.562789   1.000000
   13       -4.097201   1.000000
   14       -3.300816   1.000000
   15       -3.211516   1.000000
   16       -2.900842   1.000000
   17       -2.439878   1.000000
   18       -2.170767   1.000000
   19       -2.100345   1.000000
   20       -1.796560   1.000000
   21       -1.401348   1.000000
   22       -1.106756   1.000000
   23       -0.852588   1.000000
   24       -0.538373   1.000000
   25       -0.343950   1.000000
   26       -0.042877   1.000000
   27        0.042285   1.000000
   28        0.560952   1.000000
   29        0.578235   1.000000
   30        0.591738   1.000000
   31        0.970557   1.000000
   32        1.217221   1.000000
   33        1.401559   1.000000
   34        1.437079   1.000000
   35        1.600510   1.000000
   36        1.628613   1.000000
   37        1.945446   1.000000
   38        2.027559   1.000000
   39        2.200429   1.000000
   40        2.319865   1.000000
   41        2.345141   1.000000
   42        2.935148   1.000000
   43        2.997994   1.000000
   44        3.069534   1.000000
   45        3.250063   1.000000
   46        3.308011   1.000000
   47        3.675737   1.000000
   48        3.714493   1.000000
   49        3.898064   1.000000
   50        4.186942   1.000000
   51        4.369937   1.000000
   52        4.582863   1.000000
   53        4.685908   1.000000
   54        4.888832   1.000000
   55        4.942461   1.000000
   56        5.156380   1.000000
   57        5.229609   1.000000
   58        5.754195   1.000000
   59        5.790862   1.000000
   60        6.208648   1.000000
   61        6.315526   1.000000
   62        7.035415   0.999679
   63        7.505195   0.000471
   64        9.206288   0.000000
   65        9.272178   0.000000
   66        9.842864   0.000000
   67        9.894349   0.000000
   68       10.219244   0.000000
   69       10.345724   0.000000
   70       10.422011   0.000000
   71       10.755587   0.000000
   72       11.119399   0.000000
   73       11.213909   0.000000
   74       11.515578   0.000000
   75       11.746448   0.000000
   76       11.814623   0.000000
   77       12.007105   0.000000
   78       12.073695   0.000000
   79       12.104142   0.000000
   80       12.280079   0.000000
 
  0.3333333E+00  0.3388831E-15  0.3742002E-15  0.2083333E-01
    1      -11.102806   1.000000
    2      -10.773066   1.000000
    3      -10.633871   1.000000
    4       -9.688419   1.000000
    5       -9.529286   1.000000
    6       -9.066784   1.000000
    7       -8.985180   1.000000
    8       -8.766729   1.000000
    9       -8.690626   1.000000
   10       -8.641507   1.000000
   11       -8.595420   1.000000
   12       -8.536091   1.000000
   13       -3.872581   1.000000
   14       -3.332577   1.000000
   15       -3.044424   1.000000
   16       -2.849369   1.000000
   17       -2.595508   1.000000
   18       -2.287398   1.000000
   19       -2.141436   1.000000
   20       -2.053564   1.000000
   21       -1.756945   1.000000
   22       -0.975422   1.000000
   23       -0.884421   1.000000
   24       -0.665243   1.000000
   25       -0.158378   1.000000
   26        0.181082   1.000000
   27        0.271417   1.000000
   28        0.431904   1.000000
   29        0.653287   1.000000
   30        0.693666   1.000000
   31        1.051891   1.000000
   32        1.126469   1.000000
   33        1.336485   1.000000
   34        1.391837   1.000000
   35        1.521395   1.000000
   36        1.693847   1.000000
   37        1.904045   1.000000
   38        2.056562   1.000000
   39        2.327459   1.000000
   40        2.422244   1.000000
   41        2.500215   1.000000
   42        2.811464   1.000000
   43        2.854447   1.000000
   44        3.067310   1.000000
   45        3.266179   1.000000
   46        3.469208   1.000000
   47        3.649651   1.000000
   48        3.772310   1.000000
   49        3.863462   1.000000
   50        4.226338   1.000000
   51        4.361593   1.000000
   52        4.597444   1.000000
   53        4.613965   1.000000
   54        4.799169   1.000000
   55        5.005137   1.000000
   56        5.159060   1.000000
   57        5.235195   1.000000
   58        5.553103   1.000000
   59        5.699517   1.000000
   60        6.005515   1.000000
   61        6.363390   1.000000
   62        7.109972   0.996046
   63        7.383035   0.065645
   64        9.440048   0.000000
   65        9.653893   0.000000
   66        9.740189   0.000000
   67        9.930444   0.000000
   68       10.279890   0.000000
   69       10.555998   0.000000
   70       10.645862   0.000000
   71       10.708399   0.000000
   72       10.935628   0.000000
   73       11.206405   0.000000
   74       11.511660   0.000000
   75       11.638229   0.000000
   76       11.743024   0.000000
   77       11.806601   0.000000
   78       11.931131   0.000000
   79       12.062817   0.000000
   80       12.115614   0.000000
 
  0.5000000E+00  0.3365455E-15  0.3742002E-15  0.1041667E-01
    1      -11.015968   1.000000
    2      -10.884840   1.000000
    3      -10.651776   1.000000
    4       -9.668334   1.000000
    5       -9.305848   1.000000
    6       -9.298710   1.000000
    7       -8.915466   1.000000
    8       -8.824225   1.000000
    9       -8.692896   1.000000
   10       -8.635421   1.000000
   11       -8.593657   1.000000
   12       -8.532007   1.000000
   13       -3.638549   1.000000
   14       -3.431772   1.000000
   15       -3.074302   1.000000
   16       -2.810837   1.000000
   17       -2.525869   1.000000
   18       -2.378262   1.000000
   19       -2.270510   1.000000
   20       -2.072992   1.000000
   21       -1.922435   1.000000
   22       -0.926591   1.000000
   23       -0.869743   1.000000
   24       -0.756443   1.000000
   25       -0.014328   1.000000
   26        0.099945   1.000000
   27        0.351489   1.000000
   28        0.444732   1.000000
   29        0.749282   1.000000
   30        0.820233   1.000000
   31        0.955058   1.000000
   32        1.212306   1.000000
   33        1.330405   1.000000
   34        1.406080   1.000000
   35        1.431810   1.000000
   36        1.736973   1.000000
   37        1.770232   1.000000
   38        2.077012   1.000000
   39        2.309447   1.000000
   40        2.469994   1.000000
   41        2.615330   1.000000
   42        2.752074   1.000000
   43        2.859273   1.000000
   44        2.992272   1.000000
   45        3.277941   1.000000
   46        3.594798   1.000000
   47        3.686810   1.000000
   48        3.875314   1.000000
   49        3.989445   1.000000
   50        4.196616   1.000000
   51        4.219235   1.000000
   52        4.494626   1.000000
   53        4.666687   1.000000
   54        4.683723   1.000000
   55        5.028212   1.000000
   56        5.131024   1.000000
   57        5.151748   1.000000
   58        5.485112   1.000000
   59        5.822018   1.000000
   60        5.844932   1.000000
   61        6.406191   1.000000
   62        7.176436   1.006067
   63        7.299566   0.831198
   64        9.606679   0.000000
   65        9.608656   0.000000
   66        9.919494   0.000000
   67       10.038177   0.000000
   68       10.149129   0.000000
   69       10.607707   0.000000
   70       10.663721   0.000000
   71       10.715057   0.000000
   72       11.131303   0.000000
   73       11.186877   0.000000
   74       11.469740   0.000000
   75       11.496544   0.000000
   76       11.709290   0.000000
   77       11.721920   0.000000
   78       11.741703   0.000000
   79       11.978807   0.000000
   80       12.017926   0.000000
 
  0.1666667E+00  0.1666667E+00  0.3742002E-15  0.2083333E-01
    1      -11.129830   1.000000
    2      -10.721761   1.000000
    3      -10.637689   1.000000
    4       -9.667517   1.000000
    5       -9.613660   1.000000
    6       -9.009142   1.000000
    7       -9.008186   1.000000
    8       -8.735816   1.000000
    9       -8.699921   1.000000
   10       -8.644412   1.000000
   11       -8.594758   1.000000
   12       -8.542590   1.000000
   13       -3.943525   1.000000
   14       -3.296869   1.000000
   15       -3.109549   1.000000
   16       -2.856371   1.000000
   17       -2.534243   1.000000
   18       -2.315225   1.000000
   19       -2.095758   1.000000
   20       -2.023956   1.000000
   21       -1.612122   1.000000
   22       -1.081769   1.000000
   23       -0.862867   1.000000
   24       -0.605918   1.000000
   25       -0.220271   1.000000
   26        0.168525   1.000000
   27        0.234014   1.000000
   28        0.462455   1.000000
   29        0.589603   1.000000
   30        0.659509   1.000000
   31        1.065749   1.000000
   32        1.118258   1.000000
   33        1.322497   1.000000
   34        1.498280   1.000000
   35        1.503420   1.000000
   36        1.655337   1.000000
   37        1.930083   1.000000
   38        2.064570   1.000000
   39        2.346003   1.000000
   40        2.380738   1.000000
   41        2.384623   1.000000
   42        2.842996   1.000000
   43        2.890538   1.000000
   44        3.089224   1.000000
   45        3.313796   1.000000
   46        3.364403   1.000000
   47        3.625320   1.000000
   48        3.749907   1.000000
   49        3.877972   1.000000
   50        4.296756   1.000000
   51        4.340511   1.000000
   52        4.588504   1.000000
   53        4.632658   1.000000
   54        4.896194   1.000000
   55        4.990494   1.000000
   56        5.047008   1.000000
   57        5.261962   1.000000
   58        5.579394   1.000000
   59        5.728507   1.000000
   60        6.084510   1.000000
   61        6.335527   1.000000
   62        7.086056   0.997780
   63        7.415832  -0.043881
   64        9.401039   0.000000
   65        9.533480   0.000000
   66        9.789110   0.000000
   67        9.846410   0.000000
   68       10.372801   0.000000
   69       10.506785   0.000000
   70       10.601538   0.000000
   71       10.650762   0.000000
   72       10.958456   0.000000
   73       11.305959   0.000000
   74       11.519657   0.000000
   75       11.581539   0.000000
   76       11.755659   0.000000
   77       11.827087   0.000000
   78       11.870722   0.000000
   79       12.138723   0.000000
   80       12.176804   0.000000
 
  0.3333333E+00  0.1666667E+00  0.3742002E-15  0.4166667E-01
    1      -11.028644   1.000000
    2      -10.849990   1.000000
    3      -10.680456   1.000000
    4       -9.606876   1.000000
    5       -9.444033   1.000000
    6       -9.221822   1.000000
    7       -8.923937   1.000000
    8       -8.786148   1.000000
    9       -8.713197   1.000000
   10       -8.635019   1.000000
   11       -8.587602   1.000000
   12       -8.541772   1.000000
   13       -3.671984   1.000000
   14       -3.320848   1.000000
   15       -3.096805   1.000000
   16       -2.933239   1.000000
   17       -2.530596   1.000000
   18       -2.360037   1.000000
   19       -2.212589   1.000000
   20       -2.081685   1.000000
   21       -1.879249   1.000000
   22       -1.003230   1.000000
   23       -0.865507   1.000000
   24       -0.746679   1.000000
   25       -0.060159   1.000000
   26        0.202994   1.000000
   27        0.329246   1.000000
   28        0.429700   1.000000
   29        0.765662   1.000000
   30        0.800643   1.000000
   31        1.030110   1.000000
   32        1.197641   1.000000
   33        1.250777   1.000000
   34        1.424222   1.000000
   35        1.506295   1.000000
   36        1.653864   1.000000
   37        1.795848   1.000000
   38        2.143725   1.000000
   39        2.327170   1.000000
   40        2.384675   1.000000
   41        2.515548   1.000000
   42        2.733262   1.000000
   43        2.774989   1.000000
   44        3.142470   1.000000
   45        3.289405   1.000000
   46        3.590557   1.000000
   47        3.738825   1.000000
   48        3.889112   1.000000
   49        3.929554   1.000000
   50        4.233032   1.000000
   51        4.352301   1.000000
   52        4.520016   1.000000
   53        4.615086   1.000000
   54        4.734604   1.000000
   55        4.970866   1.000000
   56        4.996816   1.000000
   57        5.133231   1.000000
   58        5.367044   1.000000
   59        5.861760   1.000000
   60        6.003660   1.000000
   61        6.369937   1.000000
   62        7.164798   1.000397
   63        7.308712   0.752906
   64        9.594930   0.000000
   65        9.655381   0.000000
   66        9.853966   0.000000
   67       10.023184   0.000000
   68       10.214613   0.000000
   69       10.480080   0.000000
   70       10.733228   0.000000
   71       10.865939   0.000000
   72       10.993003   0.000000
   73       11.268754   0.000000
   74       11.342748   0.000000
   75       11.481421   0.000000
   76       11.599570   0.000000
   77       11.772301   0.000000
   78       11.847705   0.000000
   79       12.032192   0.000000
   80       12.080645   0.000000
 
  0.3333333E+00  0.3333333E+00  0.3742002E-15  0.6944444E-02
    1      -10.932636   1.000000
    2      -10.932636   1.000000
    3      -10.720916   1.000000
    4       -9.474394   1.000000
    5       -9.396219   1.000000
    6       -9.396219   1.000000
    7       -8.881473   1.000000
    8       -8.763248   1.000000
    9       -8.763248   1.000000
   10       -8.632009   1.000000
   11       -8.565850   1.000000
   12       -8.565849   1.000000
   13       -3.478065   1.000000
   14       -3.203378   1.000000
   15       -3.193462   1.000000
   16       -3.193462   1.000000
   17       -2.414544   1.000000
   18       -2.414544   1.000000
   19       -2.086279   1.000000
   20       -2.086278   1.000000
   21       -2.080710   1.000000
   22       -1.003883   1.000000
   23       -0.838270   1.000000
   24       -0.838270   1.000000
   25       -0.003039   1.000000
   26        0.251519   1.000000
   27        0.251519   1.000000
   28        0.485156   1.000000
   29        0.870132   1.000000
   30        0.870132   1.000000
   31        1.124873   1.000000
   32        1.124873   1.000000
   33        1.140014   1.000000
   34        1.545172   1.000000
   35        1.594719   1.000000
   36        1.604199   1.000000
   37        1.604199   1.000000
   38        2.245610   1.000000
   39        2.245610   1.000000
   40        2.353171   1.000000
   41        2.622769   1.000000
   42        2.622769   1.000000
   43        2.625273   1.000000
   44        3.269530   1.000000
   45        3.269530   1.000000
   46        3.683392   1.000000
   47        3.830222   1.000000
   48        3.966273   1.000000
   49        3.966273   1.000000
   50        4.250959   1.000000
   51        4.476260   1.000000
   52        4.476260   1.000000
   53        4.683036   1.000000
   54        4.710789   1.000000
   55        4.710789   1.000000
   56        4.965170   1.000000
   57        4.965170   1.000000
   58        5.222679   1.000000
   59        6.037627   1.000000
   60        6.037628   1.000000
   61        6.332196   1.000000
   62        7.232546   1.050700
   63        7.232547   1.050700
   64        9.677213   0.000000
   65        9.677213   0.000000
   66        9.970753   0.000000
   67        9.970753   0.000000
   68       10.191015   0.000000
   69       10.572317   0.000000
   70       10.572317   0.000000
   71       11.010834   0.000000
   72       11.018317   0.000000
   73       11.332016   0.000000
   74       11.347461   0.000000
   75       11.347462   0.000000
   76       11.382162   0.000000
   77       11.860224   0.000000
   78       11.860224   0.000000
   79       12.104094   0.000000
   80       12.104095   0.000000
 
  0.3742002E-15  0.3742002E-15  0.1250000E+00  0.6944444E-02
    1      -11.169492   1.000000
    2      -10.525230   1.000000
    3      -10.525230   1.000000
    4       -9.747803   1.000000
    5       -9.747803   1.000000
    6       -9.308407   1.000000
    7       -8.799587   1.000000
    8       -8.799587   1.000000
    9       -8.718799   1.000000
   10       -8.626028   1.000000
   11       -8.626027   1.000000
   12       -8.539319   1.000000
   13       -4.124712   1.000000
   14       -3.146792   1.000000
   15       -3.146792   1.000000
   16       -3.012782   1.000000
   17       -2.261760   1.000000
   18       -2.045164   1.000000
   19       -2.045164   1.000000
   20       -1.626213   1.000000
   21       -1.140345   1.000000
   22       -1.140344   1.000000
   23       -0.752792   1.000000
   24       -0.556394   1.000000
   25       -0.556394   1.000000
   26       -0.383160   1.000000
   27       -0.122158   1.000000
   28        0.658557   1.000000
   29        0.658557   1.000000
   30        0.806875   1.000000
   31        0.893108   1.000000
   32        1.341456   1.000000
   33        1.341457   1.000000
   34        1.343557   1.000000
   35        1.557679   1.000000
   36        1.557680   1.000000
   37        1.975704   1.000000
   38        1.990163   1.000000
   39        1.990163   1.000000
   40        2.202085   1.000000
   41        2.202085   1.000000
   42        2.955227   1.000000
   43        3.075983   1.000000
   44        3.075983   1.000000
   45        3.230206   1.000000
   46        3.230206   1.000000
   47        3.681543   1.000000
   48        3.700276   1.000000
   49        4.040623   1.000000
   50        4.040623   1.000000
   51        4.244274   1.000000
   52        4.427859   1.000000
   53        4.829479   1.000000
   54        4.829479   1.000000
   55        4.865324   1.000000
   56        5.285219   1.000000
   57        5.285219   1.000000
   58        5.853587   1.000000
   59        5.853587   1.000000
   60        6.281994   1.000000
   61        6.281994   1.000000
   62        7.073335   0.998520
   63        7.477796  -0.015585
   64        9.184026   0.000000
   65        9.184026   0.000000
   66        9.958303   0.000000
   67        9.958303   0.000000
   68       10.082246   0.000000
   69       10.436523   0.000000
   70       10.436523   0.000000
   71       11.089568   0.000000
   72       11.261896   0.000000
   73       11.261896   0.000000
   74       11.307842   0.000000
   75       11.777247   0.000000
   76       11.788276   0.000000
   77       11.879046   0.000000
   78       11.879046   0.000000
   79       12.226941   0.000000
   80       12.227776   0.000000
 
  0.1666667E+00  0.1241096E-14  0.1250000E+00  0.4166667E-01
    1      -11.139434   1.000000
    2      -10.587546   1.000000
    3      -10.548322   1.000000
    4       -9.717772   1.000000
    5       -9.682770   1.000000
    6       -9.275998   1.000000
    7       -8.873194   1.000000
    8       -8.827451   1.000000
    9       -8.773801   1.000000
   10       -8.628316   1.000000
   11       -8.558739   1.000000
   12       -8.527540   1.000000
   13       -4.043546   1.000000
   14       -3.174521   1.000000
   15       -3.074361   1.000000
   16       -2.952304   1.000000
   17       -2.325413   1.000000
   18       -2.133684   1.000000
   19       -2.044734   1.000000
   20       -1.802043   1.000000
   21       -1.370899   1.000000
   22       -1.096988   1.000000
   23       -0.765849   1.000000
   24       -0.539394   1.000000
   25       -0.410920   1.000000
   26       -0.254457   1.000000
   27        0.021254   1.000000
   28        0.559905   1.000000
   29        0.606719   1.000000
   30        0.832203   1.000000
   31        0.924001   1.000000
   32        1.135207   1.000000
   33        1.353036   1.000000
   34        1.398544   1.000000
   35        1.530198   1.000000
   36        1.659255   1.000000
   37        1.924903   1.000000
   38        1.984354   1.000000
   39        2.179803   1.000000
   40        2.243328   1.000000
   41        2.284795   1.000000
   42        2.883652   1.000000
   43        2.973203   1.000000
   44        3.129682   1.000000
   45        3.237305   1.000000
   46        3.351867   1.000000
   47        3.555112   1.000000
   48        3.696577   1.000000
   49        4.032868   1.000000
   50        4.122730   1.000000
   51        4.316129   1.000000
   52        4.433323   1.000000
   53        4.753390   1.000000
   54        4.873008   1.000000
   55        4.954747   1.000000
   56        5.178474   1.000000
   57        5.257784   1.000000
   58        5.756496   1.000000
   59        5.791783   1.000000
   60        6.168961   1.000000
   61        6.282487   1.000000
   62        7.102136   0.996627
   63        7.446877  -0.043753
   64        9.286996   0.000000
   65        9.348624   0.000000
   66        9.910074   0.000000
   67        9.960930   0.000000
   68       10.216631   0.000000
   69       10.409794   0.000000
   70       10.570548   0.000000
   71       10.807731   0.000000
   72       11.143213   0.000000
   73       11.314174   0.000000
   74       11.470608   0.000000
   75       11.658186   0.000000
   76       11.791661   0.000000
   77       11.927377   0.000000
   78       11.936681   0.000000
   79       12.084715   0.000000
   80       12.219581   0.000000
 
  0.3333333E+00  0.3388831E-15  0.1250000E+00  0.4166667E-01
    1      -11.055236   1.000000
    2      -10.728073   1.000000
    3      -10.588335   1.000000
    4       -9.674046   1.000000
    5       -9.514912   1.000000
    6       -9.183463   1.000000
    7       -9.067789   1.000000
    8       -8.916586   1.000000
    9       -8.785323   1.000000
   10       -8.629595   1.000000
   11       -8.508391   1.000000
   12       -8.504951   1.000000
   13       -3.815112   1.000000
   14       -3.224988   1.000000
   15       -2.936135   1.000000
   16       -2.868080   1.000000
   17       -2.511413   1.000000
   18       -2.264160   1.000000
   19       -2.084833   1.000000
   20       -2.004357   1.000000
   21       -1.714391   1.000000
   22       -0.959499   1.000000
   23       -0.762791   1.000000
   24       -0.615955   1.000000
   25       -0.322096   1.000000
   26        0.027244   1.000000
   27        0.213594   1.000000
   28        0.380275   1.000000
   29        0.572710   1.000000
   30        0.806195   1.000000
   31        1.053663   1.000000
   32        1.098560   1.000000
   33        1.294695   1.000000
   34        1.389404   1.000000
   35        1.500881   1.000000
   36        1.699059   1.000000
   37        1.891626   1.000000
   38        2.012266   1.000000
   39        2.219482   1.000000
   40        2.390645   1.000000
   41        2.502106   1.000000
   42        2.766057   1.000000
   43        2.915286   1.000000
   44        3.082433   1.000000
   45        3.284715   1.000000
   46        3.475897   1.000000
   47        3.656992   1.000000
   48        3.782097   1.000000
   49        3.968256   1.000000
   50        4.240150   1.000000
   51        4.338335   1.000000
   52        4.465995   1.000000
   53        4.597244   1.000000
   54        4.732065   1.000000
   55        5.010914   1.000000
   56        5.145650   1.000000
   57        5.243965   1.000000
   58        5.547046   1.000000
   59        5.672027   1.000000
   60        5.954420   1.000000
   61        6.326881   1.000000
   62        7.174711   1.005072
   63        7.374984   0.116914
   64        9.501006   0.000000
   65        9.688362   0.000000
   66        9.787385   0.000000
   67        9.989631   0.000000
   68       10.330828   0.000000
   69       10.514520   0.000000
   70       10.619220   0.000000
   71       10.821279   0.000000
   72       10.941058   0.000000
   73       11.246605   0.000000
   74       11.493855   0.000000
   75       11.581800   0.000000
   76       11.731027   0.000000
   77       11.837661   0.000000
   78       11.904431   0.000000
   79       12.032755   0.000000
   80       12.073693   0.000000
 
  0.5000000E+00  0.3365455E-15  0.1250000E+00  0.2083333E-01
    1      -10.969671   1.000000
    2      -10.838718   1.000000
    3      -10.606060   1.000000
    4       -9.658031   1.000000
    5       -9.312985   1.000000
    6       -9.277512   1.000000
    7       -9.085172   1.000000
    8       -9.010455   1.000000
    9       -8.788110   1.000000
   10       -8.629775   1.000000
   11       -8.494569   1.000000
   12       -8.493837   1.000000
   13       -3.584218   1.000000
   14       -3.335331   1.000000
   15       -2.997311   1.000000
   16       -2.784709   1.000000
   17       -2.448259   1.000000
   18       -2.369102   1.000000
   19       -2.231121   1.000000
   20       -1.942484   1.000000
   21       -1.924612   1.000000
   22       -0.868645   1.000000
   23       -0.769781   1.000000
   24       -0.690471   1.000000
   25       -0.181372   1.000000
   26       -0.014686   1.000000
   27        0.279005   1.000000
   28        0.377458   1.000000
   29        0.518646   1.000000
   30        0.799661   1.000000
   31        1.090390   1.000000
   32        1.157540   1.000000
   33        1.362496   1.000000
   34        1.379198   1.000000
   35        1.465735   1.000000
   36        1.713311   1.000000
   37        1.803543   1.000000
   38        2.020711   1.000000
   39        2.192429   1.000000
   40        2.468338   1.000000
   41        2.593612   1.000000
   42        2.763007   1.000000
   43        2.876923   1.000000
   44        3.018274   1.000000
   45        3.321349   1.000000
   46        3.586482   1.000000
   47        3.750165   1.000000
   48        3.914060   1.000000
   49        3.963116   1.000000
   50        4.233184   1.000000
   51        4.411248   1.000000
   52        4.414065   1.000000
   53        4.481998   1.000000
   54        4.581465   1.000000
   55        5.010621   1.000000
   56        5.128830   1.000000
   57        5.166535   1.000000
   58        5.511250   1.000000
   59        5.699525   1.000000
   60        5.801092   1.000000
   61        6.362077   1.000000
   62        7.238171   1.051623
   63        7.316910   0.674844
   64        9.664707   0.000000
   65        9.672890   0.000000
   66        9.875716   0.000000
   67        9.967567   0.000000
   68       10.364624   0.000000
   69       10.526571   0.000000
   70       10.696033   0.000000
   71       10.735157   0.000000
   72       11.109738   0.000000
   73       11.133349   0.000000
   74       11.472046   0.000000
   75       11.526515   0.000000
   76       11.703747   0.000000
   77       11.717499   0.000000
   78       11.851262   0.000000
   79       11.984951   0.000000
   80       12.063005   0.000000
 
  0.1666667E+00  0.1666667E+00  0.1250000E+00  0.2083333E-01