       N       E                     dE             d eps       ncg     rms          rms(c)
DAV:   1     0.472998119065E+03    0.47300E+03   -0.49252E+04  7040   0.112E+03
DAV:   2    -0.173066710092E+03   -0.64606E+03   -0.62062E+03  8776   0.242E+02
DAV:   3    -0.224739160269E+03   -0.51672E+02   -0.51213E+02  8496   0.732E+01
DAV:   4    -0.225923670741E+03   -0.11845E+01   -0.11783E+01  8768   0.116E+01
DAV:   5    -0.225953712912E+03   -0.30042E-01   -0.29996E-01  8576   0.175E+00    0.353E+01
RMM:   6    -0.202480980972E+03    0.23473E+02   -0.11139E+02  7054   0.264E+01    0.157E+01
RMM:   7    -0.202048129439E+03    0.43285E+00   -0.42575E+00  7300   0.476E+00    0.874E+00
RMM:   8    -0.201890745130E+03    0.15738E+00   -0.12373E+00  7040   0.281E+00    0.164E+00
RMM:   9    -0.201845999319E+03    0.44746E-01   -0.78961E-02  7041   0.752E-01    0.792E-01
RMM:  10    -0.201838654409E+03    0.73449E-02   -0.14488E-01  7040   0.899E-01    0.514E-01
RMM:  11    -0.201836755780E+03    0.18986E-02   -0.10404E-02  7041   0.252E-01    0.223E-01
RMM:  12    -0.201836227603E+03    0.52818E-03   -0.51424E-03  7040   0.183E-01    0.105E-01
RMM:  13    -0.201836007992E+03    0.21961E-03   -0.58991E-04  5829   0.602E-02    0.304E-02
RMM:  14    -0.201835990678E+03    0.17313E-04   -0.49424E-05  4261   0.222E-02
   1 F= -.20183599E+03 E0= -.20183379E+03  d E =-.201836E+03
       N       E                     dE             d eps       ncg     rms          rms(c)
DAV:   1    -0.201849737844E+03   -0.13730E-01   -0.25294E+00  7808   0.615E+00    0.420E-01
RMM:   2    -0.201853594182E+03   -0.38563E-02   -0.56166E-02  7040   0.760E-01    0.222E-01
RMM:   3    -0.201852754865E+03    0.83932E-03   -0.26652E-03  7141   0.149E-01    0.171E-01
RMM:   4    -0.201852308944E+03    0.44592E-03   -0.13365E-03  7001   0.981E-02    0.840E-02
RMM:   5    -0.201852258435E+03    0.50509E-04   -0.22696E-04  4297   0.407E-02
   2 F= -.20185226E+03 E0= -.20184994E+03  d E =-.162678E-01
       N       E                     dE             d eps       ncg     rms          rms(c)
DAV:   1    -0.201852267037E+03    0.41907E-04   -0.27235E-03  7816   0.200E-01    0.208E-02
RMM:   2    -0.201852272091E+03   -0.50538E-05   -0.53265E-05  3926   0.261E-02
   3 F= -.20185227E+03 E0= -.20184996E+03  d E =-.162814E-01
       N       E                     dE             d eps       ncg     rms          rms(c)
DAV:   1    -0.201860353559E+03   -0.80865E-02   -0.13909E+00  7384   0.442E+00    0.251E-01
RMM:   2    -0.201862593000E+03   -0.22394E-02   -0.27917E-02  7040   0.530E-01    0.149E-01
RMM:   3    -0.201862300579E+03    0.29242E-03   -0.12152E-03  6567   0.983E-02    0.110E-01
RMM:   4    -0.201862120365E+03    0.18021E-03   -0.44057E-04  5938   0.573E-02    0.574E-02
RMM:   5    -0.201862094713E+03    0.25653E-04   -0.19544E-04  4272   0.395E-02
   4 F= -.20186209E+03 E0= -.20185980E+03  d E =-.982262E-02
       N       E                     dE             d eps       ncg     rms          rms(c)
DAV:   1    -0.201862753150E+03   -0.63279E-03   -0.33950E-01  7488   0.218E+00    0.128E-01
RMM:   2    -0.201863329913E+03   -0.57676E-03   -0.69801E-03  7040   0.265E-01    0.769E-02
RMM:   3    -0.201863256954E+03    0.72959E-04   -0.27391E-04  4758   0.490E-02
   5 F= -.20186326E+03 E0= -.20186098E+03  d E =-.109849E-01
       N       E                     dE             d eps       ncg     rms          rms(c)
DAV:   1    -0.201865472194E+03   -0.21423E-02   -0.11608E+00  7056   0.413E+00    0.302E-01
RMM:   2    -0.201867845586E+03   -0.23734E-02   -0.27637E-02  7040   0.533E-01    0.162E-01
RMM:   3    -0.201867221407E+03    0.62418E-03   -0.14390E-03  6932   0.983E-02    0.109E-01
RMM:   4    -0.201866986191E+03    0.23522E-03   -0.37215E-04  5485   0.553E-02    0.567E-02
RMM:   5    -0.201866952521E+03    0.33670E-04   -0.25813E-04  4280   0.464E-02
   6 F= -.20186695E+03 E0= -.20186474E+03  d E =-.369557E-02
       N       E                     dE             d eps       ncg     rms          rms(c)
DAV:   1    -0.201866980456E+03    0.57358E-05   -0.47494E-03  8056   0.265E-01    0.183E-02
RMM:   2    -0.201866986540E+03   -0.60839E-05   -0.94713E-05  3792   0.337E-02
   7 F= -.20186699E+03 E0= -.20186478E+03  d E =-.372959E-02
       N       E                     dE             d eps       ncg     rms          rms(c)
DAV:   1    -0.201868581673E+03   -0.16012E-02   -0.45802E-01  7144   0.263E+00    0.213E-01
RMM:   2    -0.201869283821E+03   -0.70215E-03   -0.92289E-03  7040   0.311E-01    0.106E-01
RMM:   3    -0.201869028312E+03    0.25551E-03   -0.61043E-04  5581   0.624E-02    0.637E-02
RMM:   4    -0.201868968142E+03    0.60169E-04   -0.12984E-04  4256   0.341E-02
   8 F= -.20186897E+03 E0= -.20186676E+03  d E =-.198160E-02
       N       E                     dE             d eps       ncg     rms          rms(c)
DAV:   1    -0.201868964243E+03    0.64068E-04   -0.11997E-02  8312   0.426E-01    0.358E-02
RMM:   2    -0.201868981022E+03   -0.16779E-04   -0.18028E-04  4270   0.471E-02
   9 F= -.20186898E+03 E0= -.20186677E+03  d E =-.199448E-02
       N       E                     dE             d eps       ncg     rms          rms(c)
DAV:   1    -0.201869417308E+03   -0.45306E-03   -0.17755E-01  7088   0.165E+00    0.128E-01
RMM:   2    -0.201869746029E+03   -0.32872E-03   -0.40611E-03  7040   0.208E-01    0.644E-02
RMM:   3    -0.201869695519E+03    0.50510E-04   -0.18503E-04  4448   0.406E-02
  10 F= -.20186970E+03 E0= -.20186752E+03  d E =-.714497E-03
       N       E                     dE             d eps       ncg     rms          rms(c)
DAV:   1    -0.201869674247E+03    0.71782E-04   -0.37052E-04  7088   0.702E-02    0.288E-02
RMM:   2    -0.201869674699E+03   -0.45145E-06   -0.33666E-05  3677   0.195E-02
  11 F= -.20186967E+03 E0= -.20186749E+03  d E =-.693677E-03
