 vasp.5.4.4.18Apr17-6-g9f103f2a35 (build Nov 01 2019 12:17:22) complex          
  
 executed on             LinuxIFC date 2023.05.19  18:21:58
 running on   16 total cores
 distrk:  each k-point on   16 cores,    1 groups
 distr:  one band on NCORES_PER_BAND=   4 cores,    4 groups


--------------------------------------------------------------------------------------------------------


 INCAR:
 POTCAR:    PAW_PBE N 08Apr2002                   
 POTCAR:    PAW_PBE Si 05Jan2001                  
 POTCAR:    PAW_PBE N 08Apr2002                   
   VRHFIN =N: s2p3                                                              
   LEXCH  = PE                                                                  
   EATOM  =   264.5486 eV,   19.4438 Ry                                         
                                                                                
   TITEL  = PAW_PBE N 08Apr2002                                                 
   LULTRA =        F    use ultrasoft PP ?                                      
   IUNSCR =        1    unscreen: 0-lin 1-nonlin 2-no                           
   RPACOR =    1.200    partial core radius                                     
   POMASS =   14.001; ZVAL   =    5.000    mass and valenz                      
   RCORE  =    1.500    outmost cutoff radius                                   
   RWIGS  =    1.400; RWIGS  =    0.741    wigner-seitz radius (au A)           
   ENMAX  =  400.000; ENMIN  =  300.000 eV                                      
   ICORE  =        2    local potential                                         
   LCOR   =        T    correct aug charges                                     
   LPAW   =        T    paw PP                                                  
   EAUG   =  627.112                                                            
   DEXC   =    0.000                                                            
   RMAX   =    1.529    core radius for proj-oper                               
   RAUG   =    1.300    factor for augmentation sphere                          
   RDEP   =    1.514    radius for radial grids                                 
   RDEPT  =    1.338    core radius for aug-charge                              
                                                                                
   Atomic configuration                                                         
    4 entries                                                                   
     n  l   j            E        occ.                                          
     1  0  0.50      -384.7179   2.0000                                         
     2  0  0.50       -18.5828   2.0000                                         
     2  1  0.50        -7.0898   3.0000                                         
     3  2  1.50        -6.8029   0.0000                                         
   Description                                                                  
     l       E           TYP  RCUT    TYP  RCUT                                 
     0    -18.5828119     23  1.200                                             
     0    -13.5018863     23  1.200                                             
     1     -7.0897853     23  1.500                                             
     1      9.5240782     23  1.500                                             
     2     -6.8029130      7  1.500                                             
  local pseudopotential read in
  partial core-charges read in
  partial kinetic energy density read in
  atomic valenz-charges read in
  non local Contribution for L=           0  read in
    real space projection operators read in
  non local Contribution for L=           0  read in
    real space projection operators read in
  non local Contribution for L=           1  read in
    real space projection operators read in
  non local Contribution for L=           1  read in
    real space projection operators read in
    PAW grid and wavefunctions read in
 
   number of l-projection  operators is LMAX  =           4
   number of lm-projection operators is LMMAX =           8
 
 POTCAR:    PAW_PBE Si 05Jan2001                  
   VRHFIN =Si: s2p2                                                             
   LEXCH  = PE                                                                  
   EATOM  =   103.0669 eV,    7.5752 Ry                                         
                                                                                
   TITEL  = PAW_PBE Si 05Jan2001                                                
   LULTRA =        F    use ultrasoft PP ?                                      
   IUNSCR =        1    unscreen: 0-lin 1-nonlin 2-no                           
   RPACOR =    1.500    partial core radius                                     
   POMASS =   28.085; ZVAL   =    4.000    mass and valenz                      
   RCORE  =    1.900    outmost cutoff radius                                   
   RWIGS  =    2.480; RWIGS  =    1.312    wigner-seitz radius (au A)           
   ENMAX  =  245.345; ENMIN  =  184.009 eV                                      
   ICORE  =        2    local potential                                         
   LCOR   =        T    correct aug charges                                     
   LPAW   =        T    paw PP                                                  
   EAUG   =  322.069                                                            
   DEXC   =    0.000                                                            
   RMAX   =    1.950    core radius for proj-oper                               
   RAUG   =    1.300    factor for augmentation sphere                          
   RDEP   =    1.993    radius for radial grids                                 
   RDEPT  =    1.837    core radius for aug-charge                              
                                                                                
   Atomic configuration                                                         
    6 entries                                                                   
     n  l   j            E        occ.                                          
     1  0  0.50     -1785.8828   2.0000                                         
     2  0  0.50      -139.4969   2.0000                                         
     2  1  1.50       -95.5546   6.0000                                         
     3  0  0.50       -10.8127   2.0000                                         
     3  1  0.50        -4.0811   2.0000                                         
     3  2  1.50        -4.0817   0.0000                                         
   Description                                                                  
     l       E           TYP  RCUT    TYP  RCUT                                 
     0    -10.8127223     23  1.900                                             
     0     -7.6451159     23  1.900                                             
     1     -4.0811372     23  1.900                                             
     1      2.4879257     23  1.900                                             
     2     -4.0817478      7  1.900                                             
  local pseudopotential read in
  partial core-charges read in
  partial kinetic energy density read in
  atomic valenz-charges read in
  non local Contribution for L=           0  read in
    real space projection operators read in
  non local Contribution for L=           0  read in
    real space projection operators read in
  non local Contribution for L=           1  read in
    real space projection operators read in
  non local Contribution for L=           1  read in
    real space projection operators read in
    PAW grid and wavefunctions read in
 
   number of l-projection  operators is LMAX  =           4
   number of lm-projection operators is LMMAX =           8
 
 Optimization of the real space projectors (new method)

 maximal supplied QI-value         = 25.13
 optimisation between [QCUT,QGAM] = [ 10.05, 20.36] = [ 28.30,116.06] Ry 
 Optimized for a Real-space Cutoff    1.70 Angstroem

   l    n(q)    QCUT    max X(q) W(low)/X(q) W(high)/X(q)  e(spline) 
   0     10    10.053    79.467    0.61E-04    0.98E-04    0.61E-06
   0     10    10.053    66.151    0.60E-04    0.98E-04    0.61E-06
   1     10    10.053     8.350    0.17E-03    0.71E-03    0.45E-05
   1     10    10.053     5.531    0.18E-03    0.77E-03    0.49E-05
 Optimization of the real space projectors (new method)

 maximal supplied QI-value         = 19.84
 optimisation between [QCUT,QGAM] = [ 10.12, 20.44] = [ 28.68,116.96] Ry 
 Optimized for a Real-space Cutoff    1.38 Angstroem

   l    n(q)    QCUT    max X(q) W(low)/X(q) W(high)/X(q)  e(spline) 
   0      8    10.119   159.560    0.58E-04    0.11E-03    0.54E-07
   0      8    10.119   115.863    0.56E-04    0.11E-03    0.54E-07
   1      8    10.119    88.339    0.22E-03    0.17E-03    0.19E-06
   1      8    10.119    48.592    0.22E-03    0.17E-03    0.18E-06
  PAW_PBE N 08Apr2002                   :
 energy of atom  1       EATOM= -264.5486
 kinetic energy error for atom=    0.0736 (will be added to EATOM!!)
  PAW_PBE Si 05Jan2001                  :
 energy of atom  2       EATOM= -103.0669
 kinetic energy error for atom=    0.0012 (will be added to EATOM!!)
 
 
 POSCAR: Si12 N16                                
  positions in direct lattice
  No initial velocities read in
 exchange correlation table for  LEXCH =        8
   RHO(1)=    0.500       N(1)  =     2000
   RHO(2)=  100.500       N(2)  =     4000
 


--------------------------------------------------------------------------------------------------------


 ion  position               nearest neighbor table
   1  0.008  0.647  0.213-  14 1.75  23 1.77  25 1.79
   2  0.639  0.992  0.213-  16 1.75  22 1.77  28 1.79
   3  0.914  0.322  0.992-  22 1.76  25 1.78  18 1.79
   4  0.647  0.008  0.713-  22 1.75  16 1.77  26 1.79
   5  0.086  0.407  0.492-  13 1.76  18 1.78  25 1.79
   6  0.322  0.914  0.492-  14 1.76  26 1.78  28 1.79
   7  0.353  0.361  0.213-  13 1.75  15 1.77  21 1.79
   8  0.593  0.678  0.492-  16 1.76  27 1.78  21 1.79
   9  0.992  0.639  0.713-  23 1.75  14 1.77  18 1.79
  10  0.361  0.353  0.713-  15 1.75  13 1.77  27 1.79
  11  0.678  0.593  0.992-  23 1.76  21 1.78  27 1.79
  12  0.407  0.086  0.992-  15 1.76  28 1.78  26 1.79
  13  0.213  0.300  0.467-   7 1.75   5 1.76  10 1.77  19 2.31  21 2.95  18 3.03  15 3.06  15 3.06
                            27 3.07
  14  0.087  0.787  0.467-   1 1.75   6 1.76   9 1.77  19 2.31  25 2.95  26 3.03  23 3.06  23 3.06
                            18 3.07
  15  0.300  0.213  0.967-  10 1.75  12 1.76   7 1.77  17 2.31  27 2.95  28 3.03  13 3.06  13 3.06
                            21 3.07
  16  0.700  0.913  0.467-   2 1.75   8 1.76   4 1.77  19 2.31  28 2.95  27 3.03  22 3.06  22 3.06
                            26 3.07
  17  0.000  0.000  0.957-  22 2.31  23 2.31  15 2.31  19 2.76  19 2.76
  18  0.067  0.484  0.783-   5 1.78   3 1.79   9 1.79  24 2.30  25 2.94  25 2.94  23 2.95  13 3.03
                            14 3.07
  19  0.000  0.000  0.457-  14 2.31  13 2.31  16 2.31  17 2.76  17 2.76
  20  0.667  0.333  0.476-  21 2.30  28 2.30  25 2.30
  21  0.582  0.516  0.283-  11 1.78   8 1.79   7 1.79  20 2.30  27 2.94  27 2.94  13 2.95  23 3.03
                            15 3.07
  22  0.787  0.087  0.967-   4 1.75   3 1.76   2 1.77  17 2.31  26 2.95  25 3.03  16 3.06  16 3.06
                            28 3.07
  23  0.913  0.700  0.967-   9 1.75  11 1.76   1 1.77  17 2.31  18 2.95  21 3.03  14 3.06  14 3.06
                            25 3.07
  24  0.333  0.667  0.976-  27 2.30  18 2.30  26 2.30
  25  0.933  0.418  0.283-   3 1.78   5 1.79   1 1.79  20 2.30  18 2.94  18 2.94  14 2.95  22 3.03
                            23 3.07
  26  0.418  0.933  0.783-   6 1.78  12 1.79   4 1.79  24 2.30  28 2.94  28 2.94  22 2.95  14 3.03
                            16 3.07
  27  0.516  0.582  0.783-   8 1.78  11 1.79  10 1.79  24 2.30  21 2.94  21 2.94  15 2.95  16 3.03
                            13 3.07
  28  0.484  0.067  0.283-  12 1.78   6 1.79   2 1.79  20 2.30  26 2.94  26 2.94  16 2.95  15 3.03
                            22 3.07
 
  LATTYP: Found a hexagonal cell.
 ALAT       =     8.6284634457
 C/A-ratio  =     0.6407499831
  
  Lattice vectors:
  
 A1 = (   4.3142317228,  -7.4724685396,   0.0000000000)
 A2 = (   4.3142317228,   7.4724685396,   0.0000000000)
 A3 = (   0.0000000000,   0.0000000000,   5.5286878073)


Analysis of symmetry for initial positions (statically):
=====================================================================
 Subroutine PRICEL returns:
 Original cell was already a primitive cell.
 

 Routine SETGRP: Setting up the symmetry group for a 
 hexagonal supercell.


 Subroutine GETGRP returns: Found  6 space group operations
 (whereof  3 operations were pure point group operations)
 out of a pool of 24 trial point group operations.


The static configuration has the point symmetry C_3 .
 The point group associated with its full space group is C_3v.


Analysis of symmetry for dynamics (positions and initial velocities):
=====================================================================
 Subroutine PRICEL returns:
 Original cell was already a primitive cell.
 

 Routine SETGRP: Setting up the symmetry group for a 
 hexagonal supercell.


 Subroutine GETGRP returns: Found  6 space group operations
 (whereof  3 operations were pure point group operations)
 out of a pool of 24 trial point group operations.


The dynamic configuration has the point symmetry C_3 .
 The point group associated with its full space group is C_3v.


 Subroutine INISYM returns: Found  6 space group operations
 (whereof  3 operations are pure point group operations),
 and found     1 'primitive' translations

 
 
 KPOINTS: Automatic mesh                          

Automatic generation of k-mesh.
 generate k-points for:    6    6    8
Space group operators:
 irot       det(A)        alpha          n_x          n_y          n_z        tau_x        tau_y        tau_z
    1     1.000000     0.000000     1.000000     0.000000     0.000000     0.000000     0.000000     0.000000
    2     1.000000   120.000000     0.000000     0.000000    -1.000000     0.000000     0.000000     0.000000
    3     1.000000   120.000000     0.000000     0.000000     1.000000     0.000000     0.000000     0.000000
    4    -1.000000   179.999999     0.000000     1.000000     0.000000     0.000000     0.000000     0.500000
    5    -1.000000   180.000000     0.866025     0.500000     0.000000     0.000000     0.000000     0.500000
    6    -1.000000   180.000000     0.866025    -0.500000     0.000000     0.000000     0.000000     0.500000
 
 Subroutine IBZKPT returns following result:
 ===========================================
 
 Found     44 irreducible k-points:
 
 Following reciprocal coordinates:
            Coordinates               Weight
  0.000000  0.000000  0.000000      1.000000
  0.166667  0.000000  0.000000      6.000000
  0.333333  0.000000  0.000000      6.000000
  0.500000  0.000000  0.000000      3.000000
  0.166667  0.166667  0.000000      6.000000
  0.333333  0.166667  0.000000     12.000000
  0.333333  0.333333  0.000000      2.000000
  0.000000  0.000000  0.125000      2.000000
  0.166667  0.000000  0.125000     12.000000
  0.333333  0.000000  0.125000     12.000000
  0.500000  0.000000  0.125000      6.000000
  0.166667  0.166667  0.125000      6.000000
  0.333333  0.166667  0.125000     12.000000
  0.333333  0.333333  0.125000      2.000000
 -0.166667  0.333333  0.125000      6.000000
 -0.333333  0.500000  0.125000     12.000000
 -0.333333 -0.333333  0.125000      2.000000
  0.000000  0.000000  0.250000      2.000000
  0.166667  0.000000  0.250000     12.000000
  0.333333  0.000000  0.250000     12.000000
  0.500000  0.000000  0.250000      6.000000
  0.166667  0.166667  0.250000      6.000000
  0.333333  0.166667  0.250000     12.000000
  0.333333  0.333333  0.250000      2.000000
 -0.166667  0.333333  0.250000      6.000000
 -0.333333  0.500000  0.250000     12.000000
 -0.333333 -0.333333  0.250000      2.000000
  0.000000  0.000000  0.375000      2.000000
  0.166667  0.000000  0.375000     12.000000
  0.333333  0.000000  0.375000     12.000000
  0.500000  0.000000  0.375000      6.000000
  0.166667  0.166667  0.375000      6.000000
  0.333333  0.166667  0.375000     12.000000
  0.333333  0.333333  0.375000      2.000000
 -0.166667  0.333333  0.375000      6.000000
 -0.333333  0.500000  0.375000     12.000000
 -0.333333 -0.333333  0.375000      2.000000
  0.000000  0.000000  0.500000      1.000000
  0.166667  0.000000  0.500000      6.000000
  0.333333  0.000000  0.500000      6.000000
  0.500000  0.000000  0.500000      3.000000
  0.166667  0.166667  0.500000      6.000000
  0.333333  0.166667  0.500000     12.000000
  0.333333  0.333333  0.500000      2.000000
 
 Following cartesian coordinates:
            Coordinates               Weight
  0.000000 -0.000000  0.000000      1.000000
  0.019316 -0.011152  0.000000      6.000000
  0.038632 -0.022304  0.000000      6.000000
  0.057948 -0.033456  0.000000      3.000000
  0.038632  0.000000  0.000000      6.000000
  0.057948 -0.011152  0.000000     12.000000
  0.077264  0.000000  0.000000      2.000000
  0.000000 -0.000000  0.022609      2.000000
  0.019316 -0.011152  0.022609     12.000000
  0.038632 -0.022304  0.022609     12.000000
  0.057948 -0.033456  0.022609      6.000000
  0.038632  0.000000  0.022609      6.000000
  0.057948 -0.011152  0.022609     12.000000
  0.077264  0.000000  0.022609      2.000000
  0.019316  0.033456  0.022609      6.000000
  0.019316  0.055760  0.022609     12.000000
 -0.077264 -0.000000  0.022609      2.000000
  0.000000 -0.000000  0.045219      2.000000
  0.019316 -0.011152  0.045219     12.000000
  0.038632 -0.022304  0.045219     12.000000
  0.057948 -0.033456  0.045219      6.000000
  0.038632  0.000000  0.045219      6.000000
  0.057948 -0.011152  0.045219     12.000000
  0.077264  0.000000  0.045219      2.000000
  0.019316  0.033456  0.045219      6.000000
  0.019316  0.055760  0.045219     12.000000
 -0.077264 -0.000000  0.045219      2.000000
  0.000000 -0.000000  0.067828      2.000000
  0.019316 -0.011152  0.067828     12.000000
  0.038632 -0.022304  0.067828     12.000000
  0.057948 -0.033456  0.067828      6.000000
  0.038632  0.000000  0.067828      6.000000
  0.057948 -0.011152  0.067828     12.000000
  0.077264  0.000000  0.067828      2.000000
  0.019316  0.033456  0.067828      6.000000
  0.019316  0.055760  0.067828     12.000000
 -0.077264 -0.000000  0.067828      2.000000
  0.000000 -0.000000  0.090437      1.000000
  0.019316 -0.011152  0.090437      6.000000
  0.038632 -0.022304  0.090437      6.000000
  0.057948 -0.033456  0.090437      3.000000
  0.038632  0.000000  0.090437      6.000000
  0.057948 -0.011152  0.090437     12.000000
  0.077264  0.000000  0.090437      2.000000
 


--------------------------------------------------------------------------------------------------------




 Dimension of arrays:
   k-points           NKPTS =     44   k-points in BZ     NKDIM =     44   number of bands    NBANDS=     80
   number of dos      NEDOS =    301   number of ions     NIONS =     28
   non local maximal  LDIM  =      4   non local SUM 2l+1 LMDIM =      8
   total plane-waves  NPLWV = 112896
   max r-space proj   IRMAX =   6543   max aug-charges    IRDMAX=  10787
   dimension x,y,z NGX =    56 NGY =   56 NGZ =   36
   dimension x,y,z NGXF=   112 NGYF=  112 NGZF=   72
   support grid    NGXF=   112 NGYF=  112 NGZF=   72
   ions per type =              12  16
   NGX,Y,Z   is equivalent  to a cutoff of  10.79, 10.79, 10.83 a.u.
   NGXF,Y,Z  is equivalent  to a cutoff of  21.58, 21.58, 21.65 a.u.

 SYSTEM =  unknown system                          
 POSCAR =  Si12 N16                                

 Startparameter for this run:
   NWRITE =      2    write-flag & timer
   PREC   = accura    normal or accurate (medium, high low for compatibility)
   ISTART =      0    job   : 0-new  1-cont  2-samecut
   ICHARG =      2    charge: 1-file 2-atom 10-const
   ISPIN  =      1    spin polarized calculation?
   LNONCOLLINEAR =      F non collinear calculations
   LSORBIT =      F    spin-orbit coupling
   INIWAV =      1    electr: 0-lowe 1-rand  2-diag
   LASPH  =      F    aspherical Exc in radial PAW
   METAGGA=      F    non-selfconsistent MetaGGA calc.

 Electronic Relaxation 1
   ENCUT  =  400.0 eV  29.40 Ry    5.42 a.u.  14.07 14.07  9.02*2*pi/ulx,y,z
   ENINI  =  400.0     initial cutoff
   ENAUG  =  627.1 eV  augmentation charge cutoff
   NELM   =     60;   NELMIN=  2; NELMDL= -5     # of ELM steps 
   EDIFF  = 0.1E-03   stopping-criterion for ELM
   LREAL  =      T    real-space projection
   NLSPLINE    = F    spline interpolate recip. space projectors
   LCOMPAT=      F    compatible to vasp.4.4
   GGA_COMPAT  = T    GGA compatible to vasp.4.4-vasp.4.6
   LMAXPAW     = -100 max onsite density
   LMAXMIX     =    2 max onsite mixed and CHGCAR
   VOSKOWN=      0    Vosko Wilk Nusair interpolation
   ROPT   =   -0.00025  -0.00025
 Ionic relaxation
   EDIFFG = 0.1E-02   stopping-criterion for IOM
   NSW    =    100    number of steps for IOM
   NBLOCK =      1;   KBLOCK =    100    inner block; outer block 
   IBRION =      2    ionic relax: 0-MD 1-quasi-New 2-CG
   NFREE  =      1    steps in history (QN), initial steepest desc. (CG)
   ISIF   =      2    stress and relaxation
   IWAVPR =     11    prediction:  0-non 1-charg 2-wave 3-comb
   ISYM   =      2    0-nonsym 1-usesym 2-fastsym
   LCORR  =      T    Harris-Foulkes like correction to forces

   POTIM  = 0.5000    time-step for ionic-motion
   TEIN   =    0.0    initial temperature
   TEBEG  =    0.0;   TEEND  =   0.0 temperature during run
   SMASS  =  -3.00    Nose mass-parameter (am)
   estimated Nose-frequenzy (Omega)   =  0.10E-29 period in steps =****** mass=  -0.170E-26a.u.
   SCALEE = 1.0000    scale energy and forces
   NPACO  =    256;   APACO  = 16.0  distance and # of slots for P.C.
   PSTRESS=    0.0 pullay stress

  Mass of Ions in am
   POMASS =  14.00 28.09
  Ionic Valenz
   ZVAL   =   5.00  4.00
  Atomic Wigner-Seitz radii
   RWIGS  =  -1.00 -1.00
  virtual crystal weights 
   VCA    =   1.00  1.00
   NELECT =     124.0000    total number of electrons
   NUPDOWN=      -1.0000    fix difference up-down

 DOS related values:
   EMIN   =  10.00;   EMAX   =-10.00  energy-range for DOS
   EFERMI =   0.00
   ISMEAR =     2;   SIGMA  =   0.10  broadening in eV -4-tet -1-fermi 0-gaus

 Electronic relaxation 2 (details)
   IALGO  =     68    algorithm
   LDIAG  =      T    sub-space diagonalisation (order eigenvalues)
   LSUBROT=      F    optimize rotation matrix (better conditioning)
   TURBO    =      0    0=normal 1=particle mesh
   IRESTART =      0    0=no restart 2=restart with 2 vectors
   NREBOOT  =      0    no. of reboots
   NMIN     =      0    reboot dimension
   EREF     =   0.00    reference energy to select bands
   IMIX   =      4    mixing-type and parameters
     AMIX     =   0.40;   BMIX     =  1.00
     AMIX_MAG =   1.60;   BMIX_MAG =  1.00
     AMIN     =   0.10
     WC   =   100.;   INIMIX=   1;  MIXPRE=   1;  MAXMIX= -45

 Intra band minimization:
   WEIMIN = 0.0010     energy-eigenvalue tresh-hold
   EBREAK =  0.31E-06  absolut break condition
   DEPER  =   0.30     relativ break condition  

   TIME   =   0.40     timestep for ELM

  volume/ion in A,a.u.               =      12.73        85.91
  Fermi-wavevector in a.u.,A,eV,Ry     =   1.151354  2.175743 18.036099  1.325616
  Thomas-Fermi vector in A             =   2.288012
 
 Write flags
   LWAVE        =      F    write WAVECAR
   LDOWNSAMPLE  =      F    k-point downsampling of WAVECAR
   LCHARG       =      F    write CHGCAR
   LVTOT        =      F    write LOCPOT, total local potential
   LVHAR        =      F    write LOCPOT, Hartree potential only
   LELF         =      F    write electronic localiz. function (ELF)
   LORBIT       =      0    0 simple, 1 ext, 2 COOP (PROOUT), +10 PAW based schemes


 Dipole corrections
   LMONO  =      F    monopole corrections only (constant potential shift)
   LDIPOL =      F    correct potential (dipole corrections)
   IDIPOL =      0    1-x, 2-y, 3-z, 4-all directions 
   EPSILON=  1.0000000 bulk dielectric constant

 Exchange correlation treatment:
   GGA     =    --    GGA type
   LEXCH   =     8    internal setting for exchange type
   VOSKOWN=      0    Vosko Wilk Nusair interpolation
   LHFCALC =     F    Hartree Fock is set to
   LHFONE  =     F    Hartree Fock one center treatment
   AEXX    =    0.0000 exact exchange contribution

 Linear response parameters
   LEPSILON=     F    determine dielectric tensor
   LRPA    =     F    only Hartree local field effects (RPA)
   LNABLA  =     F    use nabla operator in PAW spheres
   LVEL    =     F    velocity operator in full k-point grid
   LINTERFAST=   F  fast interpolation
   KINTER  =     0    interpolate to denser k-point grid
   CSHIFT  =0.1000    complex shift for real part using Kramers Kronig
   OMEGAMAX=  -1.0    maximum frequency
   DEG_THRESHOLD= 0.2000000E-02 threshold for treating states as degnerate
   RTIME   =   -0.100 relaxation time in fs
  (WPLASMAI=    0.000 imaginary part of plasma frequency in eV, 0.658/RTIME)
   DFIELD  = 0.0000000 0.0000000 0.0000000 field for delta impulse in time
 
 Orbital magnetization related:
   ORBITALMAG=     F  switch on orbital magnetization
   LCHIMAG   =     F  perturbation theory with respect to B field
   DQ        =  0.001000  dq finite difference perturbation B field
   LLRAUG    =     F  two centre corrections for induced B field



--------------------------------------------------------------------------------------------------------


 conjugate gradient relaxation of ions
 charge density and potential will be updated during run
 non-spin polarized calculation
 RMM-DIIS sequential band-by-band and
  variant of blocked Davidson during initial phase
 perform sub-space diagonalisation
    before iterative eigenvector-optimisation
 modified Broyden-mixing scheme, WC =      100.0
 initial mixing is a Kerker type mixing with AMIX =  0.4000 and BMIX =      1.0000
 Hartree-type preconditioning will be used
 using additional bands           18
 real space projection scheme for non local part
 use partial core corrections
 calculate Harris-corrections to forces 
   (improved forces if not selfconsistent)
 use gradient corrections 
 use of overlap-Matrix (Vanderbilt PP)
 Methfessel and Paxton  Order N= 2 SIGMA  =   0.10


--------------------------------------------------------------------------------------------------------


  energy-cutoff  :      400.00
  volume of cell :      356.47
      direct lattice vectors                 reciprocal lattice vectors
     4.314231723 -7.472468540  0.000000000     0.115895490 -0.066912292  0.000000000
     4.314231723  7.472468540  0.000000000     0.115895490  0.066912292  0.000000000
     0.000000000  0.000000000  5.528687807     0.000000000  0.000000000  0.180874745

  length of vectors
     8.628463446  8.628463446  5.528687807     0.133824585  0.133824585  0.180874745


 
 k-points in units of 2pi/SCALE and weight: Automatic mesh                          
   0.00000000 -0.00000000  0.00000000       0.003
   0.01931592 -0.01115205  0.00000000       0.021
   0.03863183 -0.02230410  0.00000000       0.021
   0.05794775 -0.03345615  0.00000000       0.010
   0.03863183 -0.00000000  0.00000000       0.021
   0.05794775 -0.01115205  0.00000000       0.042
   0.07726366  0.00000000  0.00000000       0.007
   0.00000000 -0.00000000  0.02260934       0.007
   0.01931592 -0.01115205  0.02260934       0.042
   0.03863183 -0.02230410  0.02260934       0.042
   0.05794775 -0.03345615  0.02260934       0.021
   0.03863183 -0.00000000  0.02260934       0.021
   0.05794775 -0.01115205  0.02260934       0.042
   0.07726366  0.00000000  0.02260934       0.007
   0.01931592  0.03345615  0.02260934       0.021
   0.01931592  0.05576024  0.02260934       0.042
  -0.07726366 -0.00000000  0.02260934       0.007
   0.00000000 -0.00000000  0.04521869       0.007
   0.01931592 -0.01115205  0.04521869       0.042
   0.03863183 -0.02230410  0.04521869       0.042
   0.05794775 -0.03345615  0.04521869       0.021
   0.03863183 -0.00000000  0.04521869       0.021
   0.05794775 -0.01115205  0.04521869       0.042
   0.07726366  0.00000000  0.04521869       0.007
   0.01931592  0.03345615  0.04521869       0.021
   0.01931592  0.05576024  0.04521869       0.042
  -0.07726366 -0.00000000  0.04521869       0.007
   0.00000000 -0.00000000  0.06782803       0.007
   0.01931592 -0.01115205  0.06782803       0.042
   0.03863183 -0.02230410  0.06782803       0.042
   0.05794775 -0.03345615  0.06782803       0.021
   0.03863183 -0.00000000  0.06782803       0.021
   0.05794775 -0.01115205  0.06782803       0.042
   0.07726366  0.00000000  0.06782803       0.007
   0.01931592  0.03345615  0.06782803       0.021
   0.01931592  0.05576024  0.06782803       0.042
  -0.07726366 -0.00000000  0.06782803       0.007
   0.00000000 -0.00000000  0.09043737       0.003
   0.01931592 -0.01115205  0.09043737       0.021
   0.03863183 -0.02230410  0.09043737       0.021
   0.05794775 -0.03345615  0.09043737       0.010
   0.03863183 -0.00000000  0.09043737       0.021
   0.05794775 -0.01115205  0.09043737       0.042
   0.07726366  0.00000000  0.09043737       0.007
 
 k-points in reciprocal lattice and weights: Automatic mesh                          
   0.00000000  0.00000000  0.00000000       0.003
   0.16666667  0.00000000  0.00000000       0.021
   0.33333333  0.00000000  0.00000000       0.021
   0.50000000  0.00000000  0.00000000       0.010
   0.16666667  0.16666667  0.00000000       0.021
   0.33333333  0.16666667  0.00000000       0.042
   0.33333333  0.33333333  0.00000000       0.007
   0.00000000  0.00000000  0.12500000       0.007
   0.16666667  0.00000000  0.12500000       0.042
   0.33333333  0.00000000  0.12500000       0.042
   0.50000000  0.00000000  0.12500000       0.021
   0.16666667  0.16666667  0.12500000       0.021
   0.33333333  0.16666667  0.12500000       0.042
   0.33333333  0.33333333  0.12500000       0.007
  -0.16666667  0.33333333  0.12500000       0.021
  -0.33333333  0.50000000  0.12500000       0.042
  -0.33333333 -0.33333333  0.12500000       0.007
   0.00000000  0.00000000  0.25000000       0.007
   0.16666667  0.00000000  0.25000000       0.042
   0.33333333  0.00000000  0.25000000       0.042
   0.50000000  0.00000000  0.25000000       0.021
   0.16666667  0.16666667  0.25000000       0.021
   0.33333333  0.16666667  0.25000000       0.042
   0.33333333  0.33333333  0.25000000       0.007
  -0.16666667  0.33333333  0.25000000       0.021
  -0.33333333  0.50000000  0.25000000       0.042
  -0.33333333 -0.33333333  0.25000000       0.007
   0.00000000  0.00000000  0.37500000       0.007
   0.16666667  0.00000000  0.37500000       0.042
   0.33333333  0.00000000  0.37500000       0.042
   0.50000000  0.00000000  0.37500000       0.021
   0.16666667  0.16666667  0.37500000       0.021
   0.33333333  0.16666667  0.37500000       0.042
   0.33333333  0.33333333  0.37500000       0.007
  -0.16666667  0.33333333  0.37500000       0.021
  -0.33333333  0.50000000  0.37500000       0.042
  -0.33333333 -0.33333333  0.37500000       0.007
   0.00000000  0.00000000  0.50000000       0.003
   0.16666667  0.00000000  0.50000000       0.021
   0.33333333  0.00000000  0.50000000       0.021
   0.50000000  0.00000000  0.50000000       0.010
   0.16666667  0.16666667  0.50000000       0.021
   0.33333333  0.16666667  0.50000000       0.042
   0.33333333  0.33333333  0.50000000       0.007
 
 position of ions in fractional coordinates (direct lattice) 
   0.00847736  0.64712623  0.21326215
   0.63864887  0.99152264  0.21326215
   0.91417805  0.32157747  0.99187268
   0.64712623  0.00847736  0.71326215
   0.08582195  0.40739942  0.49187268
   0.32157747  0.91417805  0.49187268
   0.35287377  0.36135113  0.21326215
   0.59260058  0.67842253  0.49187268
   0.99152264  0.63864887  0.71326215
   0.36135113  0.35287377  0.71326215
   0.67842253  0.59260058  0.99187268
   0.40739942  0.08582195  0.99187268
   0.21311138  0.30040483  0.46674092
   0.08729345  0.78688862  0.46674092
   0.30040483  0.21311138  0.96674092
   0.69959517  0.91270655  0.46674092
   0.00000000  0.00000000  0.95692726
   0.06686359  0.48449764  0.78259872
   0.00000000  0.00000000  0.45692726
   0.66666667  0.33333333  0.47577702
   0.58236595  0.51550236  0.28259872
   0.78688862  0.08729345  0.96674092
   0.91270655  0.69959517  0.96674092
   0.33333333  0.66666667  0.97577702
   0.93313641  0.41763405  0.28259872
   0.41763405  0.93313641  0.78259872
   0.51550236  0.58236595  0.78259872
   0.48449764  0.06686359  0.28259872
 
 position of ions in cartesian coordinates  (Angst):
   2.82842581  4.77228360  1.17905985
   7.03293765  2.63683813  1.17905985
   5.33133568 -4.42818922  5.48375438
   2.82842581 -4.77228360  3.94340376
   2.12787125  2.40297753  2.71941047
   5.33133568  4.42818922  2.71941047
   3.08133170  0.06334681  1.17905985
   5.48348824  0.64130179  2.71941047
   7.03293765 -2.63683813  3.94340376
   3.08133170 -0.06334681  3.94340376
   5.48348824 -0.64130179  5.48375438
   2.12787125 -2.40297753  5.48375438
   2.21542791  0.65229754  2.58046481
   3.77142400  5.22770292  2.58046481
   2.21542791 -0.65229754  5.34480871
   6.95584325  1.59246809  2.58046481
   0.00000000  0.00000000  5.29055208
   2.37870009  3.12075726  4.32674402
   0.00000000  0.00000000  2.52620817
   4.31423172 -2.49082285  2.63042259
   4.73645833 -0.49963607  1.56240012
   3.77142400 -5.22770292  5.34480871
   6.95584325 -1.59246809  5.34480871
   4.31423172  2.49082285  5.39476649
   5.82753675 -3.85207520  1.56240012
   5.82753675  3.85207520  4.32674402
   4.73645833  0.49963607  4.32674402
   2.37870009 -3.12075726  1.56240012
 


--------------------------------------------------------------------------------------------------------


 k-point  1 :   0.0000 0.0000 0.0000  plane waves:    6421
 k-point  2 :   0.1667 0.0000 0.0000  plane waves:    6451
 k-point  3 :   0.3333 0.0000 0.0000  plane waves:    6454
 k-point  4 :   0.5000 0.0000 0.0000  plane waves:    6446
 k-point  5 :   0.1667 0.1667 0.0000  plane waves:    6464
 k-point  6 :   0.3333 0.1667 0.0000  plane waves:    6459
 k-point  7 :   0.3333 0.3333 0.0000  plane waves:    6474
 k-point  8 :   0.0000 0.0000 0.1250  plane waves:    6480
 k-point  9 :   0.1667 0.0000 0.1250  plane waves:    6465
 k-point 10 :   0.3333 0.0000 0.1250  plane waves:    6463
 k-point 11 :   0.5000 0.0000 0.1250  plane waves:    6476
 k-point 12 :   0.1667 0.1667 0.1250  plane waves:    6458
 k-point 13 :   0.3333 0.1667 0.1250  plane waves:    6475
 k-point 14 :   0.3333 0.3333 0.1250  plane waves:    6453
 k-point 15 :  -0.1667 0.3333 0.1250  plane waves:    6458
 k-point 16 :  -0.3333 0.5000 0.1250  plane waves:    6475
 k-point 17 :  -0.3333-0.3333 0.1250  plane waves:    6453
 k-point 18 :   0.0000 0.0000 0.2500  plane waves:    6486
 k-point 19 :   0.1667 0.0000 0.2500  plane waves:    6474
 k-point 20 :   0.3333 0.0000 0.2500  plane waves:    6482
 k-point 21 :   0.5000 0.0000 0.2500  plane waves:    6482
 k-point 22 :   0.1667 0.1667 0.2500  plane waves:    6473
 k-point 23 :   0.3333 0.1667 0.2500  plane waves:    6475
 k-point 24 :   0.3333 0.3333 0.2500  plane waves:    6495
 k-point 25 :  -0.1667 0.3333 0.2500  plane waves:    6473
 k-point 26 :  -0.3333 0.5000 0.2500  plane waves:    6475
 k-point 27 :  -0.3333-0.3333 0.2500  plane waves:    6495
 k-point 28 :   0.0000 0.0000 0.3750  plane waves:    6474
 k-point 29 :   0.1667 0.0000 0.3750  plane waves:    6485
 k-point 30 :   0.3333 0.0000 0.3750  plane waves:    6478
 k-point 31 :   0.5000 0.0000 0.3750  plane waves:    6484
 k-point 32 :   0.1667 0.1667 0.3750  plane waves:    6485
 k-point 33 :   0.3333 0.1667 0.3750  plane waves:    6488
 k-point 34 :   0.3333 0.3333 0.3750  plane waves:    6495
 k-point 35 :  -0.1667 0.3333 0.3750  plane waves:    6485
 k-point 36 :  -0.3333 0.5000 0.3750  plane waves:    6488
 k-point 37 :  -0.3333-0.3333 0.3750  plane waves:    6495
 k-point 38 :   0.0000 0.0000 0.5000  plane waves:    6498
 k-point 39 :   0.1667 0.0000 0.5000  plane waves:    6466
 k-point 40 :   0.3333 0.0000 0.5000  plane waves:    6482
 k-point 41 :   0.5000 0.0000 0.5000  plane waves:    6484
 k-point 42 :   0.1667 0.1667 0.5000  plane waves:    6464
 k-point 43 :   0.3333 0.1667 0.5000  plane waves:    6500
 k-point 44 :   0.3333 0.3333 0.5000  plane waves:    6510

 maximum and minimum number of plane-waves per node :      1648     1585

 maximum number of plane-waves:      6510
 maximum index in each direction: 
   IXMAX=   14   IYMAX=   14   IZMAX=    9
   IXMIN=  -14   IYMIN=  -14   IZMIN=   -9


 real space projection operators:
  total allocation   :       8118.00 KBytes
  max/ min on nodes  :       2033.75       2027.62


 parallel 3D FFT for wavefunctions:
    minimum data exchange during FFTs selected (reduces bandwidth)
 parallel 3D FFT for charge:
    minimum data exchange during FFTs selected (reduces bandwidth)


 total amount of memory used by VASP MPI-rank0    66664. kBytes
=======================================================================

   base      :      30000. kBytes
   nonlr-proj:       5609. kBytes
   fftplans  :       2790. kBytes
   grid      :       4365. kBytes
   one-center:         21. kBytes
   wavefun   :      23879. kBytes
 
     INWAV:  cpu time    0.0000: real time    0.0000
 Broyden mixing: mesh for mixing (old mesh)
   NGX = 29   NGY = 29   NGZ = 19
  (NGX  =112   NGY  =112   NGZ  = 72)
  gives a total of  15979 points

 initial charge density was supplied:
 charge density of overlapping atoms calculated
 number of electron     124.0000000 magnetization 
 keeping initial charge density in first step


--------------------------------------------------------------------------------------------------------


 Maximum index for non-local projection operator         1587
 Maximum index for augmentation-charges          742 (set IRDMAX)


--------------------------------------------------------------------------------------------------------


 First call to EWALD:  gamma=   0.250
 Maximum number of real-space cells 3x 3x 3
 Maximum number of reciprocal cells 3x 3x 2

    FEWALD:  cpu time    0.0023: real time    0.0027


--------------------------------------- Iteration      1(   1)  ---------------------------------------


    POTLOK:  cpu time    0.0427: real time    0.0558
    SETDIJ:  cpu time    0.0046: real time    0.0046
     EDDAV:  cpu time    6.6584: real time    6.6583
       DOS:  cpu time    0.0034: real time    0.0034
    --------------------------------------------
      LOOP:  cpu time    6.7091: real time    6.7220

 eigenvalue-minimisations  :  7040
 total energy-change (2. order) : 0.4729981E+03  (-0.4925224E+04)
 number of electron     124.0000000 magnetization 
 augmentation part      124.0000000 magnetization 

 Free energy of the ion-electron system (eV)
  ---------------------------------------------------
  alpha Z        PSCENC =       136.79270014
  Ewald energy   TEWEN  =     -4199.04007303
  -Hartree energ DENC   =     -1083.95918674
  -exchange      EXHF   =         0.00000000
  -V(xc)+E(xc)   XCENC  =        97.18642959
  PAW double counting   =      3869.17357318    -3601.97287308
  entropy T*S    EENTRO =        -0.00184872
  eigenvalues    EBANDS =       432.06742910
  atomic energy  EATOM  =      4822.75196862
  Solvation  Ediel_sol  =         0.00000000
  ---------------------------------------------------
  free energy    TOTEN  =       472.99811906 eV

  energy without entropy =      472.99996778  energy(sigma->0) =      472.99858124


--------------------------------------------------------------------------------------------------------




--------------------------------------- Iteration      1(   2)  ---------------------------------------


     EDDAV:  cpu time    7.8657: real time    7.8663
       DOS:  cpu time    0.0035: real time    0.0035
    --------------------------------------------
      LOOP:  cpu time    7.8692: real time    7.8698

 eigenvalue-minimisations  :  8776
 total energy-change (2. order) :-0.6460648E+03  (-0.6206194E+03)
 number of electron     124.0000000 magnetization 
 augmentation part      124.0000000 magnetization 

 Free energy of the ion-electron system (eV)
  ---------------------------------------------------
  alpha Z        PSCENC =       136.79270014
  Ewald energy   TEWEN  =     -4199.04007303
  -Hartree energ DENC   =     -1083.95918674
  -exchange      EXHF   =         0.00000000
  -V(xc)+E(xc)   XCENC  =        97.18642959
  PAW double counting   =      3869.17357318    -3601.97287308
  entropy T*S    EENTRO =         0.00025051
  eigenvalues    EBANDS =      -213.99949929
  atomic energy  EATOM  =      4822.75196862
  Solvation  Ediel_sol  =         0.00000000
  ---------------------------------------------------
  free energy    TOTEN  =      -173.06671009 eV

  energy without entropy =     -173.06696060  energy(sigma->0) =     -173.06677272


--------------------------------------------------------------------------------------------------------




--------------------------------------- Iteration      1(   3)  ---------------------------------------


     EDDAV:  cpu time    7.6685: real time    7.6709
       DOS:  cpu time    0.0038: real time    0.0038
    --------------------------------------------
      LOOP:  cpu time    7.6723: real time    7.6748

 eigenvalue-minimisations  :  8496
 total energy-change (2. order) :-0.5167245E+02  (-0.5121299E+02)
 number of electron     124.0000000 magnetization 
 augmentation part      124.0000000 magnetization 

 Free energy of the ion-electron system (eV)
  ---------------------------------------------------
  alpha Z        PSCENC =       136.79270014
  Ewald energy   TEWEN  =     -4199.04007303
  -Hartree energ DENC   =     -1083.95918674
  -exchange      EXHF   =         0.00000000
  -V(xc)+E(xc)   XCENC  =        97.18642959
  PAW double counting   =      3869.17357318    -3601.97287308
  entropy T*S    EENTRO =        -0.02448166
  eigenvalues    EBANDS =      -265.64721730
  atomic energy  EATOM  =      4822.75196862
  Solvation  Ediel_sol  =         0.00000000
  ---------------------------------------------------
  free energy    TOTEN  =      -224.73916027 eV

  energy without entropy =     -224.71467861  energy(sigma->0) =     -224.73303985


--------------------------------------------------------------------------------------------------------




--------------------------------------- Iteration      1(   4)  ---------------------------------------


     EDDAV:  cpu time    7.8799: real time    7.8805
       DOS:  cpu time    0.0038: real time    0.0038
    --------------------------------------------
      LOOP:  cpu time    7.8837: real time    7.8843

 eigenvalue-minimisations  :  8768
 total energy-change (2. order) :-0.1184510E+01  (-0.1178261E+01)
 number of electron     124.0000000 magnetization 
 augmentation part      124.0000000 magnetization 

 Free energy of the ion-electron system (eV)
  ---------------------------------------------------
  alpha Z        PSCENC =       136.79270014
  Ewald energy   TEWEN  =     -4199.04007303
  -Hartree energ DENC   =     -1083.95918674
  -exchange      EXHF   =         0.00000000
  -V(xc)+E(xc)   XCENC  =        97.18642959
  PAW double counting   =      3869.17357318    -3601.97287308
  entropy T*S    EENTRO =        -0.02758036
  eigenvalues    EBANDS =      -266.82862907
  atomic energy  EATOM  =      4822.75196862
  Solvation  Ediel_sol  =         0.00000000
  ---------------------------------------------------
  free energy    TOTEN  =      -225.92367074 eV

  energy without entropy =     -225.89609038  energy(sigma->0) =     -225.91677565


--------------------------------------------------------------------------------------------------------




--------------------------------------- Iteration      1(   5)  ---------------------------------------


     EDDAV:  cpu time    7.7245: real time    7.7251
       DOS:  cpu time    0.0037: real time    0.0037
    CHARGE:  cpu time    0.3276: real time    0.3276
    MIXING:  cpu time    0.0011: real time    0.0011
    --------------------------------------------
      LOOP:  cpu time    8.0569: real time    8.0575

 eigenvalue-minimisations  :  8576
 total energy-change (2. order) :-0.3004217E-01  (-0.2999566E-01)
 number of electron     123.9999981 magnetization 
 augmentation part        0.8940188 magnetization 

 Broyden mixing:
  rms(total) = 0.35253E+01    rms(broyden)= 0.35244E+01
  rms(prec ) = 0.50164E+01
  weight for this iteration     100.00

 Free energy of the ion-electron system (eV)
  ---------------------------------------------------
  alpha Z        PSCENC =       136.79270014
  Ewald energy   TEWEN  =     -4199.04007303
  -Hartree energ DENC   =     -1083.95918674
  -exchange      EXHF   =         0.00000000
  -V(xc)+E(xc)   XCENC  =        97.18642959
  PAW double counting   =      3869.17357318    -3601.97287308
  entropy T*S    EENTRO =        -0.02757753
  eigenvalues    EBANDS =      -266.85867407
  atomic energy  EATOM  =      4822.75196862
  Solvation  Ediel_sol  =         0.00000000
  ---------------------------------------------------
  free energy    TOTEN  =      -225.95371291 eV

  energy without entropy =     -225.92613539  energy(sigma->0) =     -225.94681853


--------------------------------------------------------------------------------------------------------




--------------------------------------- Iteration      1(   6)  ---------------------------------------


    POTLOK:  cpu time    0.0377: real time    0.0428
    SETDIJ:  cpu time    0.0042: real time    0.0046
    EDDIAG:  cpu time    0.9088: real time    0.9087
  RMM-DIIS:  cpu time    4.2364: real time    4.2358
    ORTHCH:  cpu time    0.0980: real time    0.0980
       DOS:  cpu time    0.0037: real time    0.0037
    CHARGE:  cpu time    0.3154: real time    0.3154
    MIXING:  cpu time    0.0011: real time    0.0011
    --------------------------------------------
      LOOP:  cpu time    5.6055: real time    5.6101

 eigenvalue-minimisations  :  7054
 total energy-change (2. order) : 0.2347273E+02  (-0.1113888E+02)
 number of electron     123.9999985 magnetization 
 augmentation part       -0.5615474 magnetization 

 Broyden mixing:
  rms(total) = 0.15696E+01    rms(broyden)= 0.15691E+01
  rms(prec ) = 0.17700E+01
  weight for this iteration     100.00

 eigenvalues of (default mixing * dielectric matrix)
  average eigenvalue GAMMA=   1.1042
  1.1042

 Free energy of the ion-electron system (eV)
  ---------------------------------------------------
  alpha Z        PSCENC =       136.79270014
  Ewald energy   TEWEN  =     -4199.04007303
  -Hartree energ DENC   =     -1271.95342217
  -exchange      EXHF   =         0.00000000
  -V(xc)+E(xc)   XCENC  =       110.39277817
  PAW double counting   =      7993.54988149    -7728.80604074
  entropy T*S    EENTRO =        -0.00356533
  eigenvalues    EBANDS =       -66.16520813
  atomic energy  EATOM  =      4822.75196862
  Solvation  Ediel_sol  =         0.00000000
  ---------------------------------------------------
  free energy    TOTEN  =      -202.48098097 eV

  energy without entropy =     -202.47741564  energy(sigma->0) =     -202.48008964


--------------------------------------------------------------------------------------------------------




--------------------------------------- Iteration      1(   7)  ---------------------------------------


    POTLOK:  cpu time    0.0376: real time    0.0378
    SETDIJ:  cpu time    0.0040: real time    0.0040
    EDDIAG:  cpu time    0.9093: real time    0.9093
  RMM-DIIS:  cpu time    4.4051: real time    4.4052
    ORTHCH:  cpu time    0.0972: real time    0.0972
       DOS:  cpu time    0.0040: real time    0.0040
    CHARGE:  cpu time    0.3155: real time    0.3155
    MIXING:  cpu time    0.0011: real time    0.0011
    --------------------------------------------
      LOOP:  cpu time    5.7738: real time    5.7740

 eigenvalue-minimisations  :  7300
 total energy-change (2. order) : 0.4328515E+00  (-0.4257539E+00)
 number of electron     123.9999985 magnetization 
 augmentation part       -0.6917872 magnetization 

 Broyden mixing:
  rms(total) = 0.87436E+00    rms(broyden)= 0.87428E+00
  rms(prec ) = 0.99882E+00
  weight for this iteration     100.00

 eigenvalues of (default mixing * dielectric matrix)
  average eigenvalue GAMMA=   1.6155
  1.1293  2.1016

 Free energy of the ion-electron system (eV)
  ---------------------------------------------------
  alpha Z        PSCENC =       136.79270014
  Ewald energy   TEWEN  =     -4199.04007303
  -Hartree energ DENC   =     -1287.78042349
  -exchange      EXHF   =         0.00000000
  -V(xc)+E(xc)   XCENC  =       112.32108430
  PAW double counting   =     11667.72653016   -11403.92644244
  entropy T*S    EENTRO =        -0.00907046
  eigenvalues    EBANDS =       -50.88440325
  atomic energy  EATOM  =      4822.75196862
  Solvation  Ediel_sol  =         0.00000000
  ---------------------------------------------------
  free energy    TOTEN  =      -202.04812944 eV

  energy without entropy =     -202.03905898  energy(sigma->0) =     -202.04586182


--------------------------------------------------------------------------------------------------------




--------------------------------------- Iteration      1(   8)  ---------------------------------------


    POTLOK:  cpu time    0.0368: real time    0.0387
    SETDIJ:  cpu time    0.0042: real time    0.0045
    EDDIAG:  cpu time    0.9104: real time    0.9102
  RMM-DIIS:  cpu time    4.2565: real time    4.2556
    ORTHCH:  cpu time    0.1012: real time    0.1012
       DOS:  cpu time    0.0036: real time    0.0036
    CHARGE:  cpu time    0.3266: real time    0.3266
    MIXING:  cpu time    0.0012: real time    0.0012
    --------------------------------------------
      LOOP:  cpu time    5.6406: real time    5.6418

 eigenvalue-minimisations  :  7040
 total energy-change (2. order) : 0.1573843E+00  (-0.1237289E+00)
 number of electron     123.9999985 magnetization 
 augmentation part       -0.5966958 magnetization 

 Broyden mixing:
  rms(total) = 0.16404E+00    rms(broyden)= 0.16403E+00
  rms(prec ) = 0.29391E+00
  weight for this iteration     100.00

 eigenvalues of (default mixing * dielectric matrix)
  average eigenvalue GAMMA=   1.4039
  2.2934  0.9592  0.9592

 Free energy of the ion-electron system (eV)
  ---------------------------------------------------
  alpha Z        PSCENC =       136.79270014
  Ewald energy   TEWEN  =     -4199.04007303
  -Hartree energ DENC   =     -1285.98846957
  -exchange      EXHF   =         0.00000000
  -V(xc)+E(xc)   XCENC  =       113.22435541
  PAW double counting   =     15885.91563071   -15622.95272995
  entropy T*S    EENTRO =        -0.00403482
  eigenvalues    EBANDS =       -52.59009264
  atomic energy  EATOM  =      4822.75196862
  Solvation  Ediel_sol  =         0.00000000
  ---------------------------------------------------
  free energy    TOTEN  =      -201.89074513 eV

  energy without entropy =     -201.88671031  energy(sigma->0) =     -201.88973643


--------------------------------------------------------------------------------------------------------




--------------------------------------- Iteration      1(   9)  ---------------------------------------


    POTLOK:  cpu time    0.0354: real time    0.0372
    SETDIJ:  cpu time    0.0041: real time    0.0041
    EDDIAG:  cpu time    0.9127: real time    0.9126
  RMM-DIIS:  cpu time    4.2538: real time    4.2535
    ORTHCH:  cpu time    0.0956: real time    0.0956
       DOS:  cpu time    0.0037: real time    0.0037
    CHARGE:  cpu time    0.3161: real time    0.3161
    MIXING:  cpu time    0.0012: real time    0.0012
    --------------------------------------------
      LOOP:  cpu time    5.6226: real time    5.6239

 eigenvalue-minimisations  :  7041
 total energy-change (2. order) : 0.4474581E-01  (-0.7896066E-02)
 number of electron     123.9999985 magnetization 
 augmentation part       -0.6008571 magnetization 

 Broyden mixing:
  rms(total) = 0.79213E-01    rms(broyden)= 0.79208E-01
  rms(prec ) = 0.13564E+00
  weight for this iteration     100.00

 eigenvalues of (default mixing * dielectric matrix)
  average eigenvalue GAMMA=   1.3299
  2.3625  1.1505  1.1505  0.6561

 Free energy of the ion-electron system (eV)
  ---------------------------------------------------
  alpha Z        PSCENC =       136.79270014
  Ewald energy   TEWEN  =     -4199.04007303
  -Hartree energ DENC   =     -1291.96796881
  -exchange      EXHF   =         0.00000000
  -V(xc)+E(xc)   XCENC  =       113.80089584
  PAW double counting   =     16641.54560735   -16378.73876377
  entropy T*S    EENTRO =        -0.00971770
  eigenvalues    EBANDS =       -46.98064796
  atomic energy  EATOM  =      4822.75196862
  Solvation  Ediel_sol  =         0.00000000
  ---------------------------------------------------
  free energy    TOTEN  =      -201.84599932 eV

  energy without entropy =     -201.83628162  energy(sigma->0) =     -201.84356989


--------------------------------------------------------------------------------------------------------




--------------------------------------- Iteration      1(  10)  ---------------------------------------


    POTLOK:  cpu time    0.0365: real time    0.0383
    SETDIJ:  cpu time    0.0040: real time    0.0040
    EDDIAG:  cpu time    0.9123: real time    0.9126
  RMM-DIIS:  cpu time    4.3405: real time    4.3400
    ORTHCH:  cpu time    0.0942: real time    0.0941
       DOS:  cpu time    0.0038: real time    0.0038
    CHARGE:  cpu time    0.3159: real time    0.3159
    MIXING:  cpu time    0.0012: real time    0.0012
    --------------------------------------------
      LOOP:  cpu time    5.7083: real time    5.7099

 eigenvalue-minimisations  :  7040
 total energy-change (2. order) : 0.7344910E-02  (-0.1448767E-01)
 number of electron     123.9999985 magnetization 
 augmentation part       -0.6536194 magnetization 

 Broyden mixing:
  rms(total) = 0.51378E-01    rms(broyden)= 0.51345E-01
  rms(prec ) = 0.83787E-01
  weight for this iteration     100.00

 eigenvalues of (default mixing * dielectric matrix)
  average eigenvalue GAMMA=   1.4268
  2.2655  2.2655  1.0223  1.0223  0.5583

 Free energy of the ion-electron system (eV)
  ---------------------------------------------------
  alpha Z        PSCENC =       136.79270014
  Ewald energy   TEWEN  =     -4199.04007303
  -Hartree energ DENC   =     -1299.06162412
  -exchange      EXHF   =         0.00000000
  -V(xc)+E(xc)   XCENC  =       114.26758493
  PAW double counting   =     16753.51918115   -16490.74960991
  entropy T*S    EENTRO =        -0.00719886
  eigenvalues    EBANDS =       -40.31158332
  atomic energy  EATOM  =      4822.75196862
  Solvation  Ediel_sol  =         0.00000000
  ---------------------------------------------------
  free energy    TOTEN  =      -201.83865441 eV

  energy without entropy =     -201.83145554  energy(sigma->0) =     -201.83685469


--------------------------------------------------------------------------------------------------------




--------------------------------------- Iteration      1(  11)  ---------------------------------------


    POTLOK:  cpu time    0.0354: real time    0.0372
    SETDIJ:  cpu time    0.0040: real time    0.0040
    EDDIAG:  cpu time    0.9135: real time    0.9133
  RMM-DIIS:  cpu time    4.3894: real time    4.3888
    ORTHCH:  cpu time    0.0959: real time    0.0959
       DOS:  cpu time    0.0035: real time    0.0035
    CHARGE:  cpu time    0.3235: real time    0.3234
    MIXING:  cpu time    0.0013: real time    0.0013
    --------------------------------------------
      LOOP:  cpu time    5.7665: real time    5.7675

 eigenvalue-minimisations  :  7041
 total energy-change (2. order) : 0.1898629E-02  (-0.1040449E-02)
 number of electron     123.9999985 magnetization 
 augmentation part       -0.6466212 magnetization 

 Broyden mixing:
  rms(total) = 0.22302E-01    rms(broyden)= 0.22301E-01
  rms(prec ) = 0.41553E-01
  weight for this iteration     100.00

 eigenvalues of (default mixing * dielectric matrix)
  average eigenvalue GAMMA=   1.4452
  2.3934  2.3934  1.1824  1.0859  1.0859  0.5303

 Free energy of the ion-electron system (eV)
  ---------------------------------------------------
  alpha Z        PSCENC =       136.79270014
  Ewald energy   TEWEN  =     -4199.04007303
  -Hartree energ DENC   =     -1297.80715850
  -exchange      EXHF   =         0.00000000
  -V(xc)+E(xc)   XCENC  =       114.19078976
  PAW double counting   =     16631.98683726   -16369.18468258
  entropy T*S    EENTRO =        -0.00919052
  eigenvalues    EBANDS =       -41.51794694
  atomic energy  EATOM  =      4822.75196862
  Solvation  Ediel_sol  =         0.00000000
  ---------------------------------------------------
  free energy    TOTEN  =      -201.83675578 eV

  energy without entropy =     -201.82756526  energy(sigma->0) =     -201.83445815


--------------------------------------------------------------------------------------------------------




--------------------------------------- Iteration      1(  12)  ---------------------------------------


    POTLOK:  cpu time    0.0354: real time    0.0372
    SETDIJ:  cpu time    0.0041: real time    0.0045
    EDDIAG:  cpu time    0.9155: real time    0.9156
  RMM-DIIS:  cpu time    4.2671: real time    4.2673
    ORTHCH:  cpu time    0.0941: real time    0.0941
       DOS:  cpu time    0.0037: real time    0.0037
    CHARGE:  cpu time    0.3194: real time    0.3194
    MIXING:  cpu time    0.0012: real time    0.0012
    --------------------------------------------
      LOOP:  cpu time    5.6404: real time    5.6429

 eigenvalue-minimisations  :  7040
 total energy-change (2. order) : 0.5281777E-03  (-0.5142394E-03)
 number of electron     123.9999985 magnetization 
 augmentation part       -0.6403741 magnetization 

 Broyden mixing:
  rms(total) = 0.10533E-01    rms(broyden)= 0.10531E-01
  rms(prec ) = 0.26729E-01
  weight for this iteration     100.00

 eigenvalues of (default mixing * dielectric matrix)
  average eigenvalue GAMMA=   1.4771
  2.5396  2.5396  1.7897  1.0269  1.0269  0.9041  0.5131

 Free energy of the ion-electron system (eV)
  ---------------------------------------------------
  alpha Z        PSCENC =       136.79270014
  Ewald energy   TEWEN  =     -4199.04007303
  -Hartree energ DENC   =     -1297.09621709
  -exchange      EXHF   =         0.00000000
  -V(xc)+E(xc)   XCENC  =       114.15825074
  PAW double counting   =     16614.36638878   -16351.56261233
  entropy T*S    EENTRO =        -0.00823346
  eigenvalues    EBANDS =       -42.19839997
  atomic energy  EATOM  =      4822.75196862
  Solvation  Ediel_sol  =         0.00000000
  ---------------------------------------------------
  free energy    TOTEN  =      -201.83622760 eV

  energy without entropy =     -201.82799414  energy(sigma->0) =     -201.83416924


--------------------------------------------------------------------------------------------------------




--------------------------------------- Iteration      1(  13)  ---------------------------------------


    POTLOK:  cpu time    0.0355: real time    0.0381
    SETDIJ:  cpu time    0.0041: real time    0.0041
    EDDIAG:  cpu time    0.9207: real time    0.9209
  RMM-DIIS:  cpu time    3.6359: real time    3.6357
    ORTHCH:  cpu time    0.0935: real time    0.0934
       DOS:  cpu time    0.0039: real time    0.0039
    CHARGE:  cpu time    0.3233: real time    0.3233
    MIXING:  cpu time    0.0013: real time    0.0013
    --------------------------------------------
      LOOP:  cpu time    5.0182: real time    5.0208

 eigenvalue-minimisations  :  5829
 total energy-change (2. order) : 0.2196111E-03  (-0.5899056E-04)
 number of electron     123.9999985 magnetization 
 augmentation part       -0.6382807 magnetization 

 Broyden mixing:
  rms(total) = 0.30427E-02    rms(broyden)= 0.30387E-02
  rms(prec ) = 0.46394E-02
  weight for this iteration     100.00

 eigenvalues of (default mixing * dielectric matrix)
  average eigenvalue GAMMA=   1.4540
  2.7607  2.4577  1.7957  1.0517  1.0517  1.1129  0.8880  0.5131

 Free energy of the ion-electron system (eV)
  ---------------------------------------------------
  alpha Z        PSCENC =       136.79270014
  Ewald energy   TEWEN  =     -4199.04007303
  -Hartree energ DENC   =     -1297.12075072
  -exchange      EXHF   =         0.00000000
  -V(xc)+E(xc)   XCENC  =       114.16799776
  PAW double counting   =     16581.63125471   -16318.82569292
  entropy T*S    EENTRO =        -0.00883737
  eigenvalues    EBANDS =       -42.18457519
  atomic energy  EATOM  =      4822.75196862
  Solvation  Ediel_sol  =         0.00000000
  ---------------------------------------------------
  free energy    TOTEN  =      -201.83600799 eV

  energy without entropy =     -201.82717062  energy(sigma->0) =     -201.83379865


--------------------------------------------------------------------------------------------------------




--------------------------------------- Iteration      1(  14)  ---------------------------------------


    POTLOK:  cpu time    0.0366: real time    0.0367
    SETDIJ:  cpu time    0.0043: real time    0.0043
    EDDIAG:  cpu time    0.9148: real time    0.9147
  RMM-DIIS:  cpu time    2.7959: real time    2.7954
    ORTHCH:  cpu time    0.0933: real time    0.0933
       DOS:  cpu time    0.0039: real time    0.0039
    --------------------------------------------
      LOOP:  cpu time    3.8487: real time    3.8483

 eigenvalue-minimisations  :  4261
 total energy-change (2. order) : 0.1731327E-04  (-0.4942404E-05)
 number of electron     123.9999985 magnetization 
 augmentation part       -0.6382807 magnetization 

 Free energy of the ion-electron system (eV)
  ---------------------------------------------------
  alpha Z        PSCENC =       136.79270014
  Ewald energy   TEWEN  =     -4199.04007303
  -Hartree energ DENC   =     -1297.29035811
  -exchange      EXHF   =         0.00000000
  -V(xc)+E(xc)   XCENC  =       114.17871877
  PAW double counting   =     16579.08591916   -16316.28059825
  entropy T*S    EENTRO =        -0.00881531
  eigenvalues    EBANDS =       -42.02545267
  atomic energy  EATOM  =      4822.75196862
  Solvation  Ediel_sol  =         0.00000000
  ---------------------------------------------------
  free energy    TOTEN  =      -201.83599068 eV

  energy without entropy =     -201.82717536  energy(sigma->0) =     -201.83378685


--------------------------------------------------------------------------------------------------------




 average (electrostatic) potential at core
  the test charge radii are     0.7089  0.9892
  (the norm of the test charge is              1.0000)
       1 -61.7344       2 -61.7344       3 -61.7344       4 -61.7344       5 -61.7344
       6 -61.7344       7 -61.7344       8 -61.7344       9 -61.7344      10 -61.7344
      11 -61.7344      12 -61.7344      13 -82.9202      14 -82.9202      15 -82.9202
      16 -82.9202      17 -81.8203      18 -82.7550      19 -81.8203      20 -81.1960
      21 -82.7550      22 -82.9202      23 -82.9202      24 -81.1960      25 -82.7550
      26 -82.7550      27 -82.7550      28 -82.7550
 
 
 
 E-fermi :   7.3115     XC(G=0): -10.3972     alpha+bet :-13.6903


 k-point     1 :       0.0000    0.0000    0.0000
  band No.  band energies     occupation 
      1     -11.1747      2.00000
      2     -10.5244      2.00000
      3     -10.5244      2.00000
      4      -9.7186      2.00000
      5      -9.7186      2.00000
      6      -9.0450      2.00000
      7      -8.6848      2.00000
      8      -8.6525      2.00000
      9      -8.6525      2.00000
     10      -8.6106      2.00000
     11      -8.5428      2.00000
     12      -8.5428      2.00000
     13      -4.1683      2.00000
     14      -3.2446      2.00000
     15      -3.2446      2.00000
     16      -2.9412      2.00000
     17      -2.3156      2.00000
     18      -2.0492      2.00000
     19      -2.0492      2.00000
     20      -1.5723      2.00000
     21      -1.1246      2.00000
     22      -1.1246      2.00000
     23      -0.7982      2.00000
     24      -0.4909      2.00000
     25      -0.4909      2.00000
     26      -0.1421      2.00000
     27      -0.0827      2.00000
     28       0.5687      2.00000
     29       0.6771      2.00000
     30       0.6771      2.00000
     31       0.9149      2.00000
     32       1.3803      2.00000
     33       1.4340      2.00000
     34       1.4340      2.00000
     35       1.6440      2.00000
     36       1.6440      2.00000
     37       1.9884      2.00000
     38       2.0564      2.00000
     39       2.0564      2.00000
     40       2.3512      2.00000
     41       2.3512      2.00000
     42       3.1117      2.00000
     43       3.1117      2.00000
     44       3.1120      2.00000
     45       3.2408      2.00000
     46       3.2408      2.00000
     47       3.7588      2.00000
     48       3.8746      2.00000
     49       4.0821      2.00000
     50       4.1344      2.00000
     51       4.1344      2.00000
     52       4.5663      2.00000
     53       4.7422      2.00000
     54       4.8544      2.00000
     55       4.8544      2.00000
     56       5.2249      2.00000
     57       5.2249      2.00000
     58       5.8585      2.00000
     59       5.8585      2.00000
     60       6.3482      2.00000
     61       6.3482      2.00000
     62       6.9494      1.99998
     63       7.5645      0.00378
     64       9.0583      0.00000
     65       9.0583      0.00000
     66       9.8818      0.00000
     67       9.8818      0.00000
     68      10.0124      0.00000
     69      10.2494      0.00000
     70      10.2495      0.00000
     71      11.0565      0.00000
     72      11.1080      0.00000
     73      11.3303      0.00000
     74      11.3313      0.00000
     75      11.6017      0.00000
     76      11.9298      0.00000
     77      12.1139      0.00000
     78      12.2125      0.00000
     79      12.2763      0.00000
     80      12.2923      0.00000

 k-point     2 :       0.1667    0.0000    0.0000
  band No.  band energies     occupation 
      1     -11.1443      2.00000
      2     -10.5866      2.00000
      3     -10.5478      2.00000
      4      -9.6870      2.00000
      5      -9.6516      2.00000
      6      -9.0168      2.00000
      7      -8.8064      2.00000
      8      -8.6694      2.00000
      9      -8.6394      2.00000
     10      -8.6028      2.00000
     11      -8.5426      2.00000
     12      -8.5074      2.00000
     13      -4.0887      2.00000
     14      -3.2556      2.00000
     15      -3.1665      2.00000
     16      -2.8920      2.00000
     17      -2.3813      2.00000
     18      -2.1275      2.00000
     19      -2.0520      2.00000
     20      -1.7772      2.00000
     21      -1.3568      2.00000
     22      -1.0745      2.00000
     23      -0.8220      2.00000
     24      -0.5094      2.00000
     25      -0.3124      2.00000
     26      -0.0265      2.00000
     27       0.0850      2.00000
     28       0.5982      2.00000
     29       0.6051      2.00000
     30       0.6250      2.00000
     31       0.9676      2.00000
     32       1.2392      2.00000
     33       1.4389      2.00000
     34       1.4760      2.00000
     35       1.6519      2.00000
     36       1.6796      2.00000
     37       1.9893      2.00000
     38       2.0511      2.00000
     39       2.2263      2.00000
     40       2.3839      2.00000
     41       2.4080      2.00000
     42       2.9766      2.00000
     43       3.0294      2.00000
     44       3.1112      2.00000
     45       3.2823      2.00000
     46       3.3343      2.00000
     47       3.6968      2.00000
     48       3.7577      2.00000
     49       3.8846      2.00000
     50       4.2139      2.00000
     51       4.4023      2.00000
     52       4.5756      2.00000
     53       4.7143      2.00000
     54       4.8880      2.00000
     55       4.9417      2.00000
     56       5.1484      2.00000
     57       5.2180      2.00000
     58       5.7510      2.00000
     59       5.7939      2.00000
     60       6.2314      2.00000
     61       6.3382      2.00000
     62       6.9851      1.99984
     63       7.5007      0.00866
     64       9.1718      0.00000
     65       9.2388      0.00000
     66       9.8091      0.00000
     67       9.8582      0.00000
     68      10.1875      0.00000
     69      10.3199      0.00000
     70      10.4021      0.00000
     71      10.7657      0.00000
     72      11.1124      0.00000
     73      11.2129      0.00000
     74      11.5254      0.00000
     75      11.7174      0.00000
     76      11.8467      0.00000
     77      12.0066      0.00000
     78      12.1002      0.00000
     79      12.1311      0.00000
     80      12.3026      0.00000

 k-point     3 :       0.3333    0.0000    0.0000
  band No.  band energies     occupation 
      1     -11.0588      2.00000
      2     -10.7280      2.00000
      3     -10.5883      2.00000
      4      -9.6373      2.00000
      5      -9.4776      2.00000
      6      -9.0137      2.00000
      7      -8.9403      2.00000
      8      -8.7214      2.00000
      9      -8.6442      2.00000
     10      -8.5892      2.00000
     11      -8.5415      2.00000
     12      -8.4813      2.00000
     13      -3.8629      2.00000
     14      -3.2910      2.00000
     15      -3.0042      2.00000
     16      -2.8327      2.00000
     17      -2.5467      2.00000
     18      -2.2422      2.00000
     19      -2.1013      2.00000
     20      -2.0069      2.00000
     21      -1.7171      2.00000
     22      -0.9522      2.00000
     23      -0.8562      2.00000
     24      -0.6474      2.00000
     25      -0.1345      2.00000
     26       0.2082      2.00000
     27       0.2908      2.00000
     28       0.4516      2.00000
     29       0.6901      2.00000
     30       0.7436      2.00000
     31       1.0858      2.00000
     32       1.1480      2.00000
     33       1.3832      2.00000
     34       1.4300      2.00000
     35       1.5793      2.00000
     36       1.7461      2.00000
     37       1.9553      2.00000
     38       2.0798      2.00000
     39       2.3809      2.00000
     40       2.4659      2.00000
     41       2.5342      2.00000
     42       2.8567      2.00000
     43       2.8924      2.00000
     44       3.1084      2.00000
     45       3.2853      2.00000
     46       3.4834      2.00000
     47       3.6696      2.00000
     48       3.8081      2.00000
     49       3.8751      2.00000
     50       4.2442      2.00000
     51       4.3799      2.00000
     52       4.6098      2.00000
     53       4.6172      2.00000
     54       4.8321      2.00000
     55       4.9980      2.00000
     56       5.1470      2.00000
     57       5.2210      2.00000
     58       5.5515      2.00000
     59       5.6947      2.00000
     60       6.0192      2.00000
     61       6.3799      2.00000
     62       7.0736      1.99417
     63       7.3738      0.00724
     64       9.4034      0.00000
     65       9.6237      0.00000
     66       9.6969      0.00000
     67       9.8984      0.00000
     68      10.2488      0.00000
     69      10.5449      0.00000
     70      10.6213      0.00000
     71      10.6978      0.00000
     72      10.9301      0.00000
     73      11.2020      0.00000
     74      11.5192      0.00000
     75      11.6499      0.00000
     76      11.7639      0.00000
     77      11.7891      0.00000
     78      11.9546      0.00000
     79      12.0852      0.00000
     80      12.2330      0.00000

 k-point     4 :       0.5000    0.0000    0.0000
  band No.  band energies     occupation 
      1     -10.9717      2.00000
      2     -10.8401      2.00000
      3     -10.6063      2.00000
      4      -9.6173      2.00000
      5      -9.2523      2.00000
      6      -9.2476      2.00000
      7      -8.8709      2.00000
      8      -8.7780      2.00000
      9      -8.6468      2.00000
     10      -8.5826      2.00000
     11      -8.5404      2.00000
     12      -8.4773      2.00000
     13      -3.6338      2.00000
     14      -3.3933      2.00000
     15      -3.0294      2.00000
     16      -2.7945      2.00000
     17      -2.4718      2.00000
     18      -2.3392      2.00000
     19      -2.2210      2.00000
     20      -2.0231      2.00000
     21      -1.8891      2.00000
     22      -0.9106      2.00000
     23      -0.8355      2.00000
     24      -0.7453      2.00000
     25       0.0009      2.00000
     26       0.1327      2.00000
     27       0.3683      2.00000
     28       0.4598      2.00000
     29       0.7999      2.00000
     30       0.8566      2.00000
     31       0.9955      2.00000
     32       1.2544      2.00000
     33       1.3741      2.00000
     34       1.4478      2.00000
     35       1.4863      2.00000
     36       1.7949      2.00000
     37       1.8183      2.00000
     38       2.1045      2.00000
     39       2.3544      2.00000
     40       2.5075      2.00000
     41       2.6432      2.00000
     42       2.8080      2.00000
     43       2.9067      2.00000
     44       3.0277      2.00000
     45       3.2924      2.00000
     46       3.6077      2.00000
     47       3.7021      2.00000
     48       3.9107      2.00000
     49       4.0127      2.00000
     50       4.2128      2.00000
     51       4.2266      2.00000
     52       4.5151      2.00000
     53       4.6570      2.00000
     54       4.7380      2.00000
     55       4.9825      2.00000
     56       5.1331      2.00000
     57       5.1565      2.00000
     58       5.4722      2.00000
     59       5.8188      2.00000
     60       5.8548      2.00000
     61       6.4214      2.00000
     62       7.1493      2.00683
     63       7.2856      1.52013
     64       9.5720      0.00000
     65       9.5783      0.00000
     66       9.8607      0.00000
     67      10.0154      0.00000
     68      10.1172      0.00000
     69      10.5953      0.00000
     70      10.6772      0.00000
     71      10.6868      0.00000
     72      11.1040      0.00000
     73      11.1593      0.00000
     74      11.4472      0.00000
     75      11.5463      0.00000
     76      11.7075      0.00000
     77      11.7431      0.00000
     78      11.7764      0.00000
     79      12.0238      0.00000
     80      12.1502      0.00000

 k-point     5 :       0.1667    0.1667    0.0000
  band No.  band energies     occupation 
      1     -11.0859      2.00000
      2     -10.6765      2.00000
      3     -10.5922      2.00000
      4      -9.6161      2.00000
      5      -9.5624      2.00000
      6      -8.9633      2.00000
      7      -8.9559      2.00000
      8      -8.6913      2.00000
      9      -8.6526      2.00000
     10      -8.5924      2.00000
     11      -8.5404      2.00000
     12      -8.4877      2.00000
     13      -3.9340      2.00000
     14      -3.2522      2.00000
     15      -3.0700      2.00000
     16      -2.8430      2.00000
     17      -2.4761      2.00000
     18      -2.2825      2.00000
     19      -2.0482      2.00000
     20      -1.9839      2.00000
     21      -1.5668      2.00000
     22      -1.0587      2.00000
     23      -0.8373      2.00000
     24      -0.5837      2.00000
     25      -0.1967      2.00000
     26       0.1874      2.00000
     27       0.2682      2.00000
     28       0.4807      2.00000
     29       0.6245      2.00000
     30       0.7100      2.00000
     31       1.0823      2.00000
     32       1.1486      2.00000
     33       1.3694      2.00000
     34       1.5418      2.00000
     35       1.5444      2.00000
     36       1.7156      2.00000
     37       1.9790      2.00000
     38       2.0831      2.00000
     39       2.3790      2.00000
     40       2.4347      2.00000
     41       2.4409      2.00000
     42       2.8888      2.00000
     43       2.9234      2.00000
     44       3.1275      2.00000
     45       3.3260      2.00000
     46       3.3906      2.00000
     47       3.6544      2.00000
     48       3.7923      2.00000
     49       3.8694      2.00000
     50       4.3216      2.00000
     51       4.3682      2.00000
     52       4.5835      2.00000
     53       4.6534      2.00000
     54       4.9012      2.00000
     55       4.9872      2.00000
     56       5.0574      2.00000
     57       5.2419      2.00000
     58       5.5657      2.00000
     59       5.7332      2.00000
     60       6.1016      2.00000
     61       6.3526      2.00000
     62       7.0461      1.99751
     63       7.4082     -0.10320
     64       9.3636      0.00000
     65       9.4979      0.00000
     66       9.7545      0.00000
     67       9.8132      0.00000
     68      10.3344      0.00000
     69      10.4765      0.00000
     70      10.6102      0.00000
     71      10.6284      0.00000
     72      10.9695      0.00000
     73      11.2915      0.00000
     74      11.5152      0.00000
     75      11.6044      0.00000
     76      11.7600      0.00000
     77      11.8349      0.00000
     78      11.8808      0.00000
     79      12.1608      0.00000
     80      12.3880      0.00000

 k-point     6 :       0.3333    0.1667    0.0000
  band No.  band energies     occupation 
      1     -10.9844      2.00000
      2     -10.8051      2.00000
      3     -10.6350      2.00000
      4      -9.5555      2.00000
      5      -9.3923      2.00000
      6      -9.1695      2.00000
      7      -8.8791      2.00000
      8      -8.7401      2.00000
      9      -8.6665      2.00000
     10      -8.5826      2.00000
     11      -8.5340      2.00000
     12      -8.4873      2.00000
     13      -3.6640      2.00000
     14      -3.2817      2.00000
     15      -3.0588      2.00000
     16      -2.9067      2.00000
     17      -2.4867      2.00000
     18      -2.3213      2.00000
     19      -2.1641      2.00000
     20      -2.0337      2.00000
     21      -1.8359      2.00000
     22      -0.9821      2.00000
     23      -0.8446      2.00000
     24      -0.7325      2.00000
     25      -0.0447      2.00000
     26       0.2319      2.00000
     27       0.3555      2.00000
     28       0.4401      2.00000
     29       0.8123      2.00000
     30       0.8481      2.00000
     31       1.0690      2.00000
     32       1.2405      2.00000
     33       1.2980      2.00000
     34       1.4600      2.00000
     35       1.5555      2.00000
     36       1.7112      2.00000
     37       1.8459      2.00000
     38       2.1672      2.00000
     39       2.3642      2.00000
     40       2.4199      2.00000
     41       2.5568      2.00000
     42       2.7822      2.00000
     43       2.8231      2.00000
     44       3.1739      2.00000
     45       3.3135      2.00000
     46       3.6132      2.00000
     47       3.7559      2.00000
     48       3.9165      2.00000
     49       3.9506      2.00000
     50       4.2545      2.00000
     51       4.3607      2.00000
[...]
     33       1.1178      2.00000
     34       1.1403      2.00000
     35       1.4380      2.00000
     36       1.5193      2.00000
     37       1.5577      2.00000
     38       1.8012      2.00000
     39       1.8922      2.00000
     40       2.0527      2.00000
     41       2.5555      2.00000
     42       2.6254      2.00000
     43       2.6962      2.00000
     44       2.7419      2.00000
     45       3.1043      2.00000
     46       3.3792      2.00000
     47       3.4056      2.00000
     48       3.7598      2.00000
     49       3.7956      2.00000
     50       3.9297      2.00000
     51       4.3689      2.00000
     52       4.3869      2.00000
     53       4.9280      2.00000
     54       4.9318      2.00000
     55       5.1250      2.00000
     56       5.1491      2.00000
     57       5.7489      2.00000
     58       5.7636      2.00000
     59       5.8778      2.00000
     60       5.9122      2.00000
     61       7.2334      2.10190
     62       7.2559      2.07585
     63       7.4972     -0.00562
     64       7.5032     -0.00051
     65       9.8511      0.00000
     66       9.9215      0.00000
     67      10.1239      0.00000
     68      10.1793      0.00000
     69      10.8269      0.00000
     70      10.9034      0.00000
     71      10.9986      0.00000
     72      11.1802      0.00000
     73      11.3834      0.00000
     74      11.5116      0.00000
     75      11.5651      0.00000
     76      11.6423      0.00000
     77      11.8340      0.00000
     78      11.8621      0.00000
     79      11.9843      0.00000
     80      12.0874      0.00000

 k-point    43 :       0.3333    0.1667    0.5000
  band No.  band energies     occupation 
      1     -10.3961      2.00000
      2     -10.3957      2.00000
      3     -10.0503      2.00000
      4     -10.0443      2.00000
      5      -9.9962      2.00000
      6      -9.9853      2.00000
      7      -9.0514      2.00000
      8      -9.0339      2.00000
      9      -8.9915      2.00000
     10      -8.9794      2.00000
     11      -8.5244      2.00000
     12      -8.5237      2.00000
     13      -3.0323      2.00000
     14      -2.9983      2.00000
     15      -2.6234      2.00000
     16      -2.5718      2.00000
     17      -2.2761      2.00000
     18      -2.2297      2.00000
     19      -1.6574      2.00000
     20      -1.6339      2.00000
     21      -1.1379      2.00000
     22      -1.1245      2.00000
     23      -0.5129      2.00000
     24      -0.3077      2.00000
     25      -0.2446      2.00000
     26      -0.0764      2.00000
     27       0.0549      2.00000
     28       0.0960      2.00000
     29       0.2983      2.00000
     30       0.4882      2.00000
     31       0.7869      2.00000
     32       0.8390      2.00000
     33       0.9662      2.00000
     34       1.0924      2.00000
     35       1.3472      2.00000
     36       1.3753      2.00000
     37       1.4970      2.00000
     38       1.8796      2.00000
     39       2.0578      2.00000
     40       2.2376      2.00000
     41       2.6003      2.00000
     42       2.6231      2.00000
     43       2.7283      2.00000
     44       2.8083      2.00000
     45       3.2152      2.00000
     46       3.4430      2.00000
     47       3.7055      2.00000
     48       3.9051      2.00000
     49       4.0767      2.00000
     50       4.1730      2.00000
     51       4.3354      2.00000
     52       4.3794      2.00000
     53       4.6697      2.00000
     54       4.7180      2.00000
     55       5.0791      2.00000
     56       5.0921      2.00000
     57       5.5159      2.00000
     58       5.5331      2.00000
     59       5.7907      2.00000
     60       5.8418      2.00000
     61       7.3165      1.35817
     62       7.3367      0.93922
     63       7.4535     -0.07613
     64       7.4652     -0.05379
     65       9.7556      0.00000
     66       9.8111      0.00000
     67      10.1345      0.00000
     68      10.1934      0.00000
     69      10.5631      0.00000
     70      10.7609      0.00000
     71      11.0187      0.00000
     72      11.1464      0.00000
     73      11.3751      0.00000
     74      11.5850      0.00000
     75      11.6523      0.00000
     76      11.7467      0.00000
     77      11.8449      0.00000
     78      11.9140      0.00000
     79      12.1306      0.00000
     80      12.2027      0.00000

 k-point    44 :       0.3333    0.3333    0.5000
  band No.  band energies     occupation 
      1     -10.3833      2.00000
      2     -10.3833      2.00000
      3     -10.0400      2.00000
      4     -10.0400      2.00000
      5     -10.0317      2.00000
      6     -10.0093      2.00000
      7      -9.0315      2.00000
      8      -8.9988      2.00000
      9      -8.9988      2.00000
     10      -8.9908      2.00000
     11      -8.5336      2.00000
     12      -8.5336      2.00000
     13      -2.8868      2.00000
     14      -2.7303      2.00000
     15      -2.7256      2.00000
     16      -2.7256      2.00000
     17      -2.4020      2.00000
     18      -2.4020      2.00000
     19      -1.5448      2.00000
     20      -1.5076      2.00000
     21      -1.2384      2.00000
     22      -1.2384      2.00000
     23      -0.3431      2.00000
     24      -0.3431      2.00000
     25      -0.0737      2.00000
     26      -0.0737      2.00000
     27      -0.0671      2.00000
     28      -0.0067      2.00000
     29       0.3938      2.00000
     30       0.3938      2.00000
     31       0.8259      2.00000
     32       0.8259      2.00000
     33       0.9176      2.00000
     34       1.2150      2.00000
     35       1.2291      2.00000
     36       1.2291      2.00000
     37       1.3982      2.00000
     38       2.0352      2.00000
     39       2.0352      2.00000
     40       2.2987      2.00000
     41       2.6195      2.00000
     42       2.6195      2.00000
     43       2.8303      2.00000
     44       3.1391      2.00000
     45       3.1431      2.00000
     46       3.1431      2.00000
     47       3.9520      2.00000
     48       3.9520      2.00000
     49       4.0979      2.00000
     50       4.2559      2.00000
     51       4.2559      2.00000
     52       4.3599      2.00000
     53       4.6540      2.00000
     54       4.6540      2.00000
     55       5.0921      2.00000
     56       5.0921      2.00000
     57       5.4922      2.00000
     58       5.4922      2.00000
     59       5.6851      2.00000
     60       5.7529      2.00000
     61       7.3464      0.73702
     62       7.3556      0.55469
     63       7.4475     -0.08650
     64       7.4475     -0.08650
     65       9.7993      0.00000
     66       9.7993      0.00000
     67      10.1280      0.00000
     68      10.1280      0.00000
     69      10.3819      0.00000
     70      10.7035      0.00000
     71      11.0530      0.00000
     72      11.0530      0.00000
     73      11.5138      0.00000
     74      11.7324      0.00000
     75      11.7324      0.00000
     76      11.7868      0.00000
     77      11.9454      0.00000
     78      11.9454      0.00000
     79      12.0054      0.00000
     80      12.1547      0.00000


--------------------------------------------------------------------------------------------------------


 soft charge-density along one line, spin component           1
         0         1         2         3         4         5         6         7         8         9
 total charge-density along one line
 
 pseudopotential strength for first ion, spin component:           1
 12.496  14.979  -0.001  -0.001   0.001  -0.003  -0.002   0.002
 14.979  17.956  -0.001  -0.001   0.001  -0.004  -0.003   0.003
 -0.001  -0.001  -5.892   0.012  -0.015  -7.863   0.019  -0.024
 -0.001  -0.001   0.012  -5.903  -0.012   0.019  -7.879  -0.019
  0.001   0.001  -0.015  -0.012  -5.890  -0.024  -0.019  -7.859
 -0.003  -0.004  -7.863   0.019  -0.024  -9.779   0.029  -0.037
 -0.002  -0.003   0.019  -7.879  -0.019   0.029  -9.804  -0.030
  0.002   0.003  -0.024  -0.019  -7.859  -0.037  -0.030  -9.773
 total augmentation occupancy for first ion, spin component:           1
  7.438  -3.421   0.170   0.146  -0.151  -0.049  -0.044   0.047
 -3.421   1.696  -0.146  -0.121   0.129   0.033   0.030  -0.032
  0.170  -0.146   2.187  -0.093   0.129  -0.350   0.054  -0.069
  0.146  -0.121  -0.093   2.318   0.100   0.054  -0.401  -0.055
 -0.151   0.129   0.129   0.100   2.181  -0.069  -0.055  -0.340
 -0.049   0.033  -0.350   0.054  -0.069   0.066  -0.015   0.020
 -0.044   0.030   0.054  -0.401  -0.055  -0.015   0.080   0.014
  0.047  -0.032  -0.069  -0.055  -0.340   0.020   0.014   0.063


------------------------ aborting loop because EDIFF is reached ----------------------------------------


    CHARGE:  cpu time    0.3173: real time    0.3172
    FORLOC:  cpu time    0.0095: real time    0.0095
    FORNL :  cpu time    1.9848: real time    1.9845
    STRESS:  cpu time    7.9464: real time    7.9451
    FORCOR:  cpu time    0.6854: real time    0.6854
    FORHAR:  cpu time    0.2295: real time    0.2294
    MIXING:  cpu time    0.1863: real time    0.1863
    OFIELD:  cpu time    0.0000: real time    0.0000

  FORCE on cell =-STRESS in cart. coord.  units (eV):
  Direction    XX          YY          ZZ          XY          YZ          ZX
  --------------------------------------------------------------------------------------
  Alpha Z   136.79270   136.79270   136.79270
  Ewald   -1655.70438 -1655.70438  -876.27447     0.00000     0.00000     0.00000
  Hartree   313.34817   313.34817   678.46364    -0.00000    -0.00000    -0.00000
  E(xc)    -474.34550  -474.34549  -472.32644     0.00000     0.00000    -0.00000
  Local    -382.73401  -382.73331 -1465.97314     0.00000     0.00000    -0.00000
  n-local   435.81296   435.82500   431.40765     0.03175     0.02479     0.20782
  augment   -75.44253   -75.44312   -74.67801    -0.00000     0.00000     0.00000
  Kinetic  1703.26678  1704.50428  1634.81158     0.14814     0.28621    -0.45520
  Fock        0.00000     0.00000     0.00000     0.00000     0.00000     0.00000
  -------------------------------------------------------------------------------------
  Total       1.61902     1.61902    -7.77648     0.00000     0.00000     0.00000
  in kB       7.27685     7.27685   -34.95217     0.00000     0.00000     0.00000
  external pressure =       -6.80 kB  Pullay stress =        0.00 kB


 VOLUME and BASIS-vectors are now :
 -----------------------------------------------------------------------------
  energy-cutoff  :      400.00
  volume of cell :      356.47
      direct lattice vectors                 reciprocal lattice vectors
     4.314231723 -7.472468540  0.000000000     0.115895490 -0.066912292  0.000000000
     4.314231723  7.472468540  0.000000000     0.115895490  0.066912292  0.000000000
     0.000000000  0.000000000  5.528687807     0.000000000  0.000000000  0.180874745

  length of vectors
     8.628463446  8.628463446  5.528687807     0.133824585  0.133824585  0.180874745


 FORCES acting on ions
    electron-ion (+dipol)            ewald-force                    non-local-force                 convergence-correction
 -----------------------------------------------------------------------------------------------
   -.360E+02 -.107E+02 0.771E+01   0.393E+02 0.685E+01 -.106E+02   -.330E+01 0.384E+01 0.291E+01   -.840E-02 -.136E-01 -.499E-02
   0.876E+01 0.365E+02 0.771E+01   -.137E+02 -.375E+02 -.106E+02   0.497E+01 0.937E+00 0.291E+01   -.761E-02 0.141E-01 -.499E-02
   0.160E+02 0.185E+02 0.139E+02   -.176E+02 -.167E+02 -.163E+02   0.157E+01 -.177E+01 0.240E+01   0.217E-02 0.140E-01 0.760E-02
   -.360E+02 0.107E+02 0.771E+01   0.393E+02 -.685E+01 -.106E+02   -.330E+01 -.384E+01 0.291E+01   -.840E-02 0.136E-01 -.499E-02
   0.802E+01 0.231E+02 0.139E+02   -.570E+01 -.236E+02 -.163E+02   -.232E+01 0.476E+00 0.240E+01   0.111E-01 0.891E-02 0.760E-02
   0.160E+02 -.185E+02 0.139E+02   -.176E+02 0.167E+02 -.163E+02   0.157E+01 0.177E+01 0.240E+01   0.217E-02 -.140E-01 0.760E-02
   0.273E+02 -.258E+02 0.771E+01   -.256E+02 0.306E+02 -.106E+02   -.167E+01 -.477E+01 0.291E+01   0.160E-01 -.454E-03 -.499E-02
   -.240E+02 -.462E+01 0.139E+02   0.233E+02 0.686E+01 -.163E+02   0.749E+00 -.225E+01 0.240E+01   -.133E-01 0.514E-02 0.760E-02
   0.876E+01 -.365E+02 0.771E+01   -.137E+02 0.375E+02 -.106E+02   0.497E+01 -.937E+00 0.291E+01   -.761E-02 -.141E-01 -.499E-02
   0.273E+02 0.258E+02 0.771E+01   -.256E+02 -.306E+02 -.106E+02   -.167E+01 0.477E+01 0.291E+01   0.160E-01 0.454E-03 -.499E-02
   -.240E+02 0.462E+01 0.139E+02   0.233E+02 -.686E+01 -.163E+02   0.749E+00 0.225E+01 0.240E+01   -.133E-01 -.514E-02 0.760E-02
   0.802E+01 -.231E+02 0.139E+02   -.570E+01 0.236E+02 -.163E+02   -.232E+01 -.476E+00 0.240E+01   0.111E-01 -.891E-02 0.760E-02
   0.719E+02 0.103E+02 0.533E+01   -.732E+02 -.120E+02 -.560E+01   0.133E+01 0.172E+01 0.264E+00   0.161E-01 0.326E-02 0.321E-03
   -.270E+02 -.674E+02 0.533E+01   0.262E+02 0.694E+02 -.560E+01   0.823E+00 -.201E+01 0.264E+00   -.523E-02 -.156E-01 0.321E-03
   0.719E+02 -.103E+02 0.533E+01   -.732E+02 0.120E+02 -.560E+01   0.133E+01 -.172E+01 0.264E+00   0.161E-01 -.326E-02 0.321E-03
   -.449E+02 0.571E+02 0.533E+01   0.470E+02 -.574E+02 -.560E+01   -.216E+01 0.295E+00 0.264E+00   -.109E-01 0.123E-01 0.321E-03
   -.343E-06 0.243E-06 0.115E+01   -.488E-14 -.191E-12 -.842E+00   0.271E-17 -.180E-17 -.281E+00   -.602E-07 0.175E-07 -.755E-03
   -.181E+02 0.380E+02 -.199E+02   0.233E+02 -.392E+02 0.211E+02   -.519E+01 0.114E+01 -.128E+01   0.489E-02 0.307E-02 0.356E-03
   -.343E-06 -.243E-06 0.115E+01   0.888E-15 0.207E-12 -.842E+00   0.851E-17 -.341E-17 -.281E+00   -.602E-07 -.175E-07 -.755E-03
   -.835E-06 -.150E-07 -.397E+02   -.235E-11 -.521E-11 0.349E+02   -.903E-18 -.205E-18 0.473E+01   -.156E-07 0.202E-07 0.253E-02
   -.239E+02 0.347E+02 -.199E+02   0.223E+02 -.397E+02 0.211E+02   0.161E+01 0.506E+01 -.128E+01   -.510E-02 -.269E-02 0.356E-03
   -.270E+02 0.674E+02 0.533E+01   0.262E+02 -.694E+02 -.560E+01   0.823E+00 0.201E+01 0.264E+00   -.523E-02 0.156E-01 0.321E-03
   -.449E+02 -.571E+02 0.533E+01   0.470E+02 0.574E+02 -.560E+01   -.216E+01 -.295E+00 0.264E+00   -.109E-01 -.123E-01 0.321E-03
   -.835E-06 0.150E-07 -.397E+02   0.165E-11 0.834E-11 0.349E+02   -.290E-17 0.353E-17 0.473E+01   -.156E-07 -.202E-07 0.253E-02
   0.420E+02 0.332E+01 -.199E+02   -.456E+02 0.593E+00 0.211E+02   0.358E+01 -.392E+01 -.128E+01   0.219E-03 0.577E-02 0.355E-03
   0.420E+02 -.332E+01 -.199E+02   -.456E+02 -.593E+00 0.211E+02   0.358E+01 0.392E+01 -.128E+01   0.219E-03 -.577E-02 0.355E-03
   -.239E+02 -.347E+02 -.199E+02   0.223E+02 0.397E+02 0.211E+02   0.161E+01 -.506E+01 -.128E+01   -.510E-02 0.269E-02 0.356E-03
   -.181E+02 -.380E+02 -.199E+02   0.233E+02 0.392E+02 0.211E+02   -.519E+01 -.114E+01 -.128E+01   0.489E-02 -.307E-02 0.356E-03
 -----------------------------------------------------------------------------------------------
   0.421E-05 0.227E-09 -.347E+02   0.604E-13 0.142E-13 -.391E-13   0.000E+00 -.155E-14 0.347E+02   -.842E-06 -.343E-11 0.233E-01
 
 
 POSITION                                       TOTAL-FORCE (eV/Angst)
 -----------------------------------------------------------------------------------
      2.82101      4.79029      1.19408         0.014293     -0.006491     -0.007177
      7.05224      2.63426      1.19408        -0.012768     -0.009132     -0.007177
      5.33733     -4.43042      5.48351         0.011612      0.011401      0.001321
      2.82101     -4.79029      3.95843         0.014293      0.006491     -0.007177
      2.12294      2.40706      2.71917         0.004067      0.015757      0.001321
      5.33733      4.43042      2.71917         0.011612     -0.011401      0.001321
      3.06945      0.04792      1.19408        -0.001525      0.015623     -0.007177
      5.48242      0.63500      2.71917        -0.015680     -0.004356      0.001321
      7.05224     -2.63426      3.95843        -0.012768      0.009132     -0.007177
      3.06945     -0.04792      3.95843        -0.001525     -0.015623     -0.007177
      5.48242     -0.63500      5.48351        -0.015680      0.004356      0.001321
      2.12294     -2.40706      5.48351         0.004067     -0.015757      0.001321
      2.21452      0.65362      2.58896         0.000624      0.020165      0.002712
      3.77302      5.22783      2.58896         0.017151     -0.010623      0.002712
      2.21452     -0.65362      5.35330         0.000624     -0.020165      0.002712
      6.95515      1.59102      2.58896        -0.017776     -0.009542      0.002712
      0.00000      0.00000      5.30567         0.000000      0.000000      0.026203
      2.36886      3.13117      4.31722        -0.001719     -0.014436     -0.003372
      0.00000      0.00000      2.54132         0.000000      0.000000      0.026203
      4.31423     -2.49082      2.57408         0.000000      0.000000     -0.006655
      4.73236     -0.48591      1.55287         0.013361     -0.005730     -0.003372
      3.77302     -5.22783      5.35330         0.017151      0.010623      0.002712
      6.95515     -1.59102      5.35330        -0.017776      0.009542      0.002712
      4.31423      2.49082      5.33842         0.000000      0.000000     -0.006655
      5.84147     -3.85539      1.55287        -0.011643     -0.008707     -0.003372
      5.84147      3.85539      4.31722        -0.011643      0.008707     -0.003372
      4.73236      0.48591      4.31722         0.013361      0.005730     -0.003372
      2.36886     -3.13117      1.55287        -0.001719      0.014436     -0.003372
 -----------------------------------------------------------------------------------
    total drift:                                0.000003      0.000000     -0.018045


--------------------------------------------------------------------------------------------------------



  FREE ENERGIE OF THE ION-ELECTRON SYSTEM (eV)
  ---------------------------------------------------
  free  energy   TOTEN  =      -201.86967470 eV

  energy  without entropy=     -201.86093428  energy(sigma->0) =     -201.86748959
 
 d Force = 0.1204378E-05[ 0.973E-06, 0.144E-05]  d Energy =-0.2082044E-04 0.220E-04
 d Force = 0.1606664E-01[ 0.161E-01, 0.161E-01]  d Ewald  = 0.1606664E-01-0.628E-10


--------------------------------------------------------------------------------------------------------


    POTLOK:  cpu time    1.1079: real time    1.1078


--------------------------------------------------------------------------------------------------------




--------------------------------------------------------------------------------------------------------


  
 reached required accuracy - stopping structural energy minimisation
     LOOP+:  cpu time   22.9663: real time   22.9732
    4ORBIT:  cpu time    0.0000: real time    0.0000

 total amount of memory used by VASP MPI-rank0    66664. kBytes
=======================================================================

   base      :      30000. kBytes
   nonlr-proj:       5609. kBytes
   fftplans  :       2790. kBytes
   grid      :       4365. kBytes
   one-center:         21. kBytes
   wavefun   :      23879. kBytes
 
  
  
 General timing and accounting informations for this job:
 ========================================================
  
                  Total CPU time used (sec):      482.282
                            User time (sec):      481.091
                          System time (sec):        1.191
                         Elapsed time (sec):      493.509
  
                   Maximum memory used (kb):       91740.
                   Average memory used (kb):           0.
  
                          Minor page faults:       264422
                          Major page faults:            0
                 Voluntary context switches:         8571
