<?xml version="1.0" encoding="ISO-8859-1"?>
<modeling>
 <generator>
  <i name="program" type="string">vasp </i>
  <i name="version" type="string">5.4.4.18Apr17-6-g9f103f2a35  </i>
  <i name="subversion" type="string">(build Nov 01 2019 12:17:22) complex            parallel </i>
  <i name="platform" type="string">LinuxIFC </i>
  <i name="date" type="string">2023 05 19 </i>
  <i name="time" type="string">18:21:58 </i>
 </generator>
 <incar>
  <i type="string" name="PREC">accurate</i>
  <i type="string" name="ALGO"> Fast</i>
  <i type="int" name="IBRION">     2</i>
  <i type="int" name="NSW">   100</i>
  <i type="int" name="ISIF">     2</i>
  <i type="string" name="LREAL"> Auto</i>
  <i type="int" name="ISMEAR">     2</i>
  <i name="SIGMA">      0.10000000</i>
  <i type="logical" name="LWAVE"> F  </i>
  <i type="logical" name="LCHARG"> F  </i>
  <v type="int" name="KPOINT_BSE">    -1     0     0     0</v>
 </incar>
 <structure name="primitive_cell" >
  <crystal>
   <varray name="basis" >
    <v>       4.31423172      -7.47246854       0.00000000 </v>
    <v>       4.31423172       7.47246854       0.00000000 </v>
    <v>       0.00000000       0.00000000       5.52868781 </v>
   </varray>
   <i name="volume">    356.46724185 </i>
   <varray name="rec_basis" >
    <v>       0.11589549      -0.06691229       0.00000000 </v>
    <v>       0.11589549       0.06691229       0.00000000 </v>
    <v>       0.00000000       0.00000000       0.18087475 </v>
   </varray>
  </crystal>
  <varray name="positions" >
   <v>       0.00847736      -0.35287377       0.21326215 </v>
   <v>       0.08729345      -0.21311138       0.46674092 </v>
   <v>      -0.08729345      -0.30040483      -0.03325908 </v>
   <v>      -0.06686359       0.41763405       0.28259872 </v>
   <v>      -0.00847736      -0.36135113      -0.28673785 </v>
   <v>      -0.08582195       0.32157747      -0.00812732 </v>
   <v>       0.08582195       0.40739942       0.49187268 </v>
   <v>      -0.32157747      -0.40739942      -0.00812732 </v>
   <v>       0.06686359       0.48449764      -0.21740128 </v>
   <v>       0.32157747      -0.08582195       0.49187268 </v>
   <v>       0.33333333      -0.33333333      -0.02422298 </v>
   <v>      -0.33333333       0.33333333       0.47577702 </v>
   <v>      -0.41763405      -0.48449764       0.28259872 </v>
   <v>       0.00000000       0.00000000       0.45692726 </v>
   <v>       0.00000000       0.00000000      -0.04307274 </v>
   <v>       0.40739942       0.08582195      -0.00812732 </v>
   <v>       0.48449764       0.06686359       0.28259872 </v>
   <v>       0.41763405      -0.06686359      -0.21740128 </v>
   <v>      -0.40739942      -0.32157747       0.49187268 </v>
   <v>       0.21311138       0.30040483       0.46674092 </v>
   <v>      -0.21311138       0.08729345      -0.03325908 </v>
   <v>       0.30040483       0.21311138      -0.03325908 </v>
   <v>      -0.30040483      -0.08729345       0.46674092 </v>
   <v>      -0.48449764      -0.41763405      -0.21740128 </v>
   <v>       0.35287377       0.36135113       0.21326215 </v>
   <v>      -0.36135113      -0.00847736       0.21326215 </v>
   <v>      -0.35287377       0.00847736      -0.28673785 </v>
   <v>       0.36135113       0.35287377      -0.28673785 </v>
  </varray>
 </structure>
 <varray name="primitive_index" >
  <v type="int" >        1 </v>
  <v type="int" >       14 </v>
  <v type="int" >       23 </v>
  <v type="int" >       25 </v>
  <v type="int" >        9 </v>
  <v type="int" >        3 </v>
  <v type="int" >        5 </v>
  <v type="int" >       11 </v>
  <v type="int" >       18 </v>
  <v type="int" >        6 </v>
  <v type="int" >       24 </v>
  <v type="int" >       20 </v>
  <v type="int" >       21 </v>
  <v type="int" >       19 </v>
  <v type="int" >       17 </v>
  <v type="int" >       12 </v>
  <v type="int" >       28 </v>
  <v type="int" >       26 </v>
  <v type="int" >        8 </v>
  <v type="int" >       13 </v>
  <v type="int" >       22 </v>
  <v type="int" >       15 </v>
  <v type="int" >       16 </v>
  <v type="int" >       27 </v>
  <v type="int" >        7 </v>
  <v type="int" >        2 </v>
  <v type="int" >        4 </v>
  <v type="int" >       10 </v>
 </varray>
 <kpoints>
  <generation param="Auto">
   <i name="subdivisionlength">     45.00000000 </i>
   <v type="int" name="divisions">       6        6        8 </v>
   <v name="usershift">      0.00000000       0.00000000       0.00000000 </v>
   <v name="genvec1">      0.16666667       0.00000000       0.00000000 </v>
   <v name="genvec2">      0.00000000       0.16666667       0.00000000 </v>
   <v name="genvec3">      0.00000000       0.00000000       0.12500000 </v>
   <v name="shift">      0.00000000       0.00000000       0.00000000 </v>
  </generation>
  <varray name="kpointlist" >
   <v>       0.00000000       0.00000000       0.00000000 </v>
   <v>       0.16666667       0.00000000       0.00000000 </v>
   <v>       0.33333333       0.00000000       0.00000000 </v>
   <v>       0.50000000       0.00000000       0.00000000 </v>
   <v>       0.16666667       0.16666667       0.00000000 </v>
   <v>       0.33333333       0.16666667       0.00000000 </v>
   <v>       0.33333333       0.33333333       0.00000000 </v>
   <v>       0.00000000       0.00000000       0.12500000 </v>
   <v>       0.16666667       0.00000000       0.12500000 </v>
   <v>       0.33333333       0.00000000       0.12500000 </v>
   <v>       0.50000000       0.00000000       0.12500000 </v>
   <v>       0.16666667       0.16666667       0.12500000 </v>
   <v>       0.33333333       0.16666667       0.12500000 </v>
   <v>       0.33333333       0.33333333       0.12500000 </v>
   <v>      -0.16666667       0.33333333       0.12500000 </v>
   <v>      -0.33333333       0.50000000       0.12500000 </v>
   <v>      -0.33333333      -0.33333333       0.12500000 </v>
   <v>       0.00000000       0.00000000       0.25000000 </v>
   <v>       0.16666667       0.00000000       0.25000000 </v>
   <v>       0.33333333       0.00000000       0.25000000 </v>
   <v>       0.50000000       0.00000000       0.25000000 </v>
   <v>       0.16666667       0.16666667       0.25000000 </v>
   <v>       0.33333333       0.16666667       0.25000000 </v>
   <v>       0.33333333       0.33333333       0.25000000 </v>
   <v>      -0.16666667       0.33333333       0.25000000 </v>
   <v>      -0.33333333       0.50000000       0.25000000 </v>
   <v>      -0.33333333      -0.33333333       0.25000000 </v>
   <v>       0.00000000       0.00000000       0.37500000 </v>
   <v>       0.16666667       0.00000000       0.37500000 </v>
   <v>       0.33333333       0.00000000       0.37500000 </v>
   <v>       0.50000000       0.00000000       0.37500000 </v>
   <v>       0.16666667       0.16666667       0.37500000 </v>
   <v>       0.33333333       0.16666667       0.37500000 </v>
   <v>       0.33333333       0.33333333       0.37500000 </v>
   <v>      -0.16666667       0.33333333       0.37500000 </v>
   <v>      -0.33333333       0.50000000       0.37500000 </v>
   <v>      -0.33333333      -0.33333333       0.37500000 </v>
   <v>       0.00000000       0.00000000       0.50000000 </v>
   <v>       0.16666667       0.00000000       0.50000000 </v>
   <v>       0.33333333       0.00000000       0.50000000 </v>
   <v>       0.50000000       0.00000000       0.50000000 </v>
   <v>       0.16666667       0.16666667       0.50000000 </v>
   <v>       0.33333333       0.16666667       0.50000000 </v>
   <v>       0.33333333       0.33333333       0.50000000 </v>
  </varray>
  <varray name="weights" >
   <v>       0.00347222 </v>
   <v>       0.02083333 </v>
   <v>       0.02083333 </v>
   <v>       0.01041667 </v>
   <v>       0.02083333 </v>
   <v>       0.04166667 </v>
   <v>       0.00694444 </v>
   <v>       0.00694444 </v>
   <v>       0.04166667 </v>
   <v>       0.04166667 </v>
   <v>       0.02083333 </v>
   <v>       0.02083333 </v>
   <v>       0.04166667 </v>
   <v>       0.00694444 </v>
   <v>       0.02083333 </v>
   <v>       0.04166667 </v>
   <v>       0.00694444 </v>
   <v>       0.00694444 </v>
   <v>       0.04166667 </v>
   <v>       0.04166667 </v>
   <v>       0.02083333 </v>
   <v>       0.02083333 </v>
   <v>       0.04166667 </v>
   <v>       0.00694444 </v>
   <v>       0.02083333 </v>
   <v>       0.04166667 </v>
   <v>       0.00694444 </v>
   <v>       0.00694444 </v>
   <v>       0.04166667 </v>
   <v>       0.04166667 </v>
   <v>       0.02083333 </v>
   <v>       0.02083333 </v>
   <v>       0.04166667 </v>
   <v>       0.00694444 </v>
   <v>       0.02083333 </v>
   <v>       0.04166667 </v>
   <v>       0.00694444 </v>
   <v>       0.00347222 </v>
   <v>       0.02083333 </v>
   <v>       0.02083333 </v>
   <v>       0.01041667 </v>
   <v>       0.02083333 </v>
   <v>       0.04166667 </v>
   <v>       0.00694444 </v>
  </varray>
 </kpoints>
 <parameters>
  <separator name="general" >
   <i type="string" name="SYSTEM">unknown system</i>
   <i type="logical" name="LCOMPAT"> F  </i>
  </separator>
  <separator name="electronic" >
   <i type="string" name="PREC">accura</i>
   <i name="ENMAX">    400.00000000</i>
   <i name="ENAUG">    627.11200000</i>
   <i name="EDIFF">      0.00010000</i>
   <i type="int" name="IALGO">    68</i>
   <i type="int" name="IWAVPR">    11</i>
   <i type="int" name="NBANDS">    80</i>
   <i name="NELECT">    124.00000000</i>
   <i type="int" name="TURBO">     0</i>
   <i type="int" name="IRESTART">     0</i>
   <i type="int" name="NREBOOT">     0</i>
   <i type="int" name="NMIN">     0</i>
   <i name="EREF">      0.00000000</i>
   <separator name="electronic smearing" >
    <i type="int" name="ISMEAR">     2</i>
    <i name="SIGMA">      0.10000000</i>
    <i name="KSPACING">      0.50000000</i>
    <i type="logical" name="KGAMMA"> T  </i>
   </separator>
   <separator name="electronic projectors" >
    <i type="logical" name="LREAL"> T  </i>
    <v name="ROPT">     -0.00025000     -0.00025000</v>
    <i type="int" name="LMAXPAW">  -100</i>
    <i type="int" name="LMAXMIX">     2</i>
    <i type="logical" name="NLSPLINE"> F  </i>
   </separator>
   <separator name="electronic startup" >
    <i type="int" name="ISTART">     0</i>
    <i type="int" name="ICHARG">     2</i>
    <i type="int" name="INIWAV">     1</i>
   </separator>
   <separator name="electronic spin" >
    <i type="int" name="ISPIN">     1</i>
    <i type="logical" name="LNONCOLLINEAR"> F  </i>
    <v name="MAGMOM">      1.00000000      1.00000000      1.00000000      1.00000000      1.00000000      1.00000000      1.00000000      1.00000000      1.00000000      1.00000000      1.00000000      1.00000000      1.00000000      1.00000000      1.00000000      1.00000000      1.00000000      1.00000000      1.00000000      1.00000000
      1.00000000      1.00000000      1.00000000      1.00000000      1.00000000      1.00000000      1.00000000      1.00000000</v>
    <i name="NUPDOWN">     -1.00000000</i>
    <i type="logical" name="LSORBIT"> F  </i>
    <v name="SAXIS">      0.00000000      0.00000000      1.00000000</v>
    <i type="logical" name="LSPIRAL"> F  </i>
    <v name="QSPIRAL">      0.00000000      0.00000000      0.00000000</v>
    <i type="logical" name="LZEROZ"> F  </i>
   </separator>
   <separator name="electronic exchange-correlation" >
    <i type="logical" name="LASPH"> F  </i>
    <i type="logical" name="LMETAGGA"> F  </i>
   </separator>
   <separator name="electronic convergence" >
    <i type="int" name="NELM">    60</i>
    <i type="int" name="NELMDL">    -5</i>
    <i type="int" name="NELMIN">     2</i>
    <i name="ENINI">    400.00000000</i>
    <separator name="electronic convergence detail" >
     <i type="logical" name="LDIAG"> T  </i>
     <i type="logical" name="LSUBROT"> F  </i>
     <i name="WEIMIN">      0.00100000</i>
     <i name="EBREAK">      0.00000031</i>
     <i name="DEPER">      0.30000000</i>
     <i type="int" name="NRMM">     4</i>
     <i name="TIME">      0.40000000</i>
    </separator>
   </separator>
   <separator name="electronic mixer" >
    <i name="AMIX">      0.40000000</i>
    <i name="BMIX">      1.00000000</i>
    <i name="AMIN">      0.10000000</i>
    <i name="AMIX_MAG">      1.60000000</i>
    <i name="BMIX_MAG">      1.00000000</i>
    <separator name="electronic mixer details" >
     <i type="int" name="IMIX">     4</i>
     <i type="logical" name="MIXFIRST"> F  </i>
     <i type="int" name="MAXMIX">   -45</i>
     <i name="WC">    100.00000000</i>
     <i type="int" name="INIMIX">     1</i>
     <i type="int" name="MIXPRE">     1</i>
     <i type="int" name="MREMOVE">     5</i>
    </separator>
   </separator>
   <separator name="electronic dipolcorrection" >
    <i type="logical" name="LDIPOL"> F  </i>
    <i type="logical" name="LMONO"> F  </i>
    <i type="int" name="IDIPOL">     0</i>
    <i name="EPSILON">      1.00000000</i>
    <v name="DIPOL">   -100.00000000   -100.00000000   -100.00000000</v>
    <i name="EFIELD">      0.00000000</i>
   </separator>
  </separator>
  <separator name="grids" >
   <i type="int" name="NGX">    56</i>
   <i type="int" name="NGY">    56</i>
   <i type="int" name="NGZ">    36</i>
   <i type="int" name="NGXF">   112</i>
   <i type="int" name="NGYF">   112</i>
   <i type="int" name="NGZF">    72</i>
   <i type="logical" name="ADDGRID"> F  </i>
  </separator>
  <separator name="ionic" >
   <i type="int" name="NSW">   100</i>
   <i type="int" name="IBRION">     2</i>
   <i type="int" name="MDALGO">     0</i>
   <i type="int" name="ISIF">     2</i>
   <i name="PSTRESS">      0.00000000</i>
   <i name="EDIFFG">      0.00100000</i>
   <i type="int" name="NFREE">     1</i>
   <i name="POTIM">      0.50000000</i>
   <i name="SMASS">     -3.00000000</i>
   <i name="SCALEE">      1.00000000</i>
  </separator>
  <separator name="ionic md" >
   <i name="TEBEG">      0.00010000</i>
   <i name="TEEND">      0.00010000</i>
   <i type="int" name="NBLOCK">     1</i>
   <i type="int" name="KBLOCK">   100</i>
   <i type="int" name="NPACO">   256</i>
   <i name="APACO">     16.00000000</i>
  </separator>
  <separator name="symmetry" >
   <i type="int" name="ISYM">     2</i>
   <i name="SYMPREC">      0.00001000</i>
  </separator>
  <separator name="dos" >
   <i type="int" name="LORBIT">     0</i>
   <v name="RWIGS">     -1.00000000     -1.00000000</v>
   <i type="int" name="NEDOS">   301</i>
   <i name="EMIN">     10.00000000</i>
   <i name="EMAX">    -10.00000000</i>
   <i name="EFERMI">      0.00000000</i>
  </separator>
  <separator name="writing" >
   <i type="int" name="NWRITE">     2</i>
   <i type="logical" name="LWAVE"> F  </i>
   <i type="logical" name="LDOWNSAMPLE"> F  </i>
   <i type="logical" name="LCHARG"> F  </i>
   <i type="logical" name="LPARD"> F  </i>
   <i type="logical" name="LVTOT"> F  </i>
   <i type="logical" name="LVHAR"> F  </i>
   <i type="logical" name="LELF"> F  </i>
   <i type="logical" name="LOPTICS"> F  </i>
   <v name="STM">      0.00000000      0.00000000      0.00000000      0.00000000      0.00000000      0.00000000      0.00000000</v>
  </separator>
  <separator name="performance" >
   <i type="int" name="NPAR">     4</i>
   <i type="int" name="NSIM">     4</i>
   <i type="int" name="NBLK">    -1</i>
   <i type="logical" name="LPLANE"> T  </i>
   <i type="logical" name="LSCALAPACK"> F  </i>
   <i type="logical" name="LSCAAWARE"> F  </i>
   <i type="logical" name="LSCALU"> F  </i>
   <i type="logical" name="LASYNC"> F  </i>
   <i type="logical" name="LORBITALREAL"> F  </i>
  </separator>
  <separator name="miscellaneous" >
   <i type="int" name="IDIOT">     3</i>
   <i type="int" name="ISPECIAL">     0</i>
   <i type="logical" name="LMUSIC"> F  </i>
   <v name="POMASS">     14.00100000     28.08500000</v>
   <v name="DARWINR">      0.00000000      0.00000000</v>
   <v name="DARWINV">      1.00000000      1.00000000</v>
   <i type="logical" name="LCORR"> T  </i>
  </separator>
  <i type="logical" name="GGA_COMPAT"> T  </i>
  <i type="logical" name="LBERRY"> F  </i>
  <i type="int" name="ICORELEVEL">     0</i>
  <i type="logical" name="LDAU"> F  </i>
  <i type="int" name="I_CONSTRAINED_M">     0</i>
  <separator name="electronic exchange-correlation" >
   <i type="string" name="GGA">--</i>
   <i type="int" name="VOSKOWN">     0</i>
   <i type="logical" name="LHFCALC"> F  </i>
   <i type="string" name="PRECFOCK"></i>
   <i type="logical" name="LSYMGRAD"> F  </i>
   <i type="logical" name="LHFONE"> F  </i>
   <i type="logical" name="LRHFCALC"> F  </i>
   <i type="logical" name="LTHOMAS"> F  </i>
   <i type="logical" name="LMODELHF"> F  </i>
   <i name="ENCUT4O">     -1.00000000</i>
   <i type="int" name="EXXOEP">     0</i>
   <i type="int" name="FOURORBIT">     0</i>
   <i name="AEXX">      0.00000000</i>
   <i name="HFALPHA">      0.00000000</i>
   <i name="MCALPHA">      0.00000000</i>
   <i name="ALDAX">      1.00000000</i>
   <i name="AGGAX">      1.00000000</i>
   <i name="ALDAC">      1.00000000</i>
   <i name="AGGAC">      1.00000000</i>
   <i type="int" name="NKREDX">     1</i>
   <i type="int" name="NKREDY">     1</i>
   <i type="int" name="NKREDZ">     1</i>
   <i type="logical" name="SHIFTRED"> F  </i>
   <i type="logical" name="ODDONLY"> F  </i>
   <i type="logical" name="EVENONLY"> F  </i>
   <i type="int" name="LMAXFOCK">     0</i>
   <i type="int" name="NMAXFOCKAE">     0</i>
   <i type="logical" name="LFOCKAEDFT"> F  </i>
   <i name="HFSCREEN">      0.00000000</i>
   <i name="HFSCREENC">      0.00000000</i>
   <i type="int" name="NBANDSGWLOW">     0</i>
  </separator>
  <separator name="vdW DFT" >
   <i type="logical" name="LUSE_VDW"> F  </i>
   <i name="Zab_VDW">     -0.84910000</i>
   <i name="PARAM1">      0.12340000</i>
   <i name="PARAM2">      1.00000000</i>
   <i name="PARAM3">      0.00000000</i>
  </separator>
  <separator name="model GW" >
   <i type="int" name="MODEL_GW">     0</i>
   <i name="MODEL_EPS0">      7.63858375</i>
   <i name="MODEL_ALPHA">      1.00000000</i>
  </separator>
  <separator name="linear response parameters" >
   <i type="logical" name="LEPSILON"> F  </i>
   <i type="logical" name="LRPA"> F  </i>
   <i type="logical" name="LNABLA"> F  </i>
   <i type="logical" name="LVEL"> F  </i>
   <i type="int" name="KINTER">     0</i>
   <i name="CSHIFT">      0.10000000</i>
   <i name="OMEGAMAX">     -1.00000000</i>
   <i name="DEG_THRESHOLD">      0.00200000</i>
   <i name="RTIME">     -0.10000000</i>
   <i name="WPLASMAI">      0.00000000</i>
   <v name="DFIELD">      0.00000000      0.00000000      0.00000000</v>
   <v name="WPLASMA">      0.00000000      0.00000000      0.00000000      0.00000000      0.00000000      0.00000000      0.00000000      0.00000000      0.00000000</v>
  </separator>
  <separator name="orbital magnetization" >
   <i type="logical" name="NUCIND"> F  </i>
   <v name="MAGPOS">      0.00000000      0.00000000      0.00000000</v>
   <i type="logical" name="LNICSALL"> T  </i>
   <i type="logical" name="ORBITALMAG"> F  </i>
   <i type="logical" name="LMAGBLOCH"> F  </i>
   <i type="logical" name="LCHIMAG"> F  </i>
   <i type="logical" name="LGAUGE"> T  </i>
   <i type="int" name="MAGATOM">     0</i>
   <v name="MAGDIPOL">      0.00000000      0.00000000      0.00000000</v>
   <v name="AVECCONST">      0.00000000      0.00000000      0.00000000</v>
  </separator>
  <separator name="response functions" >
   <i type="logical" name="LADDER"> F  </i>
   <i type="logical" name="LRPAFORCE"> F  </i>
   <i type="logical" name="LFXC"> F  </i>
   <i type="logical" name="LHARTREE"> T  </i>
   <i type="int" name="IBSE">     0</i>
   <v type="int" name="KPOINT">    -1     0     0     0</v>
   <i type="logical" name="LTCTE"> F  </i>
   <i type="logical" name="LTETE"> F  </i>
   <i type="logical" name="LTRIPLET"> F  </i>
   <i type="logical" name="LFXCEPS"> F  </i>
   <i type="logical" name="LFXHEG"> F  </i>
   <i type="int" name="NATURALO">     2</i>
   <i type="logical" name="L2ORDER"> F  </i>
   <i type="logical" name="LMP2LT"> F  </i>
   <i type="logical" name="LUSEW"> F  </i>
   <i name="ENCUTGW">     -2.00000000</i>
   <i name="ENCUTGWSOFT">     -2.00000000</i>
   <i name="ENCUTLF">     -1.00000000</i>
   <i type="int" name="LMAXMP2">    -1</i>
   <i name="SCISSOR">      0.00000000</i>
   <i type="int" name="NOMEGA">     0</i>
   <i type="int" name="NOMEGAR">     0</i>
   <i type="int" name="NBANDSGW">    -1</i>
   <i type="int" name="NBANDSO">    -1</i>
   <i type="int" name="NBANDSV">    -1</i>
   <i type="int" name="NELM">     1</i>
   <i type="int" name="NELMHF">     1</i>
   <i type="int" name="DIM">     3</i>
   <i type="int" name="ANTIRES">     0</i>
   <i name="OMEGAMAX">    -30.00000000</i>
   <i name="OMEGAMIN">    -30.00000000</i>
   <i name="OMEGATL">   -200.00000000</i>
   <i type="int" name="OMEGAGRID">   140</i>
   <i name="CSHIFT">     -0.10000000</i>
   <i type="logical" name="SELFENERGY"> F  </i>
   <i type="logical" name="LSPECTRAL"> F  </i>
   <i type="logical" name="LSPECTRALGW"> F  </i>
   <i type="logical" name="LSINGLES"> F  </i>
   <i type="logical" name="LFERMIGW"> F  </i>
   <i type="logical" name="ODDONLYGW"> F  </i>
   <i type="logical" name="EVENONLYGW"> F  </i>
   <i type="int" name="NKREDLFX">     1</i>
   <i type="int" name="NKREDLFY">     1</i>
   <i type="int" name="NKREDLFZ">     1</i>
   <i type="int" name="MAXMEM">  2800</i>
   <i type="int" name="TELESCOPE">     0</i>
   <i type="int" name="TAUPAR">     1</i>
   <i type="int" name="OMEGAPAR">    -1</i>
   <i name="LAMBDA">      1.00000000</i>
  </separator>
  <separator name="External order field" >
   <i name="OFIELD_KAPPA">      0.00000000</i>
   <v name="OFIELD_K">      0.00000000      0.00000000      0.00000000</v>
   <i name="OFIELD_Q6_NEAR">      0.00000000</i>
   <i name="OFIELD_Q6_FAR">      0.00000000</i>
   <i name="OFIELD_A">      0.00000000</i>
  </separator>
 </parameters>
 <atominfo>
  <atoms>      28 </atoms>
  <types>       2 </types>
  <array name="atoms" >
   <dimension dim="1">ion</dimension>
   <field type="string">element</field>
   <field type="int">atomtype</field>
   <set>
    <rc><c>N </c><c>   1</c></rc>
    <rc><c>N </c><c>   1</c></rc>
    <rc><c>N </c><c>   1</c></rc>
    <rc><c>N </c><c>   1</c></rc>
    <rc><c>N </c><c>   1</c></rc>
    <rc><c>N </c><c>   1</c></rc>
    <rc><c>N </c><c>   1</c></rc>
    <rc><c>N </c><c>   1</c></rc>
    <rc><c>N </c><c>   1</c></rc>
    <rc><c>N </c><c>   1</c></rc>
    <rc><c>N </c><c>   1</c></rc>
    <rc><c>N </c><c>   1</c></rc>
    <rc><c>Si</c><c>   2</c></rc>
    <rc><c>Si</c><c>   2</c></rc>
    <rc><c>Si</c><c>   2</c></rc>
    <rc><c>Si</c><c>   2</c></rc>
    <rc><c>Si</c><c>   2</c></rc>
    <rc><c>Si</c><c>   2</c></rc>
    <rc><c>Si</c><c>   2</c></rc>
    <rc><c>Si</c><c>   2</c></rc>
    <rc><c>Si</c><c>   2</c></rc>
    <rc><c>Si</c><c>   2</c></rc>
    <rc><c>Si</c><c>   2</c></rc>
    <rc><c>Si</c><c>   2</c></rc>
    <rc><c>Si</c><c>   2</c></rc>
    <rc><c>Si</c><c>   2</c></rc>
    <rc><c>Si</c><c>   2</c></rc>
    <rc><c>Si</c><c>   2</c></rc>
   </set>
  </array>
  <array name="atomtypes" >
   <dimension dim="1">type</dimension>
   <field type="int">atomspertype</field>
   <field type="string">element</field>
   <field>mass</field>
   <field>valence</field>
   <field type="string">pseudopotential</field>
   <set>
    <rc><c>  12</c><c>N </c><c>     14.00100000</c><c>      5.00000000</c><c>  PAW_PBE N 08Apr2002                   </c></rc>
    <rc><c>  16</c><c>Si</c><c>     28.08500000</c><c>      4.00000000</c><c>  PAW_PBE Si 05Jan2001                  </c></rc>
   </set>
  </array>
 </atominfo>
 <structure name="initialpos" >
  <crystal>
   <varray name="basis" >
    <v>       4.31423172      -7.47246854       0.00000000 </v>
    <v>       4.31423172       7.47246854       0.00000000 </v>
    <v>       0.00000000       0.00000000       5.52868781 </v>
   </varray>
   <i name="volume">    356.46724185 </i>
   <varray name="rec_basis" >
    <v>       0.11589549      -0.06691229       0.00000000 </v>
    <v>       0.11589549       0.06691229       0.00000000 </v>
    <v>       0.00000000       0.00000000       0.18087475 </v>
   </varray>
  </crystal>
  <varray name="positions" >
   <v>       0.00847736       0.64712623       0.21326215 </v>
   <v>       0.63864887       0.99152264       0.21326215 </v>
   <v>       0.91417805       0.32157747       0.99187268 </v>
   <v>       0.64712623       0.00847736       0.71326215 </v>
   <v>       0.08582195       0.40739942       0.49187268 </v>
   <v>       0.32157747       0.91417805       0.49187268 </v>
   <v>       0.35287377       0.36135113       0.21326215 </v>
   <v>       0.59260058       0.67842253       0.49187268 </v>
   <v>       0.99152264       0.63864887       0.71326215 </v>
   <v>       0.36135113       0.35287377       0.71326215 </v>
   <v>       0.67842253       0.59260058       0.99187268 </v>
   <v>       0.40739942       0.08582195       0.99187268 </v>
   <v>       0.21311138       0.30040483       0.46674092 </v>
   <v>       0.08729345       0.78688862       0.46674092 </v>
   <v>       0.30040483       0.21311138       0.96674092 </v>
   <v>       0.69959517       0.91270655       0.46674092 </v>
   <v>       0.00000000       0.00000000       0.95692726 </v>
   <v>       0.06686359       0.48449764       0.78259872 </v>
   <v>       0.00000000       0.00000000       0.45692726 </v>
   <v>       0.66666667       0.33333333       0.47577702 </v>
   <v>       0.58236595       0.51550236       0.28259872 </v>
   <v>       0.78688862       0.08729345       0.96674092 </v>
   <v>       0.91270655       0.69959517       0.96674092 </v>
   <v>       0.33333333       0.66666667       0.97577702 </v>
   <v>       0.93313641       0.41763405       0.28259872 </v>
   <v>       0.41763405       0.93313641       0.78259872 </v>
   <v>       0.51550236       0.58236595       0.78259872 </v>
   <v>       0.48449764       0.06686359       0.28259872 </v>
  </varray>
 </structure>
 <calculation>
  <scstep>
   <time name="dav">    6.66    6.66</time>
   <time name="total">    6.71    6.72</time>
   <energy>
    <i name="alphaZ">    136.79270014 </i>
    <i name="ewald">  -4199.04007303 </i>
    <i name="hartreedc">  -1083.95918674 </i>
    <i name="XCdc">     97.18642959 </i>
    <i name="pawpsdc">   3869.17357318 </i>
    <i name="pawaedc">  -3601.97287308 </i>
    <i name="eentropy">     -0.00184872 </i>
    <i name="bandstr">    432.06742910 </i>
    <i name="atom">   4822.75196862 </i>
    <i name="e_fr_energy">    472.99811906 </i>
    <i name="e_wo_entrp">    472.99996778 </i>
    <i name="e_0_energy">    472.99858124 </i>
   </energy>
  </scstep>
  <scstep>
   <time name="dav">    7.87    7.87</time>
   <time name="total">    7.87    7.87</time>
   <energy>
    <i name="e_fr_energy">   -173.06671009 </i>
    <i name="e_wo_entrp">   -173.06696060 </i>
    <i name="e_0_energy">   -173.06677272 </i>
   </energy>
  </scstep>
  <scstep>
   <time name="dav">    7.67    7.67</time>
   <time name="total">    7.67    7.67</time>
   <energy>
    <i name="e_fr_energy">   -224.73916027 </i>
    <i name="e_wo_entrp">   -224.71467861 </i>
    <i name="e_0_energy">   -224.73303985 </i>
   </energy>
  </scstep>
  <scstep>
   <time name="dav">    7.88    7.88</time>
   <time name="total">    7.88    7.88</time>
   <energy>
    <i name="e_fr_energy">   -225.92367074 </i>
    <i name="e_wo_entrp">   -225.89609038 </i>
    <i name="e_0_energy">   -225.91677565 </i>
   </energy>
  </scstep>
  <scstep>
   <time name="dav">    7.72    7.73</time>
   <time name="total">    8.06    8.06</time>
   <energy>
    <i name="e_fr_energy">   -225.95371291 </i>
    <i name="e_wo_entrp">   -225.92613539 </i>
    <i name="e_0_energy">   -225.94681853 </i>
   </energy>
  </scstep>
  <scstep>
   <time name="diag">    0.91    0.91</time>
   <time name="diis">    4.24    4.24</time>
   <time name="orth">    0.10    0.10</time>
   <time name="total">    5.61    5.61</time>
   <energy>
    <i name="e_fr_energy">   -202.48098097 </i>
    <i name="e_wo_entrp">   -202.47741564 </i>
    <i name="e_0_energy">   -202.48008964 </i>
   </energy>
  </scstep>
  <scstep>
   <time name="diag">    0.91    0.91</time>
   <time name="diis">    4.41    4.41</time>
   <time name="orth">    0.10    0.10</time>
   <time name="total">    5.77    5.77</time>
   <energy>
    <i name="e_fr_energy">   -202.04812944 </i>
    <i name="e_wo_entrp">   -202.03905898 </i>
    <i name="e_0_energy">   -202.04586182 </i>
   </energy>
  </scstep>
  <scstep>
   <time name="diag">    0.91    0.91</time>
   <time name="diis">    4.26    4.26</time>
   <time name="orth">    0.10    0.10</time>
   <time name="total">    5.64    5.64</time>
   <energy>
    <i name="e_fr_energy">   -201.89074513 </i>
    <i name="e_wo_entrp">   -201.88671031 </i>
    <i name="e_0_energy">   -201.88973643 </i>
   </energy>
  </scstep>
  <scstep>
   <time name="diag">    0.91    0.91</time>
   <time name="diis">    4.25    4.25</time>
   <time name="orth">    0.10    0.10</time>
   <time name="total">    5.62    5.62</time>
   <energy>
    <i name="e_fr_energy">   -201.84599932 </i>
    <i name="e_wo_entrp">   -201.83628162 </i>
    <i name="e_0_energy">   -201.84356989 </i>
   </energy>
  </scstep>
  <scstep>
   <time name="diag">    0.91    0.91</time>
   <time name="diis">    4.34    4.34</time>
   <time name="orth">    0.09    0.09</time>
   <time name="total">    5.71    5.71</time>
   <energy>
    <i name="e_fr_energy">   -201.83865441 </i>
    <i name="e_wo_entrp">   -201.83145554 </i>
    <i name="e_0_energy">   -201.83685469 </i>
   </energy>
  </scstep>
  <scstep>
   <time name="diag">    0.91    0.91</time>
   <time name="diis">    4.39    4.39</time>
   <time name="orth">    0.10    0.10</time>
   <time name="total">    5.77    5.77</time>
   <energy>
    <i name="e_fr_energy">   -201.83675578 </i>
    <i name="e_wo_entrp">   -201.82756526 </i>
    <i name="e_0_energy">   -201.83445815 </i>
   </energy>
  </scstep>
  <scstep>
   <time name="diag">    0.92    0.92</time>
   <time name="diis">    4.27    4.27</time>
   <time name="orth">    0.09    0.09</time>
   <time name="total">    5.64    5.64</time>
   <energy>
    <i name="e_fr_energy">   -201.83622760 </i>
    <i name="e_wo_entrp">   -201.82799414 </i>
    <i name="e_0_energy">   -201.83416924 </i>
   </energy>
  </scstep>
  <scstep>
   <time name="diag">    0.92    0.92</time>
   <time name="diis">    3.64    3.64</time>
   <time name="orth">    0.09    0.09</time>
   <time name="total">    5.02    5.02</time>
   <energy>
    <i name="e_fr_energy">   -201.83600799 </i>
    <i name="e_wo_entrp">   -201.82717062 </i>
    <i name="e_0_energy">   -201.83379865 </i>
   </energy>
  </scstep>
  <scstep>
   <time name="diag">    0.91    0.91</time>
   <time name="diis">    2.80    2.80</time>
   <time name="orth">    0.09    0.09</time>
   <time name="total">    3.85    3.85</time>
   <energy>
    <i name="alphaZ">    136.79270014 </i>
    <i name="ewald">  -4199.04007303 </i>
    <i name="hartreedc">  -1297.29035811 </i>
    <i name="XCdc">    114.17871877 </i>
    <i name="pawpsdc">  16579.08591916 </i>
    <i name="pawaedc"> -16316.28059825 </i>
    <i name="eentropy">     -0.00881531 </i>
    <i name="bandstr">    -42.02545267 </i>
    <i name="atom">   4822.75196862 </i>
    <i name="e_fr_energy">   -201.83599068 </i>
    <i name="e_wo_entrp">   -201.82717536 </i>
    <i name="e_0_energy">   -201.83378685 </i>
   </energy>
  </scstep>
  <structure>
   <crystal>
    <varray name="basis" >
     <v>       4.31423172      -7.47246854       0.00000000 </v>
     <v>       4.31423172       7.47246854       0.00000000 </v>
     <v>       0.00000000       0.00000000       5.52868781 </v>
    </varray>
    <i name="volume">    356.46724185 </i>
    <varray name="rec_basis" >
     <v>       0.11589549      -0.06691229       0.00000000 </v>
     <v>       0.11589549       0.06691229       0.00000000 </v>
     <v>       0.00000000       0.00000000       0.18087475 </v>
    </varray>
   </crystal>
   <varray name="positions" >
    <v>       0.00847736       0.64712623       0.21326215 </v>
    <v>       0.63864887       0.99152264       0.21326215 </v>
    <v>       0.91417805       0.32157747       0.99187268 </v>
    <v>       0.64712623       0.00847736       0.71326215 </v>
    <v>       0.08582195       0.40739942       0.49187268 </v>
    <v>       0.32157747       0.91417805       0.49187268 </v>
    <v>       0.35287377       0.36135113       0.21326215 </v>
    <v>       0.59260058       0.67842253       0.49187268 </v>
    <v>       0.99152264       0.63864887       0.71326215 </v>
    <v>       0.36135113       0.35287377       0.71326215 </v>
    <v>       0.67842253       0.59260058       0.99187268 </v>
    <v>       0.40739942       0.08582195       0.99187268 </v>
    <v>       0.21311138       0.30040483       0.46674092 </v>
    <v>       0.08729345       0.78688862       0.46674092 </v>
    <v>       0.30040483       0.21311138       0.96674092 </v>
    <v>       0.69959517       0.91270655       0.46674092 </v>
    <v>       0.00000000       0.00000000       0.95692726 </v>
    <v>       0.06686359       0.48449764       0.78259872 </v>
    <v>       0.00000000       0.00000000       0.45692726 </v>
    <v>       0.66666667       0.33333333       0.47577702 </v>
    <v>       0.58236595       0.51550236       0.28259872 </v>
    <v>       0.78688862       0.08729345       0.96674092 </v>
    <v>       0.91270655       0.69959517       0.96674092 </v>
    <v>       0.33333333       0.66666667       0.97577702 </v>
    <v>       0.93313641       0.41763405       0.28259872 </v>
    <v>       0.41763405       0.93313641       0.78259872 </v>
    <v>       0.51550236       0.58236595       0.78259872 </v>
    <v>       0.48449764       0.06686359       0.28259872 </v>
   </varray>
  </structure>
  <varray name="forces" >
   <v>      -0.06326910       0.13528250       0.05916240 </v>
   <v>       0.14879263      -0.01284860       0.05916240 </v>
   <v>       0.06288581       0.00295383       0.09904539 </v>
   <v>      -0.06326910      -0.13528250       0.05916240 </v>
   <v>      -0.02888482       0.05593763       0.09904539 </v>
   <v>       0.06288581      -0.00295383       0.09904539 </v>
   <v>      -0.08552353      -0.12243390       0.05916240 </v>
   <v>      -0.03400100      -0.05298380       0.09904539 </v>
   <v>       0.14879263       0.01284860       0.05916240 </v>
   <v>      -0.08552353       0.12243390       0.05916240 </v>
   <v>      -0.03400100       0.05298380       0.09904539 </v>
   <v>      -0.02888482      -0.05593763       0.09904539 </v>
   <v>       0.17358176      -0.00097421       0.00619896 </v>
   <v>      -0.08763457      -0.14983911       0.00619896 </v>
   <v>       0.17358176       0.00097421       0.00619896 </v>
   <v>      -0.08594719       0.15081332       0.00619896 </v>
   <v>      -0.00000000       0.00000000       0.03397249 </v>
   <v>      -0.05935846       0.06645376      -0.08524854 </v>
   <v>      -0.00000000      -0.00000000       0.03397249 </v>
   <v>      -0.00000000       0.00000000      -0.27144714 </v>
   <v>      -0.02787141       0.08463281      -0.08524854 </v>
   <v>      -0.08763457       0.14983911       0.00619896 </v>
   <v>      -0.08594719      -0.15081332       0.00619896 </v>
   <v>      -0.00000000      -0.00000000      -0.27144714 </v>
   <v>       0.08722987      -0.01817905      -0.08524854 </v>
   <v>       0.08722987       0.01817905      -0.08524854 </v>
   <v>      -0.02787141      -0.08463281      -0.08524854 </v>
   <v>      -0.05935846      -0.06645376      -0.08524854 </v>
  </varray>
  <varray name="stress" >
   <v>       0.46639670       0.00000000       0.00000000 </v>
   <v>       0.00000000       0.46639670       0.00000000 </v>
   <v>       0.00000000       0.00000000     -47.51608894 </v>
  </varray>
  <energy>
   <i name="e_fr_energy">   -201.83599068 </i>
   <i name="e_wo_entrp">   -201.83378685 </i>
   <i name="e_0_energy">     -0.00881531 </i>
  </energy>
  <time name="totalsc">   95.97   96.04</time>
 </calculation>
 <calculation>
  <scstep>
   <time name="dav">    7.21    7.21</time>
   <time name="total">    7.58    7.58</time>
   <energy>
    <i name="alphaZ">    136.79270014 </i>
    <i name="ewald">  -4191.25690100 </i>
    <i name="hartreedc">  -1302.51121584 </i>
    <i name="XCdc">    114.31640396 </i>
    <i name="pawpsdc">  16581.62557750 </i>
    <i name="pawaedc"> -16318.82051791 </i>
    <i name="eentropy">     -0.00942031 </i>
    <i name="bandstr">    -44.73833301 </i>
    <i name="atom">   4822.75196862 </i>
    <i name="e_fr_energy">   -201.84973784 </i>
    <i name="e_wo_entrp">   -201.84031753 </i>
    <i name="e_0_energy">   -201.84738277 </i>
   </energy>
  </scstep>
  <scstep>
   <time name="diag">    7.60    7.60</time>
   <time name="diis">   56.25   56.25</time>
   <time name="orth">   14.81   14.80</time>
   <time name="total">   79.70   80.32</time>
   <energy>
    <i name="e_fr_energy">   -201.85359418 </i>
    <i name="e_wo_entrp">   -201.84468122 </i>
    <i name="e_0_energy">   -201.85136594 </i>
   </energy>
  </scstep>
  <scstep>
   <time name="diag">    0.91    0.91</time>
   <time name="diis">    4.29    4.29</time>
   <time name="orth">    0.10    0.10</time>
   <time name="total">    5.66    5.66</time>
   <energy>
    <i name="e_fr_energy">   -201.85275487 </i>
    <i name="e_wo_entrp">   -201.84341617 </i>
    <i name="e_0_energy">   -201.85042019 </i>
   </energy>
  </scstep>
  <scstep>
   <time name="diag">    0.91    0.91</time>
   <time name="diis">    4.20    4.20</time>
   <time name="orth">    0.09    0.09</time>
   <time name="total">    5.56    5.56</time>
   <energy>
    <i name="e_fr_energy">   -201.85230894 </i>
    <i name="e_wo_entrp">   -201.84311659 </i>
    <i name="e_0_energy">   -201.85001085 </i>
   </energy>
  </scstep>
  <scstep>
   <time name="diag">    0.91    0.91</time>
   <time name="diis">    2.79    2.79</time>
   <time name="orth">    0.09    0.09</time>
   <time name="total">    3.84    3.84</time>
   <energy>
    <i name="alphaZ">    136.79270014 </i>
    <i name="ewald">  -4191.25690100 </i>
    <i name="hartreedc">  -1303.39361224 </i>
    <i name="XCdc">    114.38316224 </i>
    <i name="pawpsdc">  16677.86299962 </i>
    <i name="pawaedc"> -16415.09208705 </i>
    <i name="eentropy">     -0.00925651 </i>
    <i name="bandstr">    -43.89123226 </i>
    <i name="atom">   4822.75196862 </i>
    <i name="e_fr_energy">   -201.85225844 </i>
    <i name="e_wo_entrp">   -201.84300192 </i>
    <i name="e_0_energy">   -201.84994431 </i>
   </energy>
  </scstep>
  <structure>
   <crystal>
    <varray name="basis" >
     <v>       4.31423172      -7.47246854       0.00000000 </v>
     <v>       4.31423172       7.47246854       0.00000000 </v>
     <v>       0.00000000       0.00000000       5.52868781 </v>
    </varray>
    <i name="volume">    356.46724185 </i>
    <varray name="rec_basis" >
     <v>       0.11589549      -0.06691229       0.00000000 </v>
     <v>       0.11589549       0.06691229       0.00000000 </v>
     <v>       0.00000000       0.00000000       0.18087475 </v>
    </varray>
   </crystal>
   <varray name="positions" >
    <v>       0.00768692       0.64720918       0.21377839 </v>
    <v>       0.63952226       0.99231308       0.21377839 </v>
    <v>       0.91452012       0.32193861       0.99273694 </v>
    <v>       0.64720918       0.00768692       0.71377839 </v>
    <v>       0.08547988       0.40741849       0.49273694 </v>
    <v>       0.32193861       0.91452012       0.49273694 </v>
    <v>       0.35279082       0.36047774       0.21377839 </v>
    <v>       0.59258151       0.67806139       0.49273694 </v>
    <v>       0.99231308       0.63952226       0.71377839 </v>
    <v>       0.36047774       0.35279082       0.71377839 </v>
    <v>       0.67806139       0.59258151       0.99273694 </v>
    <v>       0.40741849       0.08547988       0.99273694 </v>
    <v>       0.21408504       0.30137220       0.46679501 </v>
    <v>       0.08728716       0.78591496       0.46679501 </v>
    <v>       0.30137220       0.21408504       0.96679501 </v>
    <v>       0.69862780       0.91271284       0.46679501 </v>
    <v>      -0.00000000      -0.00000000       0.95722370 </v>
    <v>       0.06631720       0.48438027       0.78185486 </v>
    <v>      -0.00000000      -0.00000000       0.45722370 </v>
    <v>       0.66666667       0.33333333       0.47340840 </v>
    <v>       0.58193693       0.51561973       0.28185486 </v>
    <v>       0.78591496       0.08728716       0.96679501 </v>
    <v>       0.91271284       0.69862780       0.96679501 </v>
    <v>       0.33333333       0.66666667       0.97340840 </v>
    <v>       0.93368280       0.41806307       0.28185486 </v>
    <v>       0.41806307       0.93368280       0.78185486 </v>
    <v>       0.51561973       0.58193693       0.78185486 </v>
    <v>       0.48438027       0.06631720       0.28185486 </v>
   </varray>
  </structure>
  <varray name="forces" >
   <v>      -0.06955086      -0.00025205       0.04912792 </v>
   <v>       0.03455715       0.06035884       0.04912792 </v>
   <v>      -0.00607941      -0.02447000      -0.05768576 </v>
   <v>      -0.06955086       0.00025205       0.04912792 </v>
   <v>      -0.01815193      -0.01749993      -0.05768576 </v>
   <v>      -0.00607941       0.02447000      -0.05768576 </v>
   <v>       0.03499372      -0.06010679       0.04912792 </v>
   <v>       0.02423135      -0.00697007      -0.05768576 </v>
   <v>       0.03455715      -0.06035884       0.04912792 </v>
   <v>       0.03499372       0.06010679       0.04912792 </v>
   <v>       0.02423135       0.00697007      -0.05768576 </v>
   <v>      -0.01815193       0.01749993      -0.05768576 </v>
   <v>      -0.09956137       0.07718481       0.02705654 </v>
   <v>       0.11662469       0.04763027       0.02705654 </v>
   <v>      -0.09956137      -0.07718481       0.02705654 </v>
   <v>      -0.01706332      -0.12481507       0.02705654 </v>
   <v>       0.00000000       0.00000000       0.03650685 </v>
   <v>      -0.02411617       0.02059852       0.04353515 </v>
   <v>       0.00000000       0.00000000       0.03650685 </v>
   <v>       0.00000000       0.00000000      -0.22260839 </v>
   <v>      -0.00578076       0.03118448       0.04353515 </v>
   <v>       0.11662469      -0.04763027       0.02705654 </v>
   <v>      -0.01706332       0.12481507       0.02705654 </v>
   <v>       0.00000000       0.00000000      -0.22260839 </v>
   <v>       0.02989693      -0.01058596       0.04353515 </v>
   <v>       0.02989693       0.01058596       0.04353515 </v>
   <v>      -0.00578076      -0.03118448       0.04353515 </v>
   <v>      -0.02411617      -0.02059852       0.04353515 </v>
  </varray>
  <varray name="stress" >
   <v>       1.78966708       0.00000000       0.00000000 </v>
   <v>       0.00000000       1.78966708       0.00000000 </v>
   <v>       0.00000000       0.00000000     -39.37872184 </v>
  </varray>
  <energy>
   <i name="e_fr_energy">   -201.85225844 </i>
   <i name="e_wo_entrp">   -201.84994431 </i>
   <i name="e_0_energy">     -0.00925651 </i>
  </energy>
  <time name="totalsc">  111.56  112.20</time>
 </calculation>
 <calculation>
  <scstep>
   <time name="dav">    7.22    7.22</time>
   <time name="total">    7.58    7.58</time>
   <energy>
    <i name="alphaZ">    136.79270014 </i>
    <i name="ewald">  -4190.99575730 </i>
    <i name="hartreedc">  -1303.53570396 </i>
    <i name="XCdc">    114.38668057 </i>
    <i name="pawpsdc">  16688.94680012 </i>
    <i name="pawaedc"> -16426.17767278 </i>
    <i name="eentropy">     -0.00927547 </i>
    <i name="bandstr">    -44.01200698 </i>
    <i name="atom">   4822.75196862 </i>
    <i name="e_fr_energy">   -201.85226704 </i>
    <i name="e_wo_entrp">   -201.84299157 </i>
    <i name="e_0_energy">   -201.84994817 </i>
   </energy>
  </scstep>
  <scstep>
   <time name="diag">    0.91    0.91</time>
   <time name="diis">    2.57    2.57</time>
   <time name="orth">    0.09    0.09</time>
   <time name="total">    3.62    3.62</time>
   <energy>
    <i name="alphaZ">    136.79270014 </i>
    <i name="ewald">  -4190.99575730 </i>
    <i name="hartreedc">  -1303.56250374 </i>
    <i name="XCdc">    114.38840609 </i>
    <i name="pawpsdc">  16691.28410332 </i>
    <i name="pawaedc"> -16428.51568217 </i>
    <i name="eentropy">     -0.00925414 </i>
    <i name="bandstr">    -43.98625292 </i>
    <i name="atom">   4822.75196862 </i>
    <i name="e_fr_energy">   -201.85227209 </i>
    <i name="e_wo_entrp">   -201.84301795 </i>
    <i name="e_0_energy">   -201.84995856 </i>
   </energy>
  </scstep>
  <structure>
   <crystal>
    <varray name="basis" >
     <v>       4.31423172      -7.47246854       0.00000000 </v>
     <v>       4.31423172       7.47246854       0.00000000 </v>
     <v>       0.00000000       0.00000000       5.52868781 </v>
    </varray>
    <i name="volume">    356.46724185 </i>
    <varray name="rec_basis" >
     <v>       0.11589549      -0.06691229       0.00000000 </v>
     <v>       0.11589549       0.06691229       0.00000000 </v>
     <v>       0.00000000       0.00000000       0.18087475 </v>
    </varray>
   </crystal>
   <varray name="positions" >
    <v>       0.00766046       0.64721196       0.21379568 </v>
    <v>       0.63955150       0.99233954       0.21379568 </v>
    <v>       0.91453157       0.32195070       0.99276587 </v>
    <v>       0.64721196       0.00766046       0.71379568 </v>
    <v>       0.08546843       0.40741912       0.49276587 </v>
    <v>       0.32195070       0.91453157       0.49276587 </v>
    <v>       0.35278804       0.36044850       0.21379568 </v>
    <v>       0.59258088       0.67804930       0.49276587 </v>
    <v>       0.99233954       0.63955150       0.71379568 </v>
    <v>       0.36044850       0.35278804       0.71379568 </v>
    <v>       0.67804930       0.59258088       0.99276587 </v>
    <v>       0.40741912       0.08546843       0.99276587 </v>
    <v>       0.21411763       0.30140458       0.46679682 </v>
    <v>       0.08728695       0.78588237       0.46679682 </v>
    <v>       0.30140458       0.21411763       0.96679682 </v>
    <v>       0.69859542       0.91271305       0.46679682 </v>
    <v>      -0.00000000      -0.00000000       0.95723362 </v>
    <v>       0.06629891       0.48437634       0.78182995 </v>
    <v>      -0.00000000      -0.00000000       0.45723362 </v>
    <v>       0.66666667       0.33333333       0.47332911 </v>
    <v>       0.58192256       0.51562366       0.28182995 </v>
    <v>       0.78588237       0.08728695       0.96679682 </v>
    <v>       0.91271305       0.69859542       0.96679682 </v>
    <v>       0.33333333       0.66666667       0.97332911 </v>
    <v>       0.93370109       0.41807744       0.28182995 </v>
    <v>       0.41807744       0.93370109       0.78182995 </v>
    <v>       0.51562366       0.58192256       0.78182995 </v>
    <v>       0.48437634       0.06629891       0.28182995 </v>
   </varray>
  </structure>
  <varray name="forces" >
   <v>      -0.06977911      -0.00914163       0.04906506 </v>
   <v>       0.02697267       0.06500130       0.04906506 </v>
   <v>      -0.01182713      -0.02579066      -0.06657265 </v>
   <v>      -0.06977911       0.00914163       0.04906506 </v>
   <v>      -0.01642180      -0.02313793      -0.06657265 </v>
   <v>      -0.01182713       0.02579066      -0.06657265 </v>
   <v>       0.04280644      -0.05585967       0.04906506 </v>
   <v>       0.02824893      -0.00265273      -0.06657265 </v>
   <v>       0.02697267      -0.06500130       0.04906506 </v>
   <v>       0.04280644       0.05585967       0.04906506 </v>
   <v>       0.02824893       0.00265273      -0.06657265 </v>
   <v>      -0.01642180       0.02313793      -0.06657265 </v>
   <v>      -0.10905968       0.08031803       0.02817952 </v>
   <v>       0.12408730       0.05428944       0.02817952 </v>
   <v>      -0.10905968      -0.08031803       0.02817952 </v>
   <v>      -0.01502761      -0.13460747       0.02817952 </v>
   <v>       0.00000000       0.00000000       0.03749484 </v>
   <v>      -0.02395082       0.02049420       0.04961836 </v>
   <v>       0.00000000       0.00000000       0.03749484 </v>
   <v>       0.00000000       0.00000000      -0.21836575 </v>
   <v>      -0.00577308       0.03098911       0.04961836 </v>
   <v>       0.12408730      -0.05428944       0.02817952 </v>
   <v>      -0.01502761       0.13460747       0.02817952 </v>
   <v>       0.00000000       0.00000000      -0.21836575 </v>
   <v>       0.02972390      -0.01049492       0.04961836 </v>
   <v>       0.02972390       0.01049492       0.04961836 </v>
   <v>      -0.00577308      -0.03098911       0.04961836 </v>
   <v>      -0.02395082      -0.02049420       0.04961836 </v>
  </varray>
  <varray name="stress" >
   <v>       1.93749349       0.00000000       0.00000000 </v>
   <v>       0.00000000       1.93749349      -0.00000000 </v>
   <v>       0.00000000      -0.00000000     -38.97086884 </v>
  </varray>
  <energy>
   <i name="e_fr_energy">   -201.85227209 </i>
   <i name="e_wo_entrp">   -201.84995856 </i>
   <i name="e_0_energy">     -0.00925414 </i>
  </energy>
  <time name="totalsc">   20.46   20.48</time>
 </calculation>
 <calculation>
  <scstep>
   <time name="dav">    6.88    6.87</time>
   <time name="total">    7.23    7.24</time>
   <energy>
    <i name="alphaZ">    136.79270014 </i>
    <i name="ewald">  -4187.95369332 </i>
    <i name="hartreedc">  -1305.46445023 </i>
    <i name="XCdc">    114.45793320 </i>
    <i name="pawpsdc">  16693.12374563 </i>
    <i name="pawaedc"> -16430.35571139 </i>
    <i name="eentropy">     -0.00900872 </i>
    <i name="bandstr">    -45.20383750 </i>
    <i name="atom">   4822.75196862 </i>
    <i name="e_fr_energy">   -201.86035356 </i>
    <i name="e_wo_entrp">   -201.85134484 </i>
    <i name="e_0_energy">   -201.85810138 </i>
   </energy>
  </scstep>
  <scstep>
   <time name="diag">    0.91    0.91</time>
   <time name="diis">    4.22    4.22</time>
   <time name="orth">    0.09    0.09</time>
   <time name="total">    5.58    5.58</time>
   <energy>
    <i name="e_fr_energy">   -201.86259300 </i>
    <i name="e_wo_entrp">   -201.85326874 </i>
    <i name="e_0_energy">   -201.86026193 </i>
   </energy>
  </scstep>
  <scstep>
   <time name="diag">    0.91    0.91</time>
   <time name="diis">    4.03    4.03</time>
   <time name="orth">    0.10    0.10</time>
   <time name="total">    5.40    5.40</time>
   <energy>
    <i name="e_fr_energy">   -201.86230058 </i>
    <i name="e_wo_entrp">   -201.85318302 </i>
    <i name="e_0_energy">   -201.86002119 </i>
   </energy>
  </scstep>
  <scstep>
   <time name="diag">    7.71    7.71</time>
   <time name="diis">   16.76   16.76</time>
   <time name="orth">    0.09    0.09</time>
   <time name="total">   25.87   25.88</time>
   <energy>
    <i name="e_fr_energy">   -201.86212037 </i>
    <i name="e_wo_entrp">   -201.85288868 </i>
    <i name="e_0_energy">   -201.85981244 </i>
   </energy>
  </scstep>
  <scstep>
   <time name="diag">    0.91    0.91</time>
   <time name="diis">    2.76    2.76</time>
   <time name="orth">    0.10    0.10</time>
   <time name="total">    3.81    3.81</time>
   <energy>
    <i name="alphaZ">    136.79270014 </i>
    <i name="ewald">  -4187.95369332 </i>
    <i name="hartreedc">  -1305.86133762 </i>
    <i name="XCdc">    114.49179908 </i>
    <i name="pawpsdc">  16754.12035055 </i>
    <i name="pawaedc"> -16491.37497594 </i>
    <i name="eentropy">     -0.00917972 </i>
    <i name="bandstr">    -44.81972650 </i>
    <i name="atom">   4822.75196862 </i>
    <i name="e_fr_energy">   -201.86209471 </i>
    <i name="e_wo_entrp">   -201.85291499 </i>
    <i name="e_0_energy">   -201.85979978 </i>
   </energy>
  </scstep>
  <structure>
   <crystal>
    <varray name="basis" >
     <v>       4.31423172      -7.47246854       0.00000000 </v>
     <v>       4.31423172       7.47246854       0.00000000 </v>
     <v>       0.00000000       0.00000000       5.52868781 </v>
    </varray>
    <i name="volume">    356.46724185 </i>
    <varray name="rec_basis" >
     <v>       0.11589549      -0.06691229       0.00000000 </v>
     <v>       0.11589549       0.06691229       0.00000000 </v>
     <v>       0.00000000       0.00000000       0.18087475 </v>
    </varray>
   </crystal>
   <varray name="positions" >
    <v>       0.00691377       0.64682976       0.21447724 </v>
    <v>       0.63991599       0.99308623       0.21447724 </v>
    <v>       0.91471483       0.32197559       0.99260054 </v>
    <v>       0.64682976       0.00691377       0.71447724 </v>
    <v>       0.08528517       0.40726076       0.49260054 </v>
    <v>       0.32197559       0.91471483       0.49260054 </v>
    <v>       0.35317024       0.36008401       0.21447724 </v>
    <v>       0.59273924       0.67802441       0.49260054 </v>
    <v>       0.99308623       0.63991599       0.71447724 </v>
    <v>       0.36008401       0.35317024       0.71447724 </v>
    <v>       0.67802441       0.59273924       0.99260054 </v>
    <v>       0.40726076       0.08528517       0.99260054 </v>
    <v>       0.21371535       0.30152125       0.46707061 </v>
    <v>       0.08780590       0.78628465       0.46707061 </v>
    <v>       0.30152125       0.21371535       0.96707061 </v>
    <v>       0.69847875       0.91219410       0.46707061 </v>
    <v>      -0.00000000      -0.00000000       0.95770687 </v>
    <v>       0.06583231       0.48425117       0.78190478 </v>
    <v>      -0.00000000      -0.00000000       0.45770687 </v>
    <v>       0.66666667       0.33333333       0.47026132 </v>
    <v>       0.58158114       0.51574883       0.28190478 </v>
    <v>       0.78628465       0.08780590       0.96707061 </v>
    <v>       0.91219410       0.69847875       0.96707061 </v>
    <v>       0.33333333       0.66666667       0.97026132 </v>
    <v>       0.93416769       0.41841886       0.28190478 </v>
    <v>       0.41841886       0.93416769       0.78190478 </v>
    <v>       0.51574883       0.58158114       0.78190478 </v>
    <v>       0.48425117       0.06583231       0.28190478 </v>
   </varray>
  </structure>
  <varray name="forces" >
   <v>       0.01412040       0.02914013       0.03659486 </v>
   <v>       0.01817589      -0.02679870       0.03659486 </v>
   <v>       0.02844375       0.01306909      -0.03309679 </v>
   <v>       0.01412040      -0.02914013       0.03659486 </v>
   <v>      -0.00290371       0.03116756      -0.03309679 </v>
   <v>       0.02844375      -0.01306909      -0.03309679 </v>
   <v>      -0.03229630      -0.00234144       0.03659486 </v>
   <v>      -0.02554004      -0.01809847      -0.03309679 </v>
   <v>       0.01817589       0.02679870       0.03659486 </v>
   <v>      -0.03229630       0.00234144       0.03659486 </v>
   <v>      -0.02554004       0.01809847      -0.03309679 </v>
   <v>      -0.00290371      -0.03116756      -0.03309679 </v>
   <v>      -0.07930544      -0.03160256       0.01827068 </v>
   <v>       0.01228411       0.08448181       0.01827068 </v>
   <v>      -0.07930544       0.03160256       0.01827068 </v>
   <v>       0.06702134      -0.05287925       0.01827068 </v>
   <v>       0.00000000       0.00000000       0.03490610 </v>
   <v>      -0.01427403      -0.02477903       0.00313380 </v>
   <v>       0.00000000       0.00000000       0.03490610 </v>
   <v>       0.00000000       0.00000000      -0.10961378 </v>
   <v>       0.02859629      -0.00002785       0.00313380 </v>
   <v>       0.01228411      -0.08448181       0.01827068 </v>
   <v>       0.06702134       0.05287925       0.01827068 </v>
   <v>       0.00000000       0.00000000      -0.10961378 </v>
   <v>      -0.01432226      -0.02475119       0.00313380 </v>
   <v>      -0.01432226       0.02475119       0.00313380 </v>
   <v>       0.02859629       0.00002785       0.00313380 </v>
   <v>      -0.01427403       0.02477903       0.00313380 </v>
  </varray>
  <varray name="stress" >
   <v>       5.14592264       0.00000000       0.00000000 </v>
   <v>       0.00000000       5.14592264       0.00000000 </v>
   <v>       0.00000000       0.00000000     -39.11077647 </v>
  </varray>
  <energy>
   <i name="e_fr_energy">   -201.86209471 </i>
   <i name="e_wo_entrp">   -201.85979978 </i>
   <i name="e_0_energy">     -0.00917972 </i>
  </energy>
  <time name="totalsc">   57.18   57.19</time>
 </calculation>
 <calculation>
  <scstep>
   <time name="dav">    6.96    6.95</time>
   <time name="total">    7.43    7.56</time>
   <energy>
    <i name="alphaZ">    136.79270014 </i>
    <i name="ewald">  -4186.44385991 </i>
    <i name="hartreedc">  -1306.78923621 </i>
    <i name="XCdc">    114.52525833 </i>
    <i name="pawpsdc">  16756.42915824 </i>
    <i name="pawaedc"> -16493.68405808 </i>
    <i name="eentropy">     -0.00904921 </i>
    <i name="bandstr">    -45.43563507 </i>
    <i name="atom">   4822.75196862 </i>
    <i name="e_fr_energy">   -201.86275315 </i>
    <i name="e_wo_entrp">   -201.85370394 </i>
    <i name="e_0_energy">   -201.86049085 </i>
   </energy>
  </scstep>
  <scstep>
   <time name="diag">    0.91    0.91</time>
   <time name="diis">    4.24    4.24</time>
   <time name="orth">    0.10    0.10</time>
   <time name="total">    5.60    5.61</time>
   <energy>
    <i name="e_fr_energy">   -201.86332991 </i>
    <i name="e_wo_entrp">   -201.85410407 </i>
    <i name="e_0_energy">   -201.86102345 </i>
   </energy>
  </scstep>
  <scstep>
   <time name="diag">    0.91    0.91</time>
   <time name="diis">    3.06    3.06</time>
   <time name="orth">    0.09    0.09</time>
   <time name="total">    4.11    4.11</time>
   <energy>
    <i name="alphaZ">    136.79270014 </i>
    <i name="ewald">  -4186.44385991 </i>
    <i name="hartreedc">  -1306.92098875 </i>
    <i name="XCdc">    114.53675399 </i>
    <i name="pawpsdc">  16772.93523992 </i>
    <i name="pawaedc"> -16510.19671971 </i>
    <i name="eentropy">     -0.00910498 </i>
    <i name="bandstr">    -45.30924628 </i>
    <i name="atom">   4822.75196862 </i>
    <i name="e_fr_energy">   -201.86325695 </i>
    <i name="e_wo_entrp">   -201.85415198 </i>
    <i name="e_0_energy">   -201.86098071 </i>
   </energy>
  </scstep>
  <structure>
   <crystal>
    <varray name="basis" >
     <v>       4.31423172      -7.47246854       0.00000000 </v>
     <v>       4.31423172       7.47246854       0.00000000 </v>
     <v>       0.00000000       0.00000000       5.52868781 </v>
    </varray>
    <i name="volume">    356.46724185 </i>
    <varray name="rec_basis" >
     <v>       0.11589549      -0.06691229       0.00000000 </v>
     <v>       0.11589549       0.06691229       0.00000000 </v>
     <v>       0.00000000       0.00000000       0.18087475 </v>
    </varray>
   </crystal>
   <varray name="positions" >
    <v>       0.00654524       0.64664112       0.21481362 </v>
    <v>       0.64009588       0.99345476       0.21481362 </v>
    <v>       0.91480528       0.32198788       0.99251894 </v>
    <v>       0.64664112       0.00654524       0.71481362 </v>
    <v>       0.08519472       0.40718260       0.49251894 </v>
    <v>       0.32198788       0.91480528       0.49251894 </v>
    <v>       0.35335888       0.35990412       0.21481362 </v>
    <v>       0.59281740       0.67801212       0.49251894 </v>
    <v>       0.99345476       0.64009588       0.71481362 </v>
    <v>       0.35990412       0.35335888       0.71481362 </v>
    <v>       0.67801212       0.59281740       0.99251894 </v>
    <v>       0.40718260       0.08519472       0.99251894 </v>
    <v>       0.21351680       0.30157883       0.46720574 </v>
    <v>       0.08806204       0.78648320       0.46720574 </v>
    <v>       0.30157883       0.21351680       0.96720574 </v>
    <v>       0.69842117       0.91193796       0.46720574 </v>
    <v>      -0.00000000       0.00000000       0.95794044 </v>
    <v>       0.06560202       0.48418939       0.78194171 </v>
    <v>      -0.00000000       0.00000000       0.45794044 </v>
    <v>       0.66666667       0.33333333       0.46874720 </v>
    <v>       0.58141263       0.51581061       0.28194171 </v>
    <v>       0.78648320       0.08806204       0.96720574 </v>
    <v>       0.91193796       0.69842117       0.96720574 </v>
    <v>       0.33333333       0.66666667       0.96874720 </v>
    <v>       0.93439798       0.41858737       0.28194171 </v>
    <v>       0.41858737       0.93439798       0.78194171 </v>
    <v>       0.51581061       0.58141263       0.78194171 </v>
    <v>       0.48418939       0.06560202       0.28194171 </v>
   </varray>
  </structure>
  <varray name="forces" >
   <v>       0.05315313       0.04667190       0.02948909 </v>
   <v>       0.01384248      -0.06936791       0.02948909 </v>
   <v>       0.04835359       0.03199847      -0.01524511 </v>
   <v>       0.05315313      -0.04667190       0.02948909 </v>
   <v>       0.00353469       0.05787467      -0.01524511 </v>
   <v>       0.04835359      -0.03199847      -0.01524511 </v>
   <v>      -0.06699561       0.02269601       0.02948909 </v>
   <v>      -0.05188828      -0.02587621      -0.01524511 </v>
   <v>       0.01384248       0.06936791       0.02948909 </v>
   <v>      -0.06699561      -0.02269601       0.02948909 </v>
   <v>      -0.05188828       0.02587621      -0.01524511 </v>
   <v>       0.00353469      -0.05787467      -0.01524511 </v>
   <v>      -0.06803539      -0.08599700       0.01224884 </v>
   <v>      -0.04045789       0.10191888       0.01224884 </v>
   <v>      -0.06803539       0.08599700       0.01224884 </v>
   <v>       0.10849328      -0.01592187       0.01224884 </v>
   <v>       0.00000000       0.00000000       0.03452085 </v>
   <v>      -0.01350396      -0.04633723      -0.02012606 </v>
   <v>       0.00000000       0.00000000       0.03452085 </v>
   <v>       0.00000000       0.00000000      -0.05362114 </v>
   <v>       0.04688120      -0.01147385      -0.02012606 </v>
   <v>      -0.04045789      -0.10191888       0.01224884 </v>
   <v>       0.10849328       0.01592187       0.01224884 </v>
   <v>       0.00000000       0.00000000      -0.05362114 </v>
   <v>      -0.03337724      -0.03486339      -0.02012606 </v>
   <v>      -0.03337724       0.03486339      -0.02012606 </v>
   <v>       0.04688120       0.01147385      -0.02012606 </v>
   <v>      -0.01350396       0.04633723      -0.02012606 </v>
  </varray>
  <varray name="stress" >
   <v>       6.81093809       0.00000000       0.00000000 </v>
   <v>       0.00000000       6.81093809       0.00000000 </v>
   <v>       0.00000000       0.00000000     -38.53460937 </v>
  </varray>
  <energy>
   <i name="e_fr_energy">   -201.86325695 </i>
   <i name="e_wo_entrp">   -201.86098071 </i>
   <i name="e_0_energy">     -0.00910498 </i>
  </energy>
  <time name="totalsc">   26.29   26.43</time>
 </calculation>
 <calculation>
  <scstep>
   <time name="dav">    6.64    6.64</time>
   <time name="total">    7.01    7.01</time>
   <energy>
    <i name="alphaZ">    136.79270014 </i>
    <i name="ewald">  -4187.18333615 </i>
    <i name="hartreedc">  -1306.07056048 </i>
    <i name="XCdc">    114.55324351 </i>
    <i name="pawpsdc">  16779.63104184 </i>
    <i name="pawaedc"> -16516.89492166 </i>
    <i name="eentropy">     -0.00827327 </i>
    <i name="bandstr">    -45.43733475 </i>
    <i name="atom">   4822.75196862 </i>
    <i name="e_fr_energy">   -201.86547219 </i>
    <i name="e_wo_entrp">   -201.85719893 </i>
    <i name="e_0_energy">   -201.86340388 </i>
   </energy>
  </scstep>
  <scstep>
   <time name="diag">    0.91    0.91</time>
   <time name="diis">    4.15    4.16</time>
   <time name="orth">    0.10    0.10</time>
   <time name="total">    5.52    5.53</time>
   <energy>
    <i name="e_fr_energy">   -201.86784559 </i>
    <i name="e_wo_entrp">   -201.85859818 </i>
    <i name="e_0_energy">   -201.86553374 </i>
   </energy>
  </scstep>
  <scstep>
   <time name="diag">    0.91    0.91</time>
   <time name="diis">    4.11    4.12</time>
   <time name="orth">    0.10    0.10</time>
   <time name="total">    5.49    5.49</time>
   <energy>
    <i name="e_fr_energy">   -201.86722141 </i>
    <i name="e_wo_entrp">   -201.85848003 </i>
    <i name="e_0_energy">   -201.86503606 </i>
   </energy>
  </scstep>
  <scstep>
   <time name="diag">    0.92    0.92</time>
   <time name="diis">    3.34    3.34</time>
   <time name="orth">    0.09    0.09</time>
   <time name="total">    4.71    4.71</time>
   <energy>
    <i name="e_fr_energy">   -201.86698619 </i>
    <i name="e_wo_entrp">   -201.85809693 </i>
    <i name="e_0_energy">   -201.86476388 </i>
   </energy>
  </scstep>
  <scstep>
   <time name="diag">    9.10   17.86</time>
   <time name="diis">    2.69    2.69</time>
   <time name="orth">    0.09    0.09</time>
   <time name="total">   12.40   21.68</time>
   <energy>
    <i name="alphaZ">    136.79270014 </i>
    <i name="ewald">  -4187.18333615 </i>
    <i name="hartreedc">  -1306.10651406 </i>
    <i name="XCdc">    114.56151615 </i>
    <i name="pawpsdc">  16810.35458322 </i>
    <i name="pawaedc"> -16547.63150829 </i>
    <i name="eentropy">     -0.00885152 </i>
    <i name="bandstr">    -45.39751064 </i>
    <i name="atom">   4822.75196862 </i>
    <i name="e_fr_energy">   -201.86695252 </i>
    <i name="e_wo_entrp">   -201.85810100 </i>
    <i name="e_0_energy">   -201.86473964 </i>
   </energy>
  </scstep>
  <structure>
   <crystal>
    <varray name="basis" >
     <v>       4.31423172      -7.47246854       0.00000000 </v>
     <v>       4.31423172       7.47246854       0.00000000 </v>
     <v>       0.00000000       0.00000000       5.52868781 </v>
    </varray>
    <i name="volume">    356.46724185 </i>
    <varray name="rec_basis" >
     <v>       0.11589549      -0.06691229       0.00000000 </v>
     <v>       0.11589549       0.06691229       0.00000000 </v>
     <v>       0.00000000       0.00000000       0.18087475 </v>
    </varray>
   </crystal>
   <varray name="positions" >
    <v>       0.00630574       0.64693092       0.21546478 </v>
    <v>       0.64062518       0.99369426       0.21546478 </v>
    <v>       0.91508862       0.32241454       0.99228289 </v>
    <v>       0.64693092       0.00630574       0.71546478 </v>
    <v>       0.08491138       0.40732592       0.49228289 </v>
    <v>       0.32241454       0.91508862       0.49228289 </v>
    <v>       0.35306908       0.35937482       0.21546478 </v>
    <v>       0.59267408       0.67758546       0.49228289 </v>
    <v>       0.99369426       0.64062518       0.71546478 </v>
    <v>       0.35937482       0.35306908       0.71546478 </v>
    <v>       0.67758546       0.59267408       0.99228289 </v>
    <v>       0.40732592       0.08491138       0.99228289 </v>
    <v>       0.21318675       0.30091379       0.46747120 </v>
    <v>       0.08772704       0.78681325       0.46747120 </v>
    <v>       0.30091379       0.21318675       0.96747120 </v>
    <v>       0.69908621       0.91227296       0.46747120 </v>
    <v>      -0.00000000       0.00000000       0.95852812 </v>
    <v>       0.06543301       0.48387312       0.78178771 </v>
    <v>      -0.00000000       0.00000000       0.45852812 </v>
    <v>       0.66666667       0.33333333       0.46657981 </v>
    <v>       0.58155989       0.51612688       0.28178771 </v>
    <v>       0.78681325       0.08772704       0.96747120 </v>
    <v>       0.91227296       0.69908621       0.96747120 </v>
    <v>       0.33333333       0.66666667       0.96657981 </v>
    <v>       0.93456699       0.41844011       0.28178771 </v>
    <v>       0.41844011       0.93456699       0.78178771 </v>
    <v>       0.51612688       0.58155989       0.78178771 </v>
    <v>       0.48387312       0.06543301       0.28178771 </v>
   </varray>
  </structure>
  <varray name="forces" >
   <v>       0.02578800       0.02149288      -0.00184603 </v>
   <v>       0.00571938      -0.03307950      -0.00184603 </v>
   <v>      -0.06267027      -0.03057110      -0.00159586 </v>
   <v>       0.02578800      -0.02149288      -0.00184603 </v>
   <v>       0.00485979      -0.06955960      -0.00159586 </v>
   <v>      -0.06267027       0.03057110      -0.00159586 </v>
   <v>      -0.03150738       0.01158663      -0.00184603 </v>
   <v>       0.05781049       0.03898850      -0.00159586 </v>
   <v>       0.00571938       0.03307950      -0.00184603 </v>
   <v>      -0.03150738      -0.01158663      -0.00184603 </v>
   <v>       0.05781049      -0.03898850      -0.00159586 </v>
   <v>       0.00485979       0.06955960      -0.00159586 </v>
   <v>      -0.00989369      -0.00086155       0.03999902 </v>
   <v>       0.00420073       0.00899896       0.03999902 </v>
   <v>      -0.00989369       0.00086155       0.03999902 </v>
   <v>       0.00569297      -0.00813742       0.03999902 </v>
   <v>       0.00000000      -0.00000000       0.03140412 </v>
   <v>       0.02068341       0.04187310      -0.05090192 </v>
   <v>       0.00000000      -0.00000000       0.03140412 </v>
   <v>       0.00000000      -0.00000000       0.01163025 </v>
   <v>      -0.04660487       0.00302419      -0.05090192 </v>
   <v>       0.00420073      -0.00899896       0.03999902 </v>
   <v>       0.00569297       0.00813742       0.03999902 </v>
   <v>       0.00000000      -0.00000000       0.01163025 </v>
   <v>       0.02592146       0.03884891      -0.05090192 </v>
   <v>       0.02592146      -0.03884891      -0.05090192 </v>
   <v>      -0.04660487      -0.00302419      -0.05090192 </v>
   <v>       0.02068341      -0.04187310      -0.05090192 </v>
  </varray>
  <varray name="stress" >
   <v>       6.74344373       0.00000000       0.00000000 </v>
   <v>       0.00000000       6.74344373       0.00000000 </v>
   <v>       0.00000000      -0.00000000     -35.95121237 </v>
  </varray>
  <energy>
   <i name="e_fr_energy">   -201.86695252 </i>
   <i name="e_wo_entrp">   -201.86473964 </i>
   <i name="e_0_energy">     -0.00885152 </i>
  </energy>
  <time name="totalsc">   44.18   53.49</time>
 </calculation>
 <calculation>
  <scstep>
   <time name="dav">    7.15    7.15</time>
   <time name="total">    7.65    7.65</time>
   <energy>
    <i name="alphaZ">    136.79270014 </i>
    <i name="ewald">  -4187.13768331 </i>
    <i name="hartreedc">  -1306.18563137 </i>
    <i name="XCdc">    114.56250056 </i>
    <i name="pawpsdc">  16810.87835202 </i>
    <i name="pawaedc"> -16548.15563645 </i>
    <i name="eentropy">     -0.00890515 </i>
    <i name="bandstr">    -45.36464552 </i>
    <i name="atom">   4822.75196862 </i>
    <i name="e_fr_energy">   -201.86698046 </i>
    <i name="e_wo_entrp">   -201.85807530 </i>
    <i name="e_0_energy">   -201.86475417 </i>
   </energy>
  </scstep>
  <scstep>
   <time name="diag">    0.90    0.90</time>
   <time name="diis">    2.46    2.46</time>
   <time name="orth">    0.12    0.12</time>
   <time name="total">    3.53    3.53</time>
   <energy>
    <i name="alphaZ">    136.79270014 </i>
    <i name="ewald">  -4187.13768331 </i>
    <i name="hartreedc">  -1306.18722442 </i>
    <i name="XCdc">    114.56229498 </i>
    <i name="pawpsdc">  16809.97623875 </i>
    <i name="pawaedc"> -16547.25332826 </i>
    <i name="eentropy">     -0.00883614 </i>
    <i name="bandstr">    -45.36311691 </i>
    <i name="atom">   4822.75196862 </i>
    <i name="e_fr_energy">   -201.86698654 </i>
    <i name="e_wo_entrp">   -201.85815040 </i>
    <i name="e_0_energy">   -201.86477750 </i>
   </energy>
  </scstep>
  <structure>
   <crystal>
    <varray name="basis" >
     <v>       4.31423172      -7.47246854       0.00000000 </v>
     <v>       4.31423172       7.47246854       0.00000000 </v>
     <v>       0.00000000       0.00000000       5.52868781 </v>
    </varray>
    <i name="volume">    356.46724185 </i>
    <varray name="rec_basis" >
     <v>       0.11589549      -0.06691229       0.00000000 </v>
     <v>       0.11589549       0.06691229       0.00000000 </v>
     <v>       0.00000000       0.00000000       0.18087475 </v>
    </varray>
   </crystal>
   <varray name="positions" >
    <v>       0.00632101       0.64691244       0.21542327 </v>
    <v>       0.64059143       0.99367899       0.21542327 </v>
    <v>       0.91507056       0.32238734       0.99229794 </v>
    <v>       0.64691244       0.00632101       0.71542327 </v>
    <v>       0.08492944       0.40731679       0.49229794 </v>
    <v>       0.32238734       0.91507056       0.49229794 </v>
    <v>       0.35308756       0.35940857       0.21542327 </v>
    <v>       0.59268321       0.67761266       0.49229794 </v>
    <v>       0.99367899       0.64059143       0.71542327 </v>
    <v>       0.35940857       0.35308756       0.71542327 </v>
    <v>       0.67761266       0.59268321       0.99229794 </v>
    <v>       0.40731679       0.08492944       0.99229794 </v>
    <v>       0.21320779       0.30095619       0.46745428 </v>
    <v>       0.08774840       0.78679221       0.46745428 </v>
    <v>       0.30095619       0.21320779       0.96745428 </v>
    <v>       0.69904381       0.91225160       0.46745428 </v>
    <v>      -0.00000000       0.00000000       0.95849066 </v>
    <v>       0.06544378       0.48389328       0.78179753 </v>
    <v>      -0.00000000       0.00000000       0.45849066 </v>
    <v>       0.66666667       0.33333333       0.46671797 </v>
    <v>       0.58155050       0.51610672       0.28179753 </v>
    <v>       0.78679221       0.08774840       0.96745428 </v>
    <v>       0.91225160       0.69904381       0.96745428 </v>
    <v>       0.33333333       0.66666667       0.96671797 </v>
    <v>       0.93455622       0.41844950       0.28179753 </v>
    <v>       0.41844950       0.93455622       0.78179753 </v>
    <v>       0.51610672       0.58155050       0.78179753 </v>
    <v>       0.48389328       0.06544378       0.28179753 </v>
   </varray>
  </structure>
  <varray name="forces" >
   <v>       0.02766183       0.02085275      -0.00072001 </v>
   <v>       0.00422809      -0.03438223      -0.00072001 </v>
   <v>      -0.05894301      -0.02816447      -0.00184333 </v>
   <v>       0.02766183      -0.02085275      -0.00072001 </v>
   <v>       0.00508036      -0.06512838      -0.00184333 </v>
   <v>      -0.05894301       0.02816447      -0.00184333 </v>
   <v>      -0.03188993       0.01352948      -0.00072001 </v>
   <v>       0.05386265       0.03696391      -0.00184333 </v>
   <v>       0.00422809       0.03438223      -0.00072001 </v>
   <v>      -0.03188993      -0.01352948      -0.00072001 </v>
   <v>       0.05386265      -0.03696391      -0.00184333 </v>
   <v>       0.00508036       0.06512838      -0.00184333 </v>
   <v>      -0.01549798      -0.00569032       0.03871284 </v>
   <v>       0.00282102       0.01626680       0.03871284 </v>
   <v>      -0.01549798       0.00569032       0.03871284 </v>
   <v>       0.01267695      -0.01057648       0.03871284 </v>
   <v>       0.00000000       0.00000000       0.03156347 </v>
   <v>       0.01788944       0.03653717      -0.04927723 </v>
   <v>       0.00000000       0.00000000       0.03156347 </v>
   <v>       0.00000000       0.00000000       0.00781972 </v>
   <v>      -0.04058684       0.00277587      -0.04927723 </v>
   <v>       0.00282102      -0.01626680       0.03871284 </v>
   <v>       0.01267695       0.01057648       0.03871284 </v>
   <v>       0.00000000       0.00000000       0.00781972 </v>
   <v>       0.02269740       0.03376130      -0.04927723 </v>
   <v>       0.02269740      -0.03376130      -0.04927723 </v>
   <v>      -0.04058684      -0.00277587      -0.04927723 </v>
   <v>       0.01788944      -0.03653717      -0.04927723 </v>
  </varray>
  <varray name="stress" >
   <v>       6.61939442       0.00000000       0.00000000 </v>
   <v>       0.00000000       6.61939442      -0.00000000 </v>
   <v>       0.00000000       0.00000000     -36.15082888 </v>
  </varray>
  <energy>
   <i name="e_fr_energy">   -201.86698654 </i>
   <i name="e_wo_entrp">   -201.86477750 </i>
   <i name="e_0_energy">     -0.00883614 </i>
  </energy>
  <time name="totalsc">   20.30   20.32</time>
 </calculation>
 <calculation>
  <scstep>
   <time name="dav">    6.70    6.70</time>
   <time name="total">    7.07    7.10</time>
   <energy>
    <i name="alphaZ">    136.79270014 </i>
    <i name="ewald">  -4188.02820910 </i>
    <i name="hartreedc">  -1305.16077651 </i>
    <i name="XCdc">    114.57098995 </i>
    <i name="pawpsdc">  16809.89316993 </i>
    <i name="pawaedc"> -16547.17015520 </i>
    <i name="eentropy">     -0.00841275 </i>
    <i name="bandstr">    -45.50985676 </i>
    <i name="atom">   4822.75196862 </i>
    <i name="e_fr_energy">   -201.86858167 </i>
    <i name="e_wo_entrp">   -201.86016893 </i>
    <i name="e_0_energy">   -201.86647849 </i>
   </energy>
  </scstep>
  <scstep>
   <time name="diag">    0.91    0.91</time>
   <time name="diis">    4.25    4.25</time>
   <time name="orth">    0.10    0.10</time>
   <time name="total">    5.61    5.61</time>
   <energy>
    <i name="e_fr_energy">   -201.86928382 </i>
    <i name="e_wo_entrp">   -201.86015492 </i>
    <i name="e_0_energy">   -201.86700159 </i>
   </energy>
  </scstep>
  <scstep>
   <time name="diag">    0.91    0.91</time>
   <time name="diis">    3.47    3.47</time>
   <time name="orth">    0.10    0.10</time>
   <time name="total">    4.84    4.84</time>
   <energy>
    <i name="e_fr_energy">   -201.86902831 </i>
    <i name="e_wo_entrp">   -201.86032003 </i>
    <i name="e_0_energy">   -201.86685124 </i>
   </energy>
  </scstep>
  <scstep>
   <time name="diag">    0.91    0.91</time>
   <time name="diis">    2.77    2.77</time>
   <time name="orth">    0.09    0.09</time>
   <time name="total">    3.82    3.82</time>
   <energy>
    <i name="alphaZ">    136.79270014 </i>
    <i name="ewald">  -4188.02820910 </i>
    <i name="hartreedc">  -1305.11488488 </i>
    <i name="XCdc">    114.57339917 </i>
    <i name="pawpsdc">  16822.05853241 </i>
    <i name="pawaedc"> -16559.33930467 </i>
    <i name="eentropy">     -0.00883337 </i>
    <i name="bandstr">    -45.55433647 </i>
    <i name="atom">   4822.75196862 </i>
    <i name="e_fr_energy">   -201.86896814 </i>
    <i name="e_wo_entrp">   -201.86013477 </i>
    <i name="e_0_energy">   -201.86675980 </i>
   </energy>
  </scstep>
  <structure>
   <crystal>
    <varray name="basis" >
     <v>       4.31423172      -7.47246854       0.00000000 </v>
     <v>       4.31423172       7.47246854       0.00000000 </v>
     <v>       0.00000000       0.00000000       5.52868781 </v>
    </varray>
    <i name="volume">    356.46724185 </i>
    <varray name="rec_basis" >
     <v>       0.11589549      -0.06691229       0.00000000 </v>
     <v>       0.11589549       0.06691229       0.00000000 </v>
     <v>       0.00000000       0.00000000       0.18087475 </v>
    </varray>
   </crystal>
   <varray name="positions" >
    <v>       0.00630906       0.64728470       0.21570823 </v>
    <v>       0.64097565       0.99369094       0.21570823 </v>
    <v>       0.91493695       0.32211941       0.99217459 </v>
    <v>       0.64728470       0.00630906       0.71570823 </v>
    <v>       0.08506305       0.40718247       0.49217459 </v>
    <v>       0.32211941       0.91493695       0.49217459 </v>
    <v>       0.35271530       0.35902435       0.21570823 </v>
    <v>       0.59281753       0.67788059       0.49217459 </v>
[...]
       <r>   -2.4020    1.0000 </r>
       <r>   -1.5448    1.0000 </r>
       <r>   -1.5076    1.0000 </r>
       <r>   -1.2384    1.0000 </r>
       <r>   -1.2384    1.0000 </r>
       <r>   -0.3431    1.0000 </r>
       <r>   -0.3431    1.0000 </r>
       <r>   -0.0737    1.0000 </r>
       <r>   -0.0737    1.0000 </r>
       <r>   -0.0671    1.0000 </r>
       <r>   -0.0067    1.0000 </r>
       <r>    0.3938    1.0000 </r>
       <r>    0.3938    1.0000 </r>
       <r>    0.8259    1.0000 </r>
       <r>    0.8259    1.0000 </r>
       <r>    0.9176    1.0000 </r>
       <r>    1.2150    1.0000 </r>
       <r>    1.2291    1.0000 </r>
       <r>    1.2291    1.0000 </r>
       <r>    1.3982    1.0000 </r>
       <r>    2.0352    1.0000 </r>
       <r>    2.0352    1.0000 </r>
       <r>    2.2987    1.0000 </r>
       <r>    2.6195    1.0000 </r>
       <r>    2.6195    1.0000 </r>
       <r>    2.8303    1.0000 </r>
       <r>    3.1391    1.0000 </r>
       <r>    3.1431    1.0000 </r>
       <r>    3.1431    1.0000 </r>
       <r>    3.9520    1.0000 </r>
       <r>    3.9520    1.0000 </r>
       <r>    4.0979    1.0000 </r>
       <r>    4.2559    1.0000 </r>
       <r>    4.2559    1.0000 </r>
       <r>    4.3599    1.0000 </r>
       <r>    4.6540    1.0000 </r>
       <r>    4.6540    1.0000 </r>
       <r>    5.0921    1.0000 </r>
       <r>    5.0921    1.0000 </r>
       <r>    5.4922    1.0000 </r>
       <r>    5.4922    1.0000 </r>
       <r>    5.6851    1.0000 </r>
       <r>    5.7529    1.0000 </r>
       <r>    7.3464    0.3685 </r>
       <r>    7.3556    0.2773 </r>
       <r>    7.4475   -0.0432 </r>
       <r>    7.4475   -0.0432 </r>
       <r>    9.7993    0.0000 </r>
       <r>    9.7993    0.0000 </r>
       <r>   10.1280    0.0000 </r>
       <r>   10.1280    0.0000 </r>
       <r>   10.3819    0.0000 </r>
       <r>   10.7035    0.0000 </r>
       <r>   11.0530    0.0000 </r>
       <r>   11.0530    0.0000 </r>
       <r>   11.5138    0.0000 </r>
       <r>   11.7324    0.0000 </r>
       <r>   11.7324    0.0000 </r>
       <r>   11.7868    0.0000 </r>
       <r>   11.9454    0.0000 </r>
       <r>   11.9454    0.0000 </r>
       <r>   12.0054    0.0000 </r>
       <r>   12.1547    0.0000 </r>
      </set>
     </set>
    </set>
   </array>
  </eigenvalues>
  <separator name="orbital magnetization" >
   <v name="MAGDIPOLOUT">      0.00000000      0.00000000      0.00000000</v>
  </separator>
  <dos>
   <i name="efermi">      7.33380798 </i>
   <total>
    <array>
     <dimension dim="1">gridpoints</dimension>
     <dimension dim="2">spin</dimension>
     <field>energy</field>
     <field>total</field>
     <field>integrated</field>
     <set>
      <set comment="spin 1">
       <r>   -12.4013     0.0000     0.0000 </r>
       <r>   -12.3145     0.0000     0.0000 </r>
       <r>   -12.2278     0.0000     0.0000 </r>
       <r>   -12.1410     0.0000     0.0000 </r>
       <r>   -12.0543     0.0000     0.0000 </r>
       <r>   -11.9675     0.0000     0.0000 </r>
       <r>   -11.8808     0.0000     0.0000 </r>
       <r>   -11.7940     0.0000     0.0000 </r>
       <r>   -11.7073     0.0000     0.0000 </r>
       <r>   -11.6205     0.0000     0.0000 </r>
       <r>   -11.5338     0.0000     0.0000 </r>
       <r>   -11.4471     0.0014     0.0001 </r>
       <r>   -11.3603     0.0058     0.0006 </r>
       <r>   -11.2736    -0.0527    -0.0039 </r>
       <r>   -11.1868     0.4128     0.0319 </r>
       <r>   -11.1001     2.0773     0.2121 </r>
       <r>   -11.0133     3.5836     0.5229 </r>
       <r>   -10.9266     4.3173     0.8975 </r>
       <r>   -10.8398     4.3788     1.2773 </r>
       <r>   -10.7531     5.0869     1.7186 </r>
       <r>   -10.6663     7.6536     2.3826 </r>
       <r>   -10.5796    10.4416     3.2884 </r>
       <r>   -10.4928     7.4882     3.9379 </r>
       <r>   -10.4061     9.6725     4.7770 </r>
       <r>   -10.3193     5.0024     5.2110 </r>
       <r>   -10.2326     4.1723     5.5729 </r>
       <r>   -10.1458     1.9596     5.7429 </r>
       <r>   -10.0591     1.5029     5.8733 </r>
       <r>    -9.9723     8.8352     6.6397 </r>
       <r>    -9.8856     6.4682     7.2008 </r>
       <r>    -9.7988     1.2358     7.3080 </r>
       <r>    -9.7121     9.3175     8.1163 </r>
       <r>    -9.6253    15.8414     9.4906 </r>
       <r>    -9.5386     7.7895    10.1663 </r>
       <r>    -9.4518     6.2953    10.7124 </r>
       <r>    -9.3651     5.0326    11.1490 </r>
       <r>    -9.2783     3.4191    11.4456 </r>
       <r>    -9.1916     8.9327    12.2205 </r>
       <r>    -9.1048    13.0970    13.3566 </r>
       <r>    -9.0181    17.9417    14.9130 </r>
       <r>    -8.9313    14.6926    16.1876 </r>
       <r>    -8.8446    14.6176    17.4557 </r>
       <r>    -8.7578    10.5131    18.3677 </r>
       <r>    -8.6711     9.4967    19.1915 </r>
       <r>    -8.5843    11.9297    20.2264 </r>
       <r>    -8.4976    22.9446    22.2168 </r>
       <r>    -8.4108    18.8688    23.8537 </r>
       <r>    -8.3241     2.0627    24.0326 </r>
       <r>    -8.2373    -0.4514    23.9935 </r>
       <r>    -8.1506     0.0678    23.9993 </r>
       <r>    -8.0638     0.0076    24.0000 </r>
       <r>    -7.9771     0.0001    24.0000 </r>
       <r>    -7.8903     0.0000    24.0000 </r>
       <r>    -7.8036     0.0000    24.0000 </r>
       <r>    -7.7168     0.0000    24.0000 </r>
       <r>    -7.6301     0.0000    24.0000 </r>
       <r>    -7.5433     0.0000    24.0000 </r>
       <r>    -7.4566     0.0000    24.0000 </r>
       <r>    -7.3698     0.0000    24.0000 </r>
       <r>    -7.2831     0.0000    24.0000 </r>
       <r>    -7.1964     0.0000    24.0000 </r>
       <r>    -7.1096     0.0000    24.0000 </r>
       <r>    -7.0229     0.0000    24.0000 </r>
       <r>    -6.9361     0.0000    24.0000 </r>
       <r>    -6.8494     0.0000    24.0000 </r>
       <r>    -6.7626     0.0000    24.0000 </r>
       <r>    -6.6759     0.0000    24.0000 </r>
       <r>    -6.5891     0.0000    24.0000 </r>
       <r>    -6.5024     0.0000    24.0000 </r>
       <r>    -6.4156     0.0000    24.0000 </r>
       <r>    -6.3289     0.0000    24.0000 </r>
       <r>    -6.2421     0.0000    24.0000 </r>
       <r>    -6.1554     0.0000    24.0000 </r>
       <r>    -6.0686     0.0000    24.0000 </r>
       <r>    -5.9819     0.0000    24.0000 </r>
       <r>    -5.8951     0.0000    24.0000 </r>
       <r>    -5.8084     0.0000    24.0000 </r>
       <r>    -5.7216     0.0000    24.0000 </r>
       <r>    -5.6349     0.0000    24.0000 </r>
       <r>    -5.5481     0.0000    24.0000 </r>
       <r>    -5.4614     0.0000    24.0000 </r>
       <r>    -5.3746     0.0000    24.0000 </r>
       <r>    -5.2879     0.0000    24.0000 </r>
       <r>    -5.2011     0.0000    24.0000 </r>
       <r>    -5.1144     0.0000    24.0000 </r>
       <r>    -5.0276     0.0000    24.0000 </r>
       <r>    -4.9409     0.0000    24.0000 </r>
       <r>    -4.8541     0.0000    24.0000 </r>
       <r>    -4.7674     0.0000    24.0000 </r>
       <r>    -4.6806     0.0000    24.0000 </r>
       <r>    -4.5939     0.0000    24.0000 </r>
       <r>    -4.5071     0.0000    24.0000 </r>
       <r>    -4.4204     0.0003    24.0000 </r>
       <r>    -4.3336     0.0019    24.0002 </r>
       <r>    -4.2469    -0.0101    23.9993 </r>
       <r>    -4.1601     0.0529    24.0039 </r>
       <r>    -4.0734     0.7325    24.0675 </r>
       <r>    -3.9866     0.9007    24.1456 </r>
       <r>    -3.8999     1.4339    24.2700 </r>
       <r>    -3.8131     2.1139    24.4534 </r>
       <r>    -3.7264     1.0979    24.5486 </r>
       <r>    -3.6396     3.3246    24.8370 </r>
       <r>    -3.5529     2.6048    25.0630 </r>
       <r>    -3.4661     2.3707    25.2686 </r>
       <r>    -3.3794     3.7215    25.5915 </r>
       <r>    -3.2926     2.7806    25.8327 </r>
       <r>    -3.2059     7.6250    26.4941 </r>
       <r>    -3.1191     6.8113    27.0850 </r>
       <r>    -3.0324     8.3675    27.8109 </r>
       <r>    -2.9456     9.5299    28.6376 </r>
       <r>    -2.8589     8.6842    29.3909 </r>
       <r>    -2.7722     7.6726    30.0565 </r>
       <r>    -2.6854     6.5186    30.6220 </r>
       <r>    -2.5987     5.8653    31.1308 </r>
       <r>    -2.5119     5.6694    31.6226 </r>
       <r>    -2.4252     6.6624    32.2006 </r>
       <r>    -2.3384    10.9324    33.1490 </r>
       <r>    -2.2517    11.9989    34.1899 </r>
       <r>    -2.1649    10.0141    35.0586 </r>
       <r>    -2.0782    11.0244    36.0149 </r>
       <r>    -1.9914    13.0101    37.1435 </r>
       <r>    -1.9047    10.3231    38.0391 </r>
       <r>    -1.8179     9.6806    38.8788 </r>
       <r>    -1.7312    11.2034    39.8507 </r>
       <r>    -1.6444     6.1629    40.3854 </r>
       <r>    -1.5577     4.4825    40.7742 </r>
       <r>    -1.4709     1.3788    40.8938 </r>
       <r>    -1.3842     1.8959    41.0583 </r>
       <r>    -1.2974     4.5862    41.4561 </r>
       <r>    -1.2107     2.1728    41.6446 </r>
       <r>    -1.1239     3.9465    41.9870 </r>
       <r>    -1.0372     8.0325    42.6838 </r>
       <r>    -0.9504     9.5255    43.5101 </r>
       <r>    -0.8637     6.7094    44.0921 </r>
       <r>    -0.7769     8.8750    44.8620 </r>
       <r>    -0.6902     9.3253    45.6710 </r>
       <r>    -0.6034     8.2251    46.3845 </r>
       <r>    -0.5167    12.6354    47.4806 </r>
       <r>    -0.4299     6.9828    48.0864 </r>
       <r>    -0.3432     7.5039    48.7373 </r>
       <r>    -0.2564     7.9178    49.4242 </r>
       <r>    -0.1697     5.4906    49.9005 </r>
       <r>    -0.0829     8.4328    50.6321 </r>
       <r>     0.0038    10.1794    51.5151 </r>
       <r>     0.0906    11.4275    52.5064 </r>
       <r>     0.1773     8.8039    53.2702 </r>
       <r>     0.2641     8.3919    53.9982 </r>
       <r>     0.3508    11.3576    54.9834 </r>
       <r>     0.4376    12.3580    56.0555 </r>
       <r>     0.5243    11.0796    57.0166 </r>
       <r>     0.6111    11.3428    58.0006 </r>
       <r>     0.6978    10.5778    58.9182 </r>
       <r>     0.7846    14.0653    60.1383 </r>
       <r>     0.8713    16.0317    61.5291 </r>
       <r>     0.9581     9.3720    62.3421 </r>
       <r>     1.0448    11.9508    63.3788 </r>
       <r>     1.1316    12.7461    64.4845 </r>
       <r>     1.2183    11.8554    65.5130 </r>
       <r>     1.3051    11.0029    66.4675 </r>
       <r>     1.3918    13.8470    67.6687 </r>
       <r>     1.4786    17.2764    69.1674 </r>
       <r>     1.5653    15.9398    70.5501 </r>
       <r>     1.6520    11.9267    71.5848 </r>
       <r>     1.7388    10.9954    72.5386 </r>
       <r>     1.8255    11.5658    73.5419 </r>
       <r>     1.9123    11.8095    74.5664 </r>
       <r>     1.9990     9.6405    75.4027 </r>
       <r>     2.0858    13.3688    76.5624 </r>
       <r>     2.1725    12.4284    77.6406 </r>
       <r>     2.2593    12.3290    78.7101 </r>
       <r>     2.3460    11.3044    79.6908 </r>
       <r>     2.4328    12.1378    80.7437 </r>
       <r>     2.5195     9.6721    81.5827 </r>
       <r>     2.6063    10.8478    82.5238 </r>
       <r>     2.6930    10.9617    83.4747 </r>
       <r>     2.7798    10.9862    84.4277 </r>
       <r>     2.8665     9.3047    85.2349 </r>
       <r>     2.9533     9.1957    86.0326 </r>
       <r>     3.0400     8.6701    86.7848 </r>
       <r>     3.1268    11.1179    87.7492 </r>
       <r>     3.2135     9.3438    88.5598 </r>
       <r>     3.3003    11.1952    89.5310 </r>
       <r>     3.3870    14.1563    90.7590 </r>
       <r>     3.4738     9.4503    91.5788 </r>
       <r>     3.5605     7.1320    92.1975 </r>
       <r>     3.6473     9.9462    93.0603 </r>
       <r>     3.7340    13.5671    94.2373 </r>
       <r>     3.8208    12.3867    95.3118 </r>
       <r>     3.9075    12.0338    96.3557 </r>
       <r>     3.9943    13.6437    97.5393 </r>
       <r>     4.0810     9.1255    98.3309 </r>
       <r>     4.1678     8.1821    99.0407 </r>
       <r>     4.2545    11.5761   100.0449 </r>
       <r>     4.3413    16.8288   101.5048 </r>
       <r>     4.4280    19.4776   103.1945 </r>
       <r>     4.5148     8.9021   103.9667 </r>
       <r>     4.6015     8.0360   104.6638 </r>
       <r>     4.6883     9.8564   105.5188 </r>
       <r>     4.7750     6.9288   106.1199 </r>
       <r>     4.8618     5.6398   106.6092 </r>
       <r>     4.9485    13.8307   107.8090 </r>
       <r>     5.0353    17.7992   109.3530 </r>
       <r>     5.1220    15.4051   110.6894 </r>
       <r>     5.2088    15.1162   112.0007 </r>
       <r>     5.2955    10.4845   112.9102 </r>
       <r>     5.3823     6.2521   113.4526 </r>
       <r>     5.4690     5.4356   113.9241 </r>
       <r>     5.5558     8.4813   114.6599 </r>
       <r>     5.6425     7.8514   115.3410 </r>
       <r>     5.7293    10.9225   116.2885 </r>
       <r>     5.8160    12.6242   117.3836 </r>
       <r>     5.9028    12.4867   118.4669 </r>
       <r>     5.9895     8.5280   119.2067 </r>
       <r>     6.0762     5.6786   119.6993 </r>
       <r>     6.1630     2.1382   119.8847 </r>
       <r>     6.2497     6.1683   120.4198 </r>
       <r>     6.3365    10.9149   121.3667 </r>
       <r>     6.4232     4.6962   121.7741 </r>
       <r>     6.5100    -0.2809   121.7497 </r>
       <r>     6.5967    -0.0127   121.7486 </r>
       <r>     6.6835     0.0154   121.7500 </r>
       <r>     6.7702     0.0016   121.7501 </r>
       <r>     6.8570     0.0062   121.7506 </r>
       <r>     6.9437    -0.0300   121.7480 </r>
       <r>     7.0305     0.2156   121.7667 </r>
       <r>     7.1172     2.1272   121.9513 </r>
       <r>     7.2040     4.8150   122.3690 </r>
       <r>     7.2907     9.7044   123.2108 </r>
       <r>     7.3775    18.9694   124.8564 </r>
       <r>     7.4642    11.6946   125.8709 </r>
       <r>     7.5510     3.8896   126.2083 </r>
       <r>     7.6377     0.5314   126.2544 </r>
       <r>     7.7245    -0.0651   126.2487 </r>
       <r>     7.8112     0.0121   126.2498 </r>
       <r>     7.8980     0.0022   126.2500 </r>
       <r>     7.9847     0.0000   126.2500 </r>
       <r>     8.0715     0.0000   126.2500 </r>
       <r>     8.1582     0.0000   126.2500 </r>
       <r>     8.2450     0.0000   126.2500 </r>
       <r>     8.3317     0.0002   126.2500 </r>
       <r>     8.4185     0.0100   126.2509 </r>
       <r>     8.5052    -0.0176   126.2494 </r>
       <r>     8.5920    -0.2109   126.2311 </r>
       <r>     8.6787     3.3265   126.5196 </r>
       <r>     8.7655     2.9108   126.7721 </r>
       <r>     8.8522    -0.2616   126.7495 </r>
       <r>     8.9390    -0.0019   126.7493 </r>
       <r>     9.0257     0.0091   126.7501 </r>
       <r>     9.1125     0.0837   126.7573 </r>
       <r>     9.1992     0.4331   126.7949 </r>
       <r>     9.2860     1.2447   126.9029 </r>
       <r>     9.3727     1.4311   127.0270 </r>
       <r>     9.4595     1.9167   127.1933 </r>
       <r>     9.5462     3.2617   127.4762 </r>
       <r>     9.6330     4.4776   127.8647 </r>
       <r>     9.7197    11.5401   128.8658 </r>
       <r>     9.8065    18.4386   130.4653 </r>
       <r>     9.8932    14.4572   131.7195 </r>
       <r>     9.9800     9.9740   132.5847 </r>
       <r>    10.0667    10.0500   133.4565 </r>
       <r>    10.1535    10.3654   134.3557 </r>
       <r>    10.2402    10.4687   135.2639 </r>
       <r>    10.3269     5.6873   135.7572 </r>
       <r>    10.4137     5.8735   136.2667 </r>
       <r>    10.5004     4.8837   136.6904 </r>
       <r>    10.5872     8.7905   137.4530 </r>
       <r>    10.6739     9.9524   138.3163 </r>
       <r>    10.7607    13.6023   139.4963 </r>
       <r>    10.8474    10.4572   140.4035 </r>
       <r>    10.9342     8.2244   141.1169 </r>
       <r>    11.0209    12.4715   142.1988 </r>
       <r>    11.1077    10.3785   143.0991 </r>
       <r>    11.1944    11.0498   144.0577 </r>
       <r>    11.2812     8.8284   144.8236 </r>
       <r>    11.3679    14.8174   146.1090 </r>
       <r>    11.4547    14.8120   147.3939 </r>
       <r>    11.5414    14.1126   148.6181 </r>
       <r>    11.6282    12.9977   149.7457 </r>
       <r>    11.7149    16.0571   151.1386 </r>
       <r>    11.8017    19.3029   152.8131 </r>
       <r>    11.8884    19.4273   154.4984 </r>
       <r>    11.9752    13.9732   155.7106 </r>
       <r>    12.0619    17.1313   157.1967 </r>
       <r>    12.1487    17.1769   158.6868 </r>
       <r>    12.2354     8.9873   159.4664 </r>
       <r>    12.3222     4.7632   159.8796 </r>
       <r>    12.4089     1.2525   159.9883 </r>
       <r>    12.4957     0.1291   159.9995 </r>
       <r>    12.5824     0.0040   159.9998 </r>
       <r>    12.6692     0.0011   159.9999 </r>
       <r>    12.7559     0.0009   160.0000 </r>
       <r>    12.8427     0.0000   160.0000 </r>
       <r>    12.9294     0.0000   160.0000 </r>
       <r>    13.0162     0.0000   160.0000 </r>
       <r>    13.1029     0.0000   160.0000 </r>
       <r>    13.1897     0.0000   160.0000 </r>
       <r>    13.2764     0.0000   160.0000 </r>
       <r>    13.3632     0.0000   160.0000 </r>
       <r>    13.4499     0.0000   160.0000 </r>
       <r>    13.5367     0.0000   160.0000 </r>
       <r>    13.6234     0.0000   160.0000 </r>
      </set>
     </set>
    </array>
   </total>
  </dos>
 </calculation>
 <structure name="finalpos" >
  <crystal>
   <varray name="basis" >
    <v>       4.31423172      -7.47246854       0.00000000 </v>
    <v>       4.31423172       7.47246854       0.00000000 </v>
    <v>       0.00000000       0.00000000       5.52868781 </v>
   </varray>
   <i name="volume">    356.46724185 </i>
   <varray name="rec_basis" >
    <v>       0.11589549      -0.06691229       0.00000000 </v>
    <v>       0.11589549       0.06691229       0.00000000 </v>
    <v>       0.00000000       0.00000000       0.18087475 </v>
   </varray>
  </crystal>
  <varray name="positions" >
   <v>       0.00641315       0.64747162       0.21597923 </v>
   <v>       0.64105846       0.99358685       0.21597923 </v>
   <v>       0.91502193       0.32212334       0.99182834 </v>
   <v>       0.64747162       0.00641315       0.71597923 </v>
   <v>       0.08497807       0.40710141       0.49182834 </v>
   <v>       0.32212334       0.91502193       0.49182834 </v>
   <v>       0.35252838       0.35894154       0.21597923 </v>
   <v>       0.59289859       0.67787666       0.49182834 </v>
   <v>       0.99358685       0.64105846       0.71597923 </v>
   <v>       0.35894154       0.35252838       0.71597923 </v>
   <v>       0.67787666       0.59289859       0.99182834 </v>
   <v>       0.40710141       0.08497807       0.99182834 </v>
   <v>       0.21291814       0.30038820       0.46827712 </v>
   <v>       0.08747006       0.78708186       0.46827712 </v>
   <v>       0.30038820       0.21291814       0.96827712 </v>
   <v>       0.69961180       0.91252994       0.46827712 </v>
   <v>       0.00000000       0.00000000       0.95966149 </v>
   <v>       0.06502701       0.48405452       0.78087536 </v>
   <v>       0.00000000       0.00000000       0.45966149 </v>
   <v>       0.66666667       0.33333333       0.46558605 </v>
   <v>       0.58097248       0.51594548       0.28087536 </v>
   <v>       0.78708186       0.08747006       0.96827712 </v>
   <v>       0.91252994       0.69961180       0.96827712 </v>
   <v>       0.33333333       0.66666667       0.96558605 </v>
   <v>       0.93497299       0.41902752       0.28087536 </v>
   <v>       0.41902752       0.93497299       0.78087536 </v>
   <v>       0.51594548       0.58097248       0.78087536 </v>
   <v>       0.48405452       0.06502701       0.28087536 </v>
  </varray>
 </structure>
</modeling>
