unknown system                          
           1
     4.314232   -7.472469    0.000000
     4.314232    7.472469    0.000000
     0.000000    0.000000    5.528688
   Si   N 
  12  16
Direct configuration=     1
   0.00847736  0.64712623  0.21326215
   0.63864887  0.99152264  0.21326215
   0.91417805  0.32157747  0.99187268
   0.64712623  0.00847736  0.71326215
   0.08582195  0.40739942  0.49187268
   0.32157747  0.91417805  0.49187268
   0.35287377  0.36135113  0.21326215
   0.59260058  0.67842253  0.49187268
   0.99152264  0.63864887  0.71326215
   0.36135113  0.35287377  0.71326215
   0.67842253  0.59260058  0.99187268
   0.40739942  0.08582195  0.99187268
   0.21311138  0.30040483  0.46674092
   0.08729345  0.78688862  0.46674092
   0.30040483  0.21311138  0.96674092
   0.69959517  0.91270655  0.46674092
   0.00000000  0.00000000  0.95692726
   0.06686359  0.48449764  0.78259872
   0.00000000  0.00000000  0.45692726
   0.66666667  0.33333333  0.47577702
   0.58236595  0.51550236  0.28259872
   0.78688862  0.08729345  0.96674092
   0.91270655  0.69959517  0.96674092
   0.33333333  0.66666667  0.97577702
   0.93313641  0.41763405  0.28259872
   0.41763405  0.93313641  0.78259872
   0.51550236  0.58236595  0.78259872
   0.48449764  0.06686359  0.28259872
Direct configuration=     2
   0.00768692  0.64720918  0.21377839
   0.63952226  0.99231308  0.21377839
   0.91452012  0.32193861  0.99273694
   0.64720918  0.00768692  0.71377839
   0.08547988  0.40741849  0.49273694
   0.32193861  0.91452012  0.49273694
   0.35279082  0.36047774  0.21377839
   0.59258151  0.67806139  0.49273694
   0.99231308  0.63952226  0.71377839
   0.36047774  0.35279082  0.71377839
   0.67806139  0.59258151  0.99273694
   0.40741849  0.08547988  0.99273694
   0.21408504  0.30137220  0.46679501
   0.08728716  0.78591496  0.46679501
   0.30137220  0.21408504  0.96679501
   0.69862780  0.91271284  0.46679501
  -0.00000000 -0.00000000  0.95722370
   0.06631720  0.48438027  0.78185486
  -0.00000000 -0.00000000  0.45722370
   0.66666667  0.33333333  0.47340840
   0.58193693  0.51561973  0.28185486
   0.78591496  0.08728716  0.96679501
   0.91271284  0.69862780  0.96679501
   0.33333333  0.66666667  0.97340840
   0.93368280  0.41806307  0.28185486
   0.41806307  0.93368280  0.78185486
   0.51561973  0.58193693  0.78185486
   0.48438027  0.06631720  0.28185486
Direct configuration=     3
   0.00766046  0.64721196  0.21379568
   0.63955150  0.99233954  0.21379568
   0.91453157  0.32195070  0.99276587
   0.64721196  0.00766046  0.71379568
   0.08546843  0.40741912  0.49276587
   0.32195070  0.91453157  0.49276587
   0.35278804  0.36044850  0.21379568
   0.59258088  0.67804930  0.49276587
   0.99233954  0.63955150  0.71379568
   0.36044850  0.35278804  0.71379568
   0.67804930  0.59258088  0.99276587
   0.40741912  0.08546843  0.99276587
   0.21411763  0.30140458  0.46679682
   0.08728695  0.78588237  0.46679682
   0.30140458  0.21411763  0.96679682
   0.69859542  0.91271305  0.46679682
  -0.00000000 -0.00000000  0.95723362
   0.06629891  0.48437634  0.78182995
  -0.00000000 -0.00000000  0.45723362
   0.66666667  0.33333333  0.47332911
   0.58192256  0.51562366  0.28182995
   0.78588237  0.08728695  0.96679682
   0.91271305  0.69859542  0.96679682
   0.33333333  0.66666667  0.97332911
   0.93370109  0.41807744  0.28182995
   0.41807744  0.93370109  0.78182995
   0.51562366  0.58192256  0.78182995
   0.48437634  0.06629891  0.28182995
Direct configuration=     4
   0.00691377  0.64682976  0.21447724
   0.63991599  0.99308623  0.21447724
   0.91471483  0.32197559  0.99260054
   0.64682976  0.00691377  0.71447724
   0.08528517  0.40726076  0.49260054
   0.32197559  0.91471483  0.49260054
   0.35317024  0.36008401  0.21447724
   0.59273924  0.67802441  0.49260054
   0.99308623  0.63991599  0.71447724
   0.36008401  0.35317024  0.71447724
   0.67802441  0.59273924  0.99260054
   0.40726076  0.08528517  0.99260054
   0.21371535  0.30152125  0.46707061
   0.08780590  0.78628465  0.46707061
   0.30152125  0.21371535  0.96707061
   0.69847875  0.91219410  0.46707061
  -0.00000000 -0.00000000  0.95770687
   0.06583231  0.48425117  0.78190478
  -0.00000000 -0.00000000  0.45770687
   0.66666667  0.33333333  0.47026132
   0.58158114  0.51574883  0.28190478
   0.78628465  0.08780590  0.96707061
   0.91219410  0.69847875  0.96707061
   0.33333333  0.66666667  0.97026132
   0.93416769  0.41841886  0.28190478
   0.41841886  0.93416769  0.78190478
   0.51574883  0.58158114  0.78190478
   0.48425117  0.06583231  0.28190478
Direct configuration=     5
   0.00654524  0.64664112  0.21481362
   0.64009588  0.99345476  0.21481362
   0.91480528  0.32198788  0.99251894
   0.64664112  0.00654524  0.71481362
   0.08519472  0.40718260  0.49251894
   0.32198788  0.91480528  0.49251894
   0.35335888  0.35990412  0.21481362
   0.59281740  0.67801212  0.49251894
   0.99345476  0.64009588  0.71481362
   0.35990412  0.35335888  0.71481362
   0.67801212  0.59281740  0.99251894
   0.40718260  0.08519472  0.99251894
   0.21351680  0.30157883  0.46720574
   0.08806204  0.78648320  0.46720574
   0.30157883  0.21351680  0.96720574
   0.69842117  0.91193796  0.46720574
  -0.00000000  0.00000000  0.95794044
   0.06560202  0.48418939  0.78194171
  -0.00000000  0.00000000  0.45794044
   0.66666667  0.33333333  0.46874720
   0.58141263  0.51581061  0.28194171
   0.78648320  0.08806204  0.96720574
   0.91193796  0.69842117  0.96720574
   0.33333333  0.66666667  0.96874720
   0.93439798  0.41858737  0.28194171
   0.41858737  0.93439798  0.78194171
   0.51581061  0.58141263  0.78194171
   0.48418939  0.06560202  0.28194171
Direct configuration=     6
   0.00630574  0.64693092  0.21546478
   0.64062518  0.99369426  0.21546478
   0.91508862  0.32241454  0.99228289
   0.64693092  0.00630574  0.71546478
   0.08491138  0.40732592  0.49228289
   0.32241454  0.91508862  0.49228289
   0.35306908  0.35937482  0.21546478
   0.59267408  0.67758546  0.49228289
   0.99369426  0.64062518  0.71546478
   0.35937482  0.35306908  0.71546478
   0.67758546  0.59267408  0.99228289
   0.40732592  0.08491138  0.99228289
   0.21318675  0.30091379  0.46747120
   0.08772704  0.78681325  0.46747120
   0.30091379  0.21318675  0.96747120
   0.69908621  0.91227296  0.46747120
  -0.00000000  0.00000000  0.95852812
   0.06543301  0.48387312  0.78178771
  -0.00000000  0.00000000  0.45852812
   0.66666667  0.33333333  0.46657981
   0.58155989  0.51612688  0.28178771
   0.78681325  0.08772704  0.96747120
   0.91227296  0.69908621  0.96747120
   0.33333333  0.66666667  0.96657981
   0.93456699  0.41844011  0.28178771
   0.41844011  0.93456699  0.78178771
   0.51612688  0.58155989  0.78178771
   0.48387312  0.06543301  0.28178771
Direct configuration=     7
   0.00632101  0.64691244  0.21542327
   0.64059143  0.99367899  0.21542327
   0.91507056  0.32238734  0.99229794
   0.64691244  0.00632101  0.71542327
   0.08492944  0.40731679  0.49229794
   0.32238734  0.91507056  0.49229794
   0.35308756  0.35940857  0.21542327
   0.59268321  0.67761266  0.49229794
   0.99367899  0.64059143  0.71542327
   0.35940857  0.35308756  0.71542327
   0.67761266  0.59268321  0.99229794
   0.40731679  0.08492944  0.99229794
   0.21320779  0.30095619  0.46745428
   0.08774840  0.78679221  0.46745428
   0.30095619  0.21320779  0.96745428
   0.69904381  0.91225160  0.46745428
  -0.00000000  0.00000000  0.95849066
   0.06544378  0.48389328  0.78179753
  -0.00000000  0.00000000  0.45849066
   0.66666667  0.33333333  0.46671797
   0.58155050  0.51610672  0.28179753
   0.78679221  0.08774840  0.96745428
   0.91225160  0.69904381  0.96745428
   0.33333333  0.66666667  0.96671797
   0.93455622  0.41844950  0.28179753
   0.41844950  0.93455622  0.78179753
   0.51610672  0.58155050  0.78179753
   0.48389328  0.06544378  0.28179753
Direct configuration=     8
   0.00630906  0.64728470  0.21570823
   0.64097565  0.99369094  0.21570823
   0.91493695  0.32211941  0.99217459
   0.64728470  0.00630906  0.71570823
   0.08506305  0.40718247  0.49217459
   0.32211941  0.91493695  0.49217459
   0.35271530  0.35902435  0.21570823
   0.59281753  0.67788059  0.49217459
   0.99369094  0.64097565  0.71570823
   0.35902435  0.35271530  0.71570823
   0.67788059  0.59281753  0.99217459
   0.40718247  0.08506305  0.99217459
   0.21298532  0.30054347  0.46794212
   0.08755815  0.78701468  0.46794212
   0.30054347  0.21298532  0.96794212
   0.69945653  0.91244185  0.46794212
  -0.00000000  0.00000000  0.95905478
   0.06534847  0.48398955  0.78125898
  -0.00000000  0.00000000  0.45905478
   0.66666667  0.33333333  0.46582116
   0.58135892  0.51601045  0.28125898
   0.78701468  0.08755815  0.96794212
   0.91244185  0.69945653  0.96794212
   0.33333333  0.66666667  0.96582116
   0.93465153  0.41864108  0.28125898
   0.41864108  0.93465153  0.78125898
   0.51601045  0.58135892  0.78125898
   0.48398955  0.06534847  0.28125898
Direct configuration=     9
   0.00630705  0.64734731  0.21575615
   0.64104027  0.99369295  0.21575615
   0.91491448  0.32207435  0.99215384
   0.64734731  0.00630705  0.71575615
   0.08508552  0.40715988  0.49215384
   0.32207435  0.91491448  0.49215384
   0.35265269  0.35895973  0.21575615
   0.59284012  0.67792565  0.49215384
   0.99369295  0.64104027  0.71575615
   0.35895973  0.35265269  0.71575615
   0.67792565  0.59284012  0.99215384
   0.40715988  0.08508552  0.99215384
   0.21294790  0.30047406  0.46802416
   0.08752616  0.78705210  0.46802416
   0.30047406  0.21294790  0.96802416
   0.69952594  0.91247384  0.46802416
   0.00000000  0.00000000  0.95914966
   0.06533244  0.48400574  0.78116841
   0.00000000  0.00000000  0.45914966
   0.66666667  0.33333333  0.46567033
   0.58132670  0.51599426  0.28116841
   0.78705210  0.08752616  0.96802416
   0.91247384  0.69952594  0.96802416
   0.33333333  0.66666667  0.96567033
   0.93466756  0.41867330  0.28116841
   0.41867330  0.93466756  0.78116841
   0.51599426  0.58132670  0.78116841
   0.48400574  0.06533244  0.28116841
Direct configuration=    10
   0.00641651  0.64747555  0.21598630
   0.64105904  0.99358349  0.21598630
   0.91502533  0.32212489  0.99181802
   0.64747555  0.00641651  0.71598630
   0.08497467  0.40709955  0.49181802
   0.32212489  0.91502533  0.49181802
   0.35252445  0.35894096  0.21598630
   0.59290045  0.67787511  0.49181802
   0.99358349  0.64105904  0.71598630
   0.35894096  0.35252445  0.71598630
   0.67787511  0.59290045  0.99181802
   0.40709955  0.08497467  0.99181802
   0.21291720  0.30038548  0.46828513
   0.08746828  0.78708280  0.46828513
   0.30038548  0.21291720  0.96828513
   0.69961452  0.91253172  0.46828513
   0.00000000  0.00000000  0.95967771
   0.06501733  0.48405607  0.78086607
   0.00000000  0.00000000  0.45967771
   0.66666667  0.33333333  0.46558337
   0.58096126  0.51594393  0.28086607
   0.78708280  0.08746828  0.96828513
   0.91253172  0.69961452  0.96828513
   0.33333333  0.66666667  0.96558337
   0.93498267  0.41903874  0.28086607
   0.41903874  0.93498267  0.78086607
   0.51594393  0.58096126  0.78086607
   0.48405607  0.06501733  0.28086607
Direct configuration=    11
   0.00641315  0.64747162  0.21597923
   0.64105846  0.99358685  0.21597923
   0.91502193  0.32212334  0.99182834
   0.64747162  0.00641315  0.71597923
   0.08497807  0.40710141  0.49182834
   0.32212334  0.91502193  0.49182834
   0.35252838  0.35894154  0.21597923
   0.59289859  0.67787666  0.49182834
   0.99358685  0.64105846  0.71597923
   0.35894154  0.35252838  0.71597923
   0.67787666  0.59289859  0.99182834
   0.40710141  0.08497807  0.99182834
   0.21291814  0.30038820  0.46827712
   0.08747006  0.78708186  0.46827712
   0.30038820  0.21291814  0.96827712
   0.69961180  0.91252994  0.46827712
   0.00000000  0.00000000  0.95966149
   0.06502701  0.48405452  0.78087536
   0.00000000  0.00000000  0.45966149
   0.66666667  0.33333333  0.46558605
   0.58097248  0.51594548  0.28087536
   0.78708186  0.08747006  0.96827712
   0.91252994  0.69961180  0.96827712
   0.33333333  0.66666667  0.96558605
   0.93497299  0.41902752  0.28087536
   0.41902752  0.93497299  0.78087536
   0.51594548  0.58097248  0.78087536
   0.48405452  0.06502701  0.28087536
