  28  28   0   0
  0.1389945E+02  0.8884755E-09  0.8884755E-09  0.5692906E-09  0.5000000E-15
  1.000000000000000E-004
  CAR 
 unknown system                          
     12.32082145    -12.70684327  301      6.45959636      1.00000000
    -12.707  0.0000E+00  0.0000E+00
    -12.623  0.0000E+00  0.0000E+00
    -12.540  0.0000E+00  0.0000E+00
    -12.457  0.0000E+00  0.0000E+00
    -12.373  0.5347E-29  0.4461E-30
    -12.290  0.1324E-23  0.1105E-24
    -12.206  0.7972E-19  0.6651E-20
    -12.123  0.1165E-14  0.9721E-16
    -12.039  0.4090E-11  0.3413E-12
    -11.956  0.3391E-08  0.2833E-09
    -11.873  0.6350E-06  0.5325E-07
    -11.789  0.2340E-04  0.2006E-05
    -11.706  0.6060E-04  0.7061E-05
    -11.622 -0.6720E-03 -0.4900E-04
    -11.539  0.4926E-02  0.3619E-03
    -11.455  0.2429E-01  0.2388E-02
    -11.372  0.4255E-01  0.5938E-02
    -11.289  0.4713E-01  0.9870E-02
    -11.205  0.5224E-01  0.1423E-01
    -11.122  0.6167E-01  0.1937E-01
    -11.038  0.1103E+00  0.2858E-01
    -10.955  0.9680E-01  0.3665E-01
    -10.871  0.9316E-01  0.4442E-01
    -10.788  0.8002E-01  0.5110E-01
    -10.705  0.4528E-01  0.5488E-01
    -10.621  0.2981E-01  0.5736E-01
    -10.538  0.9371E-02  0.5815E-01
    -10.454  0.8977E-01  0.6563E-01
    -10.371  0.7351E-01  0.7177E-01
    -10.288  0.1923E-01  0.7337E-01
    -10.204  0.1190E+00  0.8330E-01
    -10.121  0.1628E+00  0.9688E-01
    -10.037  0.7877E-01  0.1034E+00
     -9.954  0.6818E-01  0.1091E+00
     -9.870  0.4226E-01  0.1127E+00
     -9.787  0.6772E-01  0.1183E+00
     -9.704  0.1301E+00  0.1292E+00
     -9.620  0.1899E+00  0.1450E+00
     -9.537  0.1773E+00  0.1598E+00
     -9.453  0.1657E+00  0.1736E+00
     -9.370  0.1205E+00  0.1837E+00
     -9.286  0.1123E+00  0.1931E+00
     -9.203  0.1596E+00  0.2064E+00
     -9.120  0.2632E+00  0.2283E+00
     -9.036  0.1418E+00  0.2402E+00
     -8.953 -0.2244E-03  0.2401E+00
     -8.869 -0.2251E-02  0.2399E+00
     -8.786  0.6347E-03  0.2400E+00
     -8.702  0.4115E-04  0.2400E+00
     -8.619  0.4000E-06  0.2400E+00
     -8.536  0.7989E-09  0.2400E+00
     -8.452  0.3584E-12  0.2400E+00
     -8.369  0.3660E-16  0.2400E+00
     -8.285  0.0000E+00  0.2400E+00
     -8.202  0.0000E+00  0.2400E+00
     -8.118  0.0000E+00  0.2400E+00
     -8.035  0.0000E+00  0.2400E+00
     -7.952  0.0000E+00  0.2400E+00
     -7.868  0.0000E+00  0.2400E+00
     -7.785  0.0000E+00  0.2400E+00
     -7.701  0.0000E+00  0.2400E+00
     -7.618  0.0000E+00  0.2400E+00
     -7.534  0.0000E+00  0.2400E+00
     -7.451  0.0000E+00  0.2400E+00
     -7.368  0.0000E+00  0.2400E+00
     -7.284  0.0000E+00  0.2400E+00
     -7.201  0.0000E+00  0.2400E+00
     -7.117  0.0000E+00  0.2400E+00
     -7.034  0.0000E+00  0.2400E+00
     -6.950  0.0000E+00  0.2400E+00
     -6.867  0.0000E+00  0.2400E+00
     -6.784  0.0000E+00  0.2400E+00
     -6.700  0.0000E+00  0.2400E+00
     -6.617  0.0000E+00  0.2400E+00
     -6.533  0.0000E+00  0.2400E+00
     -6.450  0.0000E+00  0.2400E+00
     -6.367  0.0000E+00  0.2400E+00
     -6.283  0.0000E+00  0.2400E+00
     -6.200  0.0000E+00  0.2400E+00
     -6.116  0.0000E+00  0.2400E+00
     -6.033  0.0000E+00  0.2400E+00
     -5.949  0.0000E+00  0.2400E+00
     -5.866  0.0000E+00  0.2400E+00
     -5.783  0.0000E+00  0.2400E+00
     -5.699  0.0000E+00  0.2400E+00
     -5.616  0.0000E+00  0.2400E+00
     -5.532  0.0000E+00  0.2400E+00
     -5.449  0.3737E-31  0.2400E+00
     -5.365  0.1496E-25  0.2400E+00
     -5.282  0.1429E-20  0.2400E+00
     -5.199  0.3227E-16  0.2400E+00
     -5.115  0.1695E-12  0.2400E+00
     -5.032  0.2027E-09  0.2400E+00
     -4.948  0.5345E-07  0.2400E+00
     -4.865  0.2932E-05  0.2400E+00
     -4.781  0.2533E-04  0.2400E+00
     -4.698 -0.1054E-03  0.2400E+00
     -4.615  0.2138E-03  0.2400E+00
     -4.531  0.6978E-02  0.2406E+00
     -4.448  0.1041E-01  0.2415E+00
     -4.364  0.1743E-01  0.2429E+00
     -4.281  0.2103E-01  0.2447E+00
     -4.197  0.1797E-01  0.2462E+00
     -4.114  0.3500E-01  0.2491E+00
     -4.031  0.2858E-01  0.2515E+00
     -3.947  0.3993E-01  0.2548E+00
     -3.864  0.4962E-01  0.2589E+00
     -3.780  0.8181E-01  0.2658E+00
     -3.697  0.9269E-01  0.2735E+00
     -3.613  0.9498E-01  0.2814E+00
     -3.530  0.9992E-01  0.2898E+00
     -3.447  0.8739E-01  0.2971E+00
     -3.363  0.7510E-01  0.3033E+00
     -3.280  0.7497E-01  0.3096E+00
     -3.196  0.7192E-01  0.3156E+00
     -3.113  0.5442E-01  0.3201E+00
     -3.029  0.8722E-01  0.3274E+00
     -2.946  0.1106E+00  0.3366E+00
     -2.863  0.1134E+00  0.3461E+00
     -2.779  0.1106E+00  0.3553E+00
     -2.696  0.1287E+00  0.3660E+00
     -2.612  0.1090E+00  0.3751E+00
     -2.529  0.9549E-01  0.3831E+00
     -2.446  0.1100E+00  0.3923E+00
     -2.362  0.9562E-01  0.4003E+00
     -2.279  0.5926E-01  0.4052E+00
     -2.195  0.3717E-01  0.4083E+00
     -2.112  0.1212E-01  0.4093E+00
     -2.028  0.3452E-01  0.4122E+00
     -1.945  0.3869E-01  0.4154E+00
     -1.862  0.2091E-01  0.4172E+00
     -1.778  0.5073E-01  0.4214E+00
     -1.695  0.9551E-01  0.4294E+00
     -1.611  0.8582E-01  0.4365E+00
     -1.528  0.3253E-01  0.4392E+00
     -1.444  0.5514E-01  0.4438E+00
     -1.361  0.9164E-01  0.4515E+00
     -1.278  0.1297E+00  0.4623E+00
     -1.194  0.1387E+00  0.4739E+00
     -1.111  0.7316E-01  0.4800E+00
     -1.027  0.6918E-01  0.4858E+00
     -0.944  0.7757E-01  0.4922E+00
     -0.860  0.6531E-01  0.4977E+00
     -0.777  0.7758E-01  0.5041E+00
     -0.694  0.1095E+00  0.5133E+00
     -0.610  0.1023E+00  0.5218E+00
     -0.527  0.8937E-01  0.5293E+00
     -0.443  0.8082E-01  0.5360E+00
     -0.360  0.8784E-01  0.5433E+00
     -0.276  0.9071E-01  0.5509E+00
     -0.193  0.1155E+00  0.5605E+00
     -0.110  0.1157E+00  0.5702E+00
     -0.026  0.1133E+00  0.5796E+00
      0.057  0.1396E+00  0.5913E+00
      0.141  0.1794E+00  0.6063E+00
      0.224  0.1380E+00  0.6178E+00
      0.308  0.1043E+00  0.6265E+00
      0.391  0.1478E+00  0.6388E+00
      0.474  0.1430E+00  0.6507E+00
      0.558  0.1238E+00  0.6611E+00
      0.641  0.1139E+00  0.6706E+00
      0.725  0.1555E+00  0.6835E+00
      0.808  0.2057E+00  0.7007E+00
      0.892  0.1539E+00  0.7135E+00
      0.975  0.1304E+00  0.7244E+00
      1.058  0.1239E+00  0.7347E+00
      1.142  0.1257E+00  0.7452E+00
      1.225  0.9684E-01  0.7533E+00
      1.309  0.1168E+00  0.7631E+00
      1.392  0.1098E+00  0.7722E+00
      1.476  0.1116E+00  0.7815E+00
      1.559  0.1318E+00  0.7925E+00
      1.642  0.1127E+00  0.8019E+00
      1.726  0.8907E-01  0.8094E+00
      1.809  0.1001E+00  0.8177E+00
      1.893  0.9301E-01  0.8255E+00
      1.976  0.1123E+00  0.8348E+00
      2.059  0.1117E+00  0.8442E+00
      2.143  0.1050E+00  0.8529E+00
      2.226  0.6224E-01  0.8581E+00
      2.310  0.8129E-01  0.8649E+00
      2.393  0.1113E+00  0.8742E+00
      2.477  0.1006E+00  0.8826E+00
      2.560  0.9764E-01  0.8907E+00
      2.643  0.1430E+00  0.9026E+00
      2.727  0.1254E+00  0.9131E+00
      2.810  0.8454E-01  0.9202E+00
      2.894  0.8773E-01  0.9275E+00
      2.977  0.1283E+00  0.9382E+00
      3.061  0.1431E+00  0.9501E+00
      3.144  0.1008E+00  0.9585E+00
      3.227  0.1540E+00  0.9714E+00
      3.311  0.1188E+00  0.9813E+00
      3.394  0.9181E-01  0.9889E+00
      3.478  0.9237E-01  0.9966E+00
      3.561  0.1465E+00  0.1009E+01
      3.645  0.2192E+00  0.1027E+01
      3.728  0.1230E+00  0.1037E+01
      3.811  0.8876E-01  0.1045E+01
      3.895  0.1151E+00  0.1054E+01
      3.978  0.8783E-01  0.1062E+01
      4.062  0.7749E-01  0.1068E+01
      4.145  0.1536E+00  0.1081E+01
      4.229  0.2018E+00  0.1098E+01
      4.312  0.1352E+00  0.1109E+01
      4.395  0.1351E+00  0.1120E+01
      4.479  0.1050E+00  0.1129E+01
      4.562  0.6365E-01  0.1134E+01
      4.646  0.9974E-01  0.1143E+01
      4.729  0.9609E-01  0.1151E+01
      4.813  0.1092E+00  0.1160E+01
      4.896  0.1432E+00  0.1172E+01
      4.979  0.1323E+00  0.1183E+01
      5.063  0.9912E-01  0.1191E+01
      5.146  0.6920E-01  0.1197E+01
      5.230  0.2551E-01  0.1199E+01
      5.313  0.4244E-01  0.1203E+01
      5.397  0.8606E-01  0.1210E+01
      5.480  0.8216E-01  0.1217E+01
      5.563  0.1270E-01  0.1218E+01
      5.647 -0.3004E-02  0.1217E+01
      5.730  0.3728E-03  0.1217E+01
      5.814  0.5183E-04  0.1217E+01
      5.897  0.8530E-06  0.1218E+01
      5.980  0.1065E-04  0.1218E+01
      6.064  0.1571E-03  0.1218E+01
      6.147 -0.3697E-03  0.1217E+01
      6.231  0.8001E-04  0.1217E+01
      6.314  0.3159E-01  0.1220E+01
      6.398  0.9549E-01  0.1228E+01
      6.481  0.1983E+00  0.1245E+01
      6.564  0.1571E+00  0.1258E+01
      6.648  0.5369E-01  0.1262E+01
      6.731  0.4072E-02  0.1263E+01
      6.815 -0.9785E-03  0.1262E+01
      6.898  0.2268E-03  0.1262E+01
      6.982  0.3127E-04  0.1262E+01
      7.065  0.6250E-06  0.1262E+01
      7.148  0.2691E-08  0.1262E+01
      7.232  0.2805E-08  0.1263E+01
      7.315  0.8652E-06  0.1263E+01
      7.399  0.5076E-04  0.1263E+01
      7.482  0.1888E-03  0.1263E+01
      7.566 -0.2802E-02  0.1262E+01
      7.649  0.1666E-01  0.1264E+01
      7.732  0.4344E-01  0.1267E+01
      7.816  0.3608E-02  0.1268E+01
      7.899 -0.1448E-02  0.1267E+01
      7.983  0.2258E-03  0.1267E+01
      8.066  0.2790E-04  0.1268E+01
      8.150 -0.8683E-04  0.1267E+01
      8.233  0.7564E-03  0.1268E+01
      8.316  0.4812E-02  0.1268E+01
      8.400  0.1534E-01  0.1269E+01
      8.483  0.2057E-01  0.1271E+01
      8.567  0.4115E-01  0.1274E+01
      8.650  0.7929E-01  0.1281E+01
      8.734  0.1076E+00  0.1290E+01
      8.817  0.1788E+00  0.1305E+01
      8.900  0.1452E+00  0.1317E+01
      8.984  0.8882E-01  0.1324E+01
      9.067  0.1175E+00  0.1334E+01
      9.151  0.1435E+00  0.1346E+01
      9.234  0.1403E+00  0.1358E+01
      9.318  0.9595E-01  0.1366E+01
      9.401  0.1071E+00  0.1375E+01
      9.484  0.7557E-01  0.1381E+01
      9.568  0.1154E+00  0.1391E+01
      9.651  0.1461E+00  0.1403E+01
      9.735  0.1222E+00  0.1413E+01
      9.818  0.1372E+00  0.1425E+01
      9.901  0.1407E+00  0.1436E+01
      9.985  0.1333E+00  0.1447E+01
     10.068  0.1664E+00  0.1461E+01
     10.152  0.1381E+00  0.1473E+01
     10.235  0.1286E+00  0.1484E+01
     10.319  0.1711E+00  0.1498E+01
     10.402  0.1586E+00  0.1511E+01
     10.485  0.1663E+00  0.1525E+01
     10.569  0.1439E+00  0.1537E+01
     10.652  0.1241E+00  0.1547E+01
     10.736  0.1438E+00  0.1559E+01
     10.819  0.1491E+00  0.1572E+01
     10.903  0.1629E+00  0.1585E+01
     10.986  0.1144E+00  0.1595E+01
     11.069  0.5226E-01  0.1599E+01
     11.153  0.7191E-02  0.1600E+01
     11.236  0.1506E-02  0.1600E+01
     11.320  0.1435E-03  0.1600E+01
     11.403 -0.7417E-05  0.1600E+01
     11.487  0.1123E-04  0.1600E+01
     11.570  0.5295E-06  0.1600E+01
     11.653  0.3882E-08  0.1600E+01
     11.737  0.5737E-11  0.1600E+01
     11.820  0.1866E-14  0.1600E+01
     11.904  0.1848E-18  0.1600E+01
     11.987  0.0000E+00  0.1600E+01
     12.071  0.0000E+00  0.1600E+01
     12.154  0.0000E+00  0.1600E+01
     12.237  0.0000E+00  0.1600E+01
     12.321  0.0000E+00  0.1600E+01
