   28   28  100    1
  0.1389945E+02  0.8884754E-09  0.8884754E-09  0.5692906E-09  0.5000000E-15
  1.000000000000000E-004
  CAR 
 unknown system                          
    124     44     80
 
  0.3742002E-15  0.3742002E-15  0.3742002E-15  0.3472222E-02
    1      -11.569222   1.000000
    2      -10.997429   1.000000
    3      -10.997429   1.000000
    4      -10.270737   1.000000
    5      -10.270737   1.000000
    6       -9.626498   1.000000
    7       -9.380366   1.000000
    8       -9.311125   1.000000
    9       -9.311125   1.000000
   10       -9.298134   1.000000
   11       -9.236615   1.000000
   12       -9.236615   1.000000
   13       -4.614379   1.000000
   14       -3.864733   1.000000
   15       -3.864733   1.000000
   16       -3.538905   1.000000
   17       -3.117536   1.000000
   18       -2.790620   1.000000
   19       -2.790620   1.000000
   20       -2.252663   1.000000
   21       -1.841321   1.000000
   22       -1.841321   1.000000
   23       -1.390110   1.000000
   24       -1.221899   1.000000
   25       -1.221899   1.000000
   26       -0.872478   1.000000
   27       -0.800357   1.000000
   28       -0.088612   1.000000
   29        0.076580   1.000000
   30        0.076580   1.000000
   31        0.370881   1.000000
   32        0.570715   1.000000
   33        0.725928   1.000000
   34        0.725928   1.000000
   35        0.889380   1.000000
   36        0.889380   1.000000
   37        1.232890   1.000000
   38        1.343360   1.000000
   39        1.343360   1.000000
   40        1.512903   1.000000
   41        1.512903   1.000000
   42        2.219949   1.000000
   43        2.397467   1.000000
   44        2.397467   1.000000
   45        2.486831   1.000000
   46        2.486831   1.000000
   47        2.994946   1.000000
   48        3.154378   1.000000
   49        3.206104   1.000000
   50        3.206105   1.000000
   51        3.356335   1.000000
   52        3.871087   1.000000
   53        3.935965   1.000000
   54        4.022295   1.000000
   55        4.022295   1.000000
   56        4.450934   1.000000
   57        4.450934   1.000000
   58        4.972590   1.000000
   59        4.972590   1.000000
   60        5.361955   1.000000
   61        5.361956   1.000000
   62        6.241413   0.995663
   63        6.623525  -0.002575
   64        8.230503   0.000000
   65        8.230503   0.000000
   66        8.328857   0.000000
   67        8.960304   0.000000
   68        8.960304   0.000000
   69        9.104609   0.000000
   70        9.104609   0.000000
   71        9.900111   0.000000
   72        9.901629   0.000000
   73        9.901630   0.000000
   74        9.991740   0.000000
   75       10.607926   0.000000
   76       10.828572   0.000000
   77       10.898248   0.000000
   78       11.062710   0.000000
   79       11.062711   0.000000
   80       11.166209   0.000000
 
  0.1666667E+00  0.1277145E-14  0.3742002E-15  0.2083333E-01
    1      -11.542324   1.000000
    2      -11.051640   1.000000
    3      -11.017345   1.000000
    4      -10.242699   1.000000
    5      -10.211881   1.000000
    6       -9.603585   1.000000
    7       -9.475380   1.000000
    8       -9.325654   1.000000
    9       -9.309416   1.000000
   10       -9.291038   1.000000
   11       -9.236211   1.000000
   12       -9.204670   1.000000
   13       -4.544891   1.000000
   14       -3.876440   1.000000
   15       -3.789419   1.000000
   16       -3.493623   1.000000
   17       -3.176273   1.000000
   18       -2.858809   1.000000
   19       -2.788335   1.000000
   20       -2.453548   1.000000
   21       -2.058788   1.000000
   22       -1.799287   1.000000
   23       -1.415521   1.000000
   24       -1.215802   1.000000
   25       -1.026208   1.000000
   26       -0.707779   1.000000
   27       -0.676140   1.000000
   28       -0.054063   1.000000
   29        0.003941   1.000000
   30        0.023387   1.000000
   31        0.376559   1.000000
   32        0.474396   1.000000
   33        0.698924   1.000000
   34        0.728539   1.000000
   35        0.880935   1.000000
   36        0.917783   1.000000
   37        1.211113   1.000000
   38        1.363513   1.000000
   39        1.482540   1.000000
   40        1.555876   1.000000
   41        1.577079   1.000000
   42        2.149602   1.000000
   43        2.279790   1.000000
   44        2.339004   1.000000
   45        2.544901   1.000000
   46        2.603915   1.000000
   47        2.871899   1.000000
   48        2.982196   1.000000
   49        3.226092   1.000000
   50        3.327570   1.000000
   51        3.542350   1.000000
   52        3.872502   1.000000
   53        3.906149   1.000000
   54        4.071002   1.000000
   55        4.089178   1.000000
   56        4.351075   1.000000
   57        4.434275   1.000000
   58        4.893433   1.000000
   59        4.914799   1.000000
   60        5.247094   1.000000
   61        5.369649   1.000000
   62        6.254709   0.995089
   63        6.576744  -0.040335
   64        8.336081   0.000000
   65        8.398324   0.000000
   66        8.550896   0.000000
   67        8.877422   0.000000
   68        8.945797   0.000000
   69        9.169673   0.000000
   70        9.227364   0.000000
   71        9.580528   0.000000
   72        9.818780   0.000000
   73       10.045418   0.000000
   74       10.244800   0.000000
   75       10.451827   0.000000
   76       10.568542   0.000000
   77       10.802503   0.000000
   78       10.841348   0.000000
   79       10.940734   0.000000
   80       11.105662   0.000000
 
  0.3333333E+00  0.4022782E-15  0.3742002E-15  0.2083333E-01
    1      -11.467238   1.000000
    2      -11.175129   1.000000
    3      -11.052182   1.000000
    4      -10.197416   1.000000
    5      -10.059922   1.000000
    6       -9.654678   1.000000
    7       -9.542049   1.000000
    8       -9.367156   1.000000
    9       -9.312907   1.000000
   10       -9.280884   1.000000
   11       -9.235449   1.000000
   12       -9.180082   1.000000
   13       -4.344566   1.000000
   14       -3.907472   1.000000
   15       -3.637245   1.000000
   16       -3.442621   1.000000
   17       -3.296495   1.000000
   18       -2.979867   1.000000
   19       -2.798830   1.000000
   20       -2.734886   1.000000
   21       -2.397685   1.000000
   22       -1.668975   1.000000
   23       -1.434048   1.000000
   24       -1.293672   1.000000
   25       -0.823671   1.000000
   26       -0.511923   1.000000
   27       -0.384242   1.000000
   28       -0.145814   1.000000
   29        0.033452   1.000000
   30        0.043283   1.000000
   31        0.342370   1.000000
   32        0.466508   1.000000
   33        0.639953   1.000000
   34        0.698086   1.000000
   35        0.789648   1.000000
   36        0.942620   1.000000
   37        1.141964   1.000000
   38        1.408568   1.000000
   39        1.556387   1.000000
   40        1.660221   1.000000
   41        1.777782   1.000000
   42        2.017004   1.000000
   43        2.107151   1.000000
   44        2.304249   1.000000
   45        2.572567   1.000000
   46        2.733754   1.000000
   47        2.920535   1.000000
   48        3.037333   1.000000
   49        3.152827   1.000000
   50        3.449684   1.000000
   51        3.571353   1.000000
   52        3.801507   1.000000
   53        3.877106   1.000000
   54        3.945738   1.000000
   55        4.184179   1.000000
   56        4.372301   1.000000
   57        4.419193   1.000000
   58        4.694879   1.000000
   59        4.838919   1.000000
   60        5.057318   1.000000
   61        5.424400   1.000000
   62        6.291464   1.000741
   63        6.482775   0.264754
   64        8.560385   0.000000
   65        8.648637   0.000000
   66        8.806266   0.000000
   67        9.004123   0.000000
   68        9.049189   0.000000
   69        9.205797   0.000000
   70        9.342279   0.000000
   71        9.573862   0.000000
   72        9.727996   0.000000
   73        9.938660   0.000000
   74       10.117824   0.000000
   75       10.269801   0.000000
   76       10.390629   0.000000
   77       10.663894   0.000000
   78       10.704987   0.000000
   79       10.803695   0.000000
   80       10.898390   0.000000
 
  0.5000000E+00  0.3678176E-15  0.3742002E-15  0.1041667E-01
    1      -11.391493   1.000000
    2      -11.272425   1.000000
    3      -11.067620   1.000000
    4      -10.178612   1.000000
    5       -9.869158   1.000000
    6       -9.852545   1.000000
    7       -9.486482   1.000000
    8       -9.411722   1.000000
    9       -9.314435   1.000000
   10       -9.275979   1.000000
   11       -9.234947   1.000000
   12       -9.175480   1.000000
   13       -4.119002   1.000000
   14       -4.000672   1.000000
   15       -3.688429   1.000000
   16       -3.396093   1.000000
   17       -3.244119   1.000000
   18       -3.016882   1.000000
   19       -2.940917   1.000000
   20       -2.770541   1.000000
   21       -2.552783   1.000000
   22       -1.590630   1.000000
   23       -1.425668   1.000000
   24       -1.371428   1.000000
   25       -0.623551   1.000000
   26       -0.620319   1.000000
   27       -0.244219   1.000000
   28       -0.212957   1.000000
   29        0.087495   1.000000
   30        0.185376   1.000000
   31        0.260176   1.000000
   32        0.543854   1.000000
   33        0.646021   1.000000
   34        0.653267   1.000000
   35        0.713733   1.000000
   36        0.974570   1.000000
   37        1.026974   1.000000
   38        1.422863   1.000000
   39        1.563697   1.000000
   40        1.725407   1.000000
   41        1.861778   1.000000
   42        1.957217   1.000000
   43        2.055444   1.000000
   44        2.259357   1.000000
   45        2.581510   1.000000
   46        2.845577   1.000000
   47        2.981119   1.000000
   48        3.120194   1.000000
   49        3.250233   1.000000
   50        3.434586   1.000000
   51        3.499971   1.000000
   52        3.659892   1.000000
   53        3.785012   1.000000
   54        3.952301   1.000000
   55        4.292304   1.000000
   56        4.304909   1.000000
   57        4.343464   1.000000
   58        4.665584   1.000000
   59        4.914361   1.000000
   60        4.917290   1.000000
   61        5.463388   1.000000
   62        6.329709   1.028351
   63        6.421614   0.860046
   64        8.621263   0.000000
   65        8.711647   0.000000
   66        8.869329   0.000000
   67        9.094590   0.000000
   68        9.236437   0.000000
   69        9.266658   0.000000
   70        9.364843   0.000000
   71        9.484899   0.000000
   72        9.938063   0.000000
   73        9.983855   0.000000
   74       10.106779   0.000000
   75       10.135417   0.000000
   76       10.334340   0.000000
   77       10.388662   0.000000
   78       10.399560   0.000000
   79       10.712204   0.000000
   80       10.802608   0.000000
 
  0.1666667E+00  0.1666667E+00  0.3742002E-15  0.2083333E-01
    1      -11.490996   1.000000
    2      -11.130813   1.000000
    3      -11.054871   1.000000
    4      -10.181288   1.000000
    5      -10.132124   1.000000
    6       -9.603875   1.000000
    7       -9.560607   1.000000
    8       -9.343274   1.000000
    9       -9.320338   1.000000
   10       -9.282948   1.000000
   11       -9.233923   1.000000
   12       -9.186655   1.000000
   13       -4.408272   1.000000
   14       -3.877938   1.000000
   15       -3.690855   1.000000
   16       -3.451517   1.000000
   17       -3.260240   1.000000
   18       -2.974713   1.000000
   19       -2.782496   1.000000
   20       -2.687198   1.000000
   21       -2.264919   1.000000
   22       -1.761304   1.000000
   23       -1.424064   1.000000
   24       -1.259924   1.000000
   25       -0.869983   1.000000
   26       -0.519708   1.000000
   27       -0.452971   1.000000
   28       -0.115030   1.000000
   29       -0.010889   1.000000
   30        0.021094   1.000000
   31        0.397854   1.000000
   32        0.423349   1.000000
   33        0.620417   1.000000
   34        0.779843   1.000000
   35        0.805336   1.000000
   36        0.905956   1.000000
   37        1.172849   1.000000
   38        1.419003   1.000000
   39        1.582443   1.000000
   40        1.613618   1.000000
   41        1.660875   1.000000
   42        2.051012   1.000000
   43        2.149324   1.000000
   44        2.339926   1.000000
   45        2.606015   1.000000
   46        2.649899   1.000000
   47        2.864638   1.000000
   48        3.017166   1.000000
   49        3.214262   1.000000
   50        3.428889   1.000000
   51        3.569657   1.000000
   52        3.845784   1.000000
   53        3.865640   1.000000
   54        4.065575   1.000000
   55        4.183760   1.000000
   56        4.190979   1.000000
   57        4.462998   1.000000
   58        4.763167   1.000000
   59        4.839443   1.000000
   60        5.126099   1.000000
   61        5.400695   1.000000
   62        6.278049   0.996813
   63        6.507288   0.074657
   64        8.528549   0.000000
   65        8.611094   0.000000
   66        8.788991   0.000000
   67        8.848042   0.000000
   68        9.016812   0.000000
   69        9.214406   0.000000
   70        9.374138   0.000000
   71        9.578165   0.000000
   72        9.703751   0.000000
   73       10.004401   0.000000
   74       10.051578   0.000000
   75       10.285425   0.000000
   76       10.478193   0.000000
   77       10.644824   0.000000
   78       10.733625   0.000000
   79       10.910193   0.000000
   80       11.001023   0.000000
 
  0.3333333E+00  0.1666667E+00  0.3742002E-15  0.4166667E-01
    1      -11.402100   1.000000
    2      -11.243377   1.000000
    3      -11.091348   1.000000
    4      -10.126684   1.000000
    5       -9.983745   1.000000
    6       -9.788857   1.000000
    7       -9.493224   1.000000
    8       -9.382975   1.000000
    9       -9.329822   1.000000
   10       -9.275063   1.000000
   11       -9.228643   1.000000
   12       -9.185294   1.000000
   13       -4.159514   1.000000
   14       -3.897055   1.000000
   15       -3.691970   1.000000
   16       -3.532903   1.000000
   17       -3.224781   1.000000
   18       -3.027995   1.000000
   19       -2.865798   1.000000
   20       -2.772439   1.000000
   21       -2.519557   1.000000
   22       -1.670400   1.000000
   23       -1.426496   1.000000
   24       -1.357047   1.000000
   25       -0.680729   1.000000
   26       -0.470776   1.000000
   27       -0.308056   1.000000
   28       -0.215002   1.000000
   29        0.107596   1.000000
   30        0.144985   1.000000
   31        0.335125   1.000000
   32        0.493235   1.000000
   33        0.566705   1.000000
   34        0.717231   1.000000
   35        0.782911   1.000000
   36        0.909557   1.000000
   37        1.040223   1.000000
   38        1.485705   1.000000
   39        1.601656   1.000000
   40        1.660897   1.000000
   41        1.761077   1.000000
   42        1.934880   1.000000
   43        1.992985   1.000000
   44        2.397730   1.000000
   45        2.556886   1.000000
   46        2.851592   1.000000
   47        3.007144   1.000000
   48        3.147084   1.000000
   49        3.207515   1.000000
   50        3.499380   1.000000
   51        3.556248   1.000000
   52        3.707810   1.000000
   53        3.782864   1.000000
   54        3.944688   1.000000
   55        4.149727   1.000000
   56        4.191940   1.000000
   57        4.378007   1.000000
   58        4.600520   1.000000
   59        4.939584   1.000000
   60        5.059606   1.000000
   61        5.435151   1.000000
   62        6.321249   1.020444
   63        6.425330   0.831393
   64        8.636216   0.000000
   65        8.749787   0.000000
   66        8.938014   0.000000
   67        9.081451   0.000000
   68        9.164371   0.000000
   69        9.261808   0.000000
   70        9.362501   0.000000
   71        9.532564   0.000000
   72        9.745615   0.000000
   73        9.927856   0.000000
   74        9.992706   0.000000
   75       10.227368   0.000000
   76       10.274465   0.000000
   77       10.463576   0.000000
   78       10.545503   0.000000
   79       10.843789   0.000000
   80       10.897440   0.000000
 
  0.3333333E+00  0.3333333E+00  0.3742002E-15  0.6944444E-02
    1      -11.317490   1.000000
    2      -11.317490   1.000000
    3      -11.125007   1.000000
    4      -10.017275   1.000000
    5       -9.937583   1.000000
    6       -9.937583   1.000000
    7       -9.459463   1.000000
    8       -9.366957   1.000000
    9       -9.366957   1.000000
   10       -9.272095   1.000000
   11       -9.208258   1.000000
   12       -9.208258   1.000000
   13       -3.954721   1.000000
   14       -3.804748   1.000000
   15       -3.784627   1.000000
   16       -3.784627   1.000000
   17       -3.107648   1.000000
   18       -3.107648   1.000000
   19       -2.771780   1.000000
   20       -2.719629   1.000000
   21       -2.719629   1.000000
   22       -1.676087   1.000000
   23       -1.412737   1.000000
   24       -1.412737   1.000000
   25       -0.555076   1.000000
   26       -0.421592   1.000000
   27       -0.421592   1.000000
   28       -0.194521   1.000000
   29        0.196705   1.000000
   30        0.196705   1.000000
   31        0.414646   1.000000
   32        0.453591   1.000000
   33        0.453591   1.000000
   34        0.800170   1.000000
   35        0.826299   1.000000
   36        0.894292   1.000000
   37        0.894292   1.000000
   38        1.562795   1.000000
   39        1.562795   1.000000
   40        1.689646   1.000000
   41        1.803500   1.000000
   42        1.846787   1.000000
   43        1.846787   1.000000
   44        2.520413   1.000000
   45        2.520414   1.000000
   46        2.904964   1.000000
   47        3.126364   1.000000
   48        3.218406   1.000000
   49        3.218407   1.000000
   50        3.523993   1.000000
   51        3.695270   1.000000
   52        3.695270   1.000000
   53        3.753131   1.000000
   54        3.880322   1.000000
   55        3.880322   1.000000
   56        4.231661   1.000000
   57        4.231661   1.000000
   58        4.516846   1.000000
   59        5.091468   1.000000
   60        5.091468   1.000000
   61        5.407278   1.000000
   62        6.366436   1.051368
   63        6.366436   1.051368
   64        8.757659   0.000000
   65        8.757659   0.000000
   66        9.099120   0.000000
   67        9.099120   0.000000
   68        9.124494   0.000000
   69        9.349496   0.000000
   70        9.349497   0.000000
   71        9.496023   0.000000
   72        9.535302   0.000000
   73        9.960190   0.000000
   74       10.140326   0.000000
   75       10.140326   0.000000
   76       10.141574   0.000000
   77       10.493724   0.000000
   78       10.493724   0.000000
   79       10.899854   0.000000
   80       10.899854   0.000000
 
  0.3742002E-15  0.3742002E-15  0.1250000E+00  0.6944444E-02
    1      -11.524551   1.000000
    2      -10.956812   1.000000
    3      -10.956812   1.000000
    4      -10.250403   1.000000
    5      -10.250403   1.000000
    6       -9.833398   1.000000
    7       -9.409210   1.000000
    8       -9.409210   1.000000
    9       -9.357829   1.000000
   10       -9.252358   1.000000
   11       -9.252358   1.000000
   12       -9.178332   1.000000
   13       -4.570617   1.000000
   14       -3.735671   1.000000
   15       -3.735671   1.000000
   16       -3.638933   1.000000
   17       -2.952640   1.000000
   18       -2.736987   1.000000
   19       -2.736987   1.000000
   20       -2.294811   1.000000
   21       -1.813651   1.000000
   22       -1.813651   1.000000
   23       -1.312542   1.000000
   24       -1.260316   1.000000
   25       -1.260316   1.000000
   26       -1.003245   1.000000
   27       -0.854709   1.000000
   28        0.083175   1.000000
   29        0.083175   1.000000
   30        0.132321   1.000000
   31        0.301649   1.000000
   32        0.554069   1.000000
   33        0.671736   1.000000
   34        0.671736   1.000000
   35        0.829719   1.000000
   36        0.829719   1.000000
   37        1.246764   1.000000
   38        1.298635   1.000000
   39        1.298635   1.000000
   40        1.461736   1.000000
   41        1.461736   1.000000
   42        2.110887   1.000000
   43        2.386373   1.000000
   44        2.386373   1.000000
   45        2.530216   1.000000
   46        2.530216   1.000000
   47        2.978412   1.000000
   48        2.980253   1.000000
   49        3.166933   1.000000
   50        3.166933   1.000000
   51        3.535326   1.000000
   52        3.740443   1.000000
   53        4.019664   1.000000
   54        4.019664   1.000000
   55        4.089884   1.000000
   56        4.470265   1.000000
   57        4.470265   1.000000
   58        4.954502   1.000000
   59        4.954502   1.000000
   60        5.329990   1.000000
   61        5.329990   1.000000
   62        6.289675   1.000053
   63        6.548696  -0.049925
   64        8.287884   0.000000
   65        8.287884   0.000000
   66        8.450357   0.000000
   67        8.990214   0.000000
   68        8.990214   0.000000
   69        9.299296   0.000000
   70        9.299296   0.000000
   71        9.923154   0.000000
   72        9.933833   0.000000
   73        9.933833   0.000000
   74       10.033329   0.000000
   75       10.488786   0.000000
   76       10.692165   0.000000
   77       10.692165   0.000000
   78       10.851163   0.000000
   79       11.059973   0.000000
   80       11.095474   0.000000
 
  0.1666667E+00  0.1277145E-14  0.1250000E+00  0.4166667E-01
    1      -11.497960   1.000000
    2      -11.011189   1.000000
    3      -10.976395   1.000000
    4      -10.223643   1.000000
    5      -10.193254   1.000000
    6       -9.806288   1.000000
    7       -9.478673   1.000000
    8       -9.432997   1.000000
    9       -9.394849   1.000000
   10       -9.255842   1.000000
   11       -9.197850   1.000000
   12       -9.167726   1.000000
   13       -4.498399   1.000000
   14       -3.767881   1.000000
   15       -3.668088   1.000000
   16       -3.581585   1.000000
   17       -3.009441   1.000000
   18       -2.817848   1.000000
   19       -2.729950   1.000000
   20       -2.457612   1.000000
   21       -2.034869   1.000000
   22       -1.785376   1.000000
   23       -1.349028   1.000000
   24       -1.219134   1.000000
   25       -1.055824   1.000000
   26       -0.919734   1.000000
   27       -0.693277   1.000000
   28       -0.021663   1.000000
   29        0.031098   1.000000
   30        0.157372   1.000000
   31        0.314267   1.000000
   32        0.419620   1.000000
   33        0.641932   1.000000
   34        0.706766   1.000000
   35        0.789851   1.000000
   36        0.928225   1.000000
   37        1.191726   1.000000
   38        1.311733   1.000000
   39        1.428463   1.000000
   40        1.497270   1.000000
   41        1.549646   1.000000
   42        2.064101   1.000000
   43        2.270271   1.000000
   44        2.427402   1.000000
   45        2.545047   1.000000
   46        2.634402   1.000000
   47        2.794777   1.000000
   48        2.980956   1.000000
   49        3.235746   1.000000
   50        3.329079   1.000000
   51        3.543571   1.000000
   52        3.746819   1.000000
   53        3.976351   1.000000
   54        4.065334   1.000000
   55        4.131064   1.000000
   56        4.356210   1.000000
   57        4.446563   1.000000
   58        4.862732   1.000000
   59        4.909198   1.000000
   60        5.217943   1.000000
   61        5.342732   1.000000
   62        6.303815   1.007033
   63        6.529004  -0.019365
   64        8.385137   0.000000
   65        8.440839   0.000000
   66        8.639341   0.000000
   67        8.951419   0.000000
   68        9.007681   0.000000
   69        9.248502   0.000000
   70        9.398276   0.000000
   71        9.624933   0.000000
   72        9.844047   0.000000
   73       10.086965   0.000000
   74       10.225781   0.000000
   75       10.370189   0.000000
   76       10.519144   0.000000
   77       10.695090   0.000000
   78       10.826721   0.000000
   79       10.866173   0.000000
   80       10.935764   0.000000
 
  0.3333333E+00  0.4022782E-15  0.1250000E+00  0.4166667E-01
    1      -11.423821   1.000000
    2      -11.134108   1.000000
    3      -11.010704   1.000000
    4      -10.183207   1.000000
    5      -10.045880   1.000000
    6       -9.728824   1.000000
    7       -9.653105   1.000000
    8       -9.506319   1.000000
    9       -9.401343   1.000000
   10       -9.259262   1.000000
   11       -9.152636   1.000000
   12       -9.148591   1.000000
   13       -4.293276   1.000000
   14       -3.815122   1.000000
   15       -3.554405   1.000000
   16       -3.496315   1.000000
   17       -3.160365   1.000000
   18       -2.946234   1.000000
   19       -2.740650   1.000000
   20       -2.679823   1.000000
   21       -2.369082   1.000000
   22       -1.645634   1.000000
   23       -1.343195   1.000000
   24       -1.260000   1.000000
   25       -0.953136   1.000000
   26       -0.673793   1.000000
   27       -0.421180   1.000000
   28       -0.193279   1.000000
   29       -0.056304   1.000000
   30        0.141761   1.000000
   31        0.367614   1.000000
   32        0.412330   1.000000
   33        0.597461   1.000000
   34        0.684348   1.000000
   35        0.770300   1.000000
   36        0.947887   1.000000
   37        1.121975   1.000000
   38        1.355624   1.000000
   39        1.471047   1.000000
   40        1.596251   1.000000
   41        1.748272   1.000000
   42        1.974384   1.000000
   43        2.196239   1.000000
   44        2.337741   1.000000
   45        2.583964   1.000000
   46        2.738354   1.000000
   47        2.935128   1.000000
   48        3.051849   1.000000
   49        3.219965   1.000000
   50        3.454111   1.000000
   51        3.566511   1.000000
   52        3.754801   1.000000
   53        3.849756   1.000000
   54        3.924296   1.000000
   55        4.174957   1.000000
   56        4.348729   1.000000
   57        4.414387   1.000000
   58        4.671056   1.000000
   59        4.809899   1.000000
   60        5.017355   1.000000
   61        5.394579   1.000000
   62        6.343163   1.040958
   63        6.478981   0.300813
   64        8.585912   0.000000
   65        8.702858   0.000000
   66        8.827436   0.000000
   67        9.045038   0.000000
   68        9.078218   0.000000
   69        9.258656   0.000000
   70        9.410333   0.000000
   71        9.618787   0.000000
   72        9.770882   0.000000
   73        9.976897   0.000000
   74       10.118088   0.000000
   75       10.285954   0.000000
   76       10.366271   0.000000
   77       10.583253   0.000000
   78       10.694835   0.000000
   79       10.798182   0.000000
   80       10.920370   0.000000
 
  0.5000000E+00  0.3678176E-15  0.1250000E+00  0.2083333E-01
    1      -11.349234   1.000000
    2      -11.230387   1.000000
    3      -11.025928   1.000000
    4      -10.167790   1.000000
    5       -9.863126   1.000000
    6       -9.843189   1.000000
    7       -9.644991   1.000000
    8       -9.586198   1.000000
    9       -9.403093   1.000000
   10       -9.260145   1.000000
   11       -9.139697   1.000000
   12       -9.139273   1.000000
   13       -4.071233   1.000000
   14       -3.916670   1.000000
   15       -3.623899   1.000000
   16       -3.416165   1.000000
   17       -3.119757   1.000000
   18       -3.020993   1.000000
   19       -2.878163   1.000000
   20       -2.645934   1.000000
   21       -2.553214   1.000000
   22       -1.545360   1.000000
   23       -1.343709   1.000000
   24       -1.323151   1.000000
   25       -0.806830   1.000000
   26       -0.714670   1.000000
   27       -0.311035   1.000000
   28       -0.218977   1.000000
   29       -0.132058   1.000000
   30        0.163767   1.000000
   31        0.399240   1.000000
   32        0.450921   1.000000
   33        0.634608   1.000000
   34        0.660763   1.000000
   35        0.750118   1.000000
   36        0.954495   1.000000
   37        1.032130   1.000000
   38        1.377077   1.000000
   39        1.439244   1.000000
   40        1.689542   1.000000
   41        1.768714   1.000000
   42        2.036600   1.000000
   43        2.095721   1.000000
   44        2.295309   1.000000
   45        2.610396   1.000000
   46        2.846304   1.000000
   47        3.032459   1.000000
   48        3.160776   1.000000
   49        3.236376   1.000000
   50        3.463448   1.000000
   51        3.579755   1.000000
   52        3.669146   1.000000
   53        3.699757   1.000000
   54        3.876477   1.000000
   55        4.270057   1.000000
   56        4.285069   1.000000
   57        4.337738   1.000000
   58        4.652184   1.000000
   59        4.820630   1.000000
   60        4.880819   1.000000
   61        5.428681   1.000000
   62        6.383687   1.034416
   63        6.437345   0.726557
   64        8.677175   0.000000
   65        8.744581   0.000000
   66        8.823302   0.000000
   67        9.092227   0.000000
   68        9.280406   0.000000
   69        9.339242   0.000000
   70        9.360094   0.000000
   71        9.568770   0.000000
   72        9.850716   0.000000
   73        9.996785   0.000000
   74       10.195216   0.000000
   75       10.233651   0.000000
   76       10.313550   0.000000
   77       10.392065   0.000000
   78       10.439643   0.000000
   79       10.771797   0.000000
   80       10.783321   0.000000
 
  0.1666667E+00  0.1666667E+00  0.1250000E+00  0.2083333E-01