 running on   16 total cores
 distrk:  each k-point on   16 cores,    1 groups
 distr:  one band on    4 cores,    4 groups
 using from now: INCAR     
 vasp.5.4.4.18Apr17-6-g9f103f2a35 (build Nov 01 2019 12:17:22) complex          
  
 POSCAR found type information on POSCAR  Si N 
 POSCAR found :  2 types and      28 ions
 WARNING: type information on POSCAR and POTCAR are incompatible
 POTCAR overwrites the type information in POSCAR
 typ   1 type information:  Si N 
 WARNING: type information on POSCAR and POTCAR are incompatible
 POTCAR overwrites the type information in POSCAR
 typ   2 type information:  N  Si
 LDA part: xc-table for Pade appr. of Perdew
 generate k-points for:    6    6    8
 POSCAR, INCAR and KPOINTS ok, starting setup
 FFT: planning ...
 WAVECAR not read
 entering main loop
       N       E                     dE             d eps       ncg     rms          rms(c)
DAV:   1     0.466457507666E+03    0.46646E+03   -0.48403E+04  7040   0.111E+03
DAV:   2    -0.165840552869E+03   -0.63230E+03   -0.60680E+03  8768   0.235E+02
DAV:   3    -0.221331922155E+03   -0.55491E+02   -0.54916E+02  8512   0.740E+01
DAV:   4    -0.222833758293E+03   -0.15018E+01   -0.14921E+01  8888   0.126E+01
DAV:   5    -0.222872816775E+03   -0.39058E-01   -0.38994E-01  8616   0.196E+00    0.324E+01
RMM:   6    -0.201166134703E+03    0.21707E+02   -0.11423E+02  7058   0.258E+01    0.142E+01
RMM:   7    -0.200819309779E+03    0.34682E+00   -0.35641E+00  7573   0.419E+00    0.816E+00
RMM:   8    -0.200707249414E+03    0.11206E+00   -0.15351E+00  7040   0.313E+00    0.176E+00
RMM:   9    -0.200630488899E+03    0.76761E-01   -0.83403E-02  7040   0.787E-01    0.946E-01
RMM:  10    -0.200618041023E+03    0.12448E-01   -0.23808E-01  7044   0.113E+00    0.556E-01
RMM:  11    -0.200615561274E+03    0.24797E-02   -0.11355E-02  7047   0.274E-01    0.264E-01
RMM:  12    -0.200614669575E+03    0.89170E-03   -0.74365E-03  7040   0.219E-01    0.107E-01
RMM:  13    -0.200614434164E+03    0.23541E-03   -0.77634E-04  6161   0.655E-02    0.368E-02
RMM:  14    -0.200614408133E+03    0.26031E-04   -0.56327E-05  4261   0.243E-02
   1 F= -.20061441E+03 E0= -.20061212E+03  d E =-.200614E+03
 curvature:   0.00 expect dE= 0.000E+00 dE for cont linesearch  0.000E+00
 trial: gam= 0.00000 g(F)=  0.309E+00 g(S)=  0.000E+00 ort = 0.000E+00 (trialstep = 0.100E+01)
 search vector abs. value=  0.309E+00
 bond charge predicted
       N       E                     dE             d eps       ncg     rms          rms(c)
DAV:   1    -0.200777963755E+03   -0.16353E+00   -0.20520E+01  7680   0.173E+01    0.104E+00
RMM:   2    -0.200812468831E+03   -0.34505E-01   -0.45846E-01  7040   0.216E+00    0.588E-01
RMM:   3    -0.200806839471E+03    0.56294E-02   -0.23616E-02  7170   0.454E-01    0.376E-01
RMM:   4    -0.200805170012E+03    0.16695E-02   -0.11251E-02  7040   0.287E-01    0.125E-01
RMM:   5    -0.200805150033E+03    0.19978E-04   -0.69608E-04  6168   0.652E-02
   2 F= -.20080515E+03 E0= -.20080256E+03  d E =-.190742E+00
 trial-energy change:   -0.190742  1 .order   -0.190075   -0.309220   -0.070931
 step:   1.2913(harm=  1.2977)  dis= 0.03353  next Energy=  -200.815499 (dE=-0.201E+00)
 bond charge predicted
       N       E                     dE             d eps       ncg     rms          rms(c)
DAV:   1    -0.200813057119E+03   -0.78871E-02   -0.17430E+00  7992   0.506E+00    0.307E-01
RMM:   2    -0.200815986188E+03   -0.29291E-02   -0.37672E-02  7040   0.619E-01    0.183E-01
RMM:   3    -0.200815575803E+03    0.41039E-03   -0.20486E-03  7176   0.134E-01    0.121E-01
RMM:   4    -0.200815463946E+03    0.11186E-03   -0.76464E-04  6770   0.762E-02    0.404E-02
RMM:   5    -0.200815471179E+03   -0.72329E-05   -0.46783E-05  4252   0.204E-02
   3 F= -.20081547E+03 E0= -.20081285E+03  d E =-.201063E+00
 curvature:  -0.65 expect dE=-0.823E-01 dE for cont linesearch -0.125E-05
 trial: gam= 0.41306 g(F)=  0.127E+00 g(S)=  0.000E+00 ort =-0.773E-03 (trialstep = 0.106E+01)
 search vector abs. value=  0.179E+00
 bond charge predicted
       N       E                     dE             d eps       ncg     rms          rms(c)
DAV:   1    -0.200894465368E+03   -0.79001E-01   -0.11133E+01  7040   0.125E+01    0.761E-01
RMM:   2    -0.200915266897E+03   -0.20802E-01   -0.24495E-01  7040   0.155E+00    0.382E-01
RMM:   3    -0.200913272844E+03    0.19941E-02   -0.11826E-02  7307   0.294E-01    0.270E-01
RMM:   4    -0.200912149338E+03    0.11235E-02   -0.37801E-03  7040   0.160E-01    0.126E-01
RMM:   5    -0.200912053721E+03    0.95617E-04   -0.10838E-03  6693   0.794E-02    0.446E-02
RMM:   6    -0.200912027810E+03    0.25911E-04   -0.12058E-04  4263   0.291E-02
   4 F= -.20091203E+03 E0= -.20090950E+03  d E =-.965566E-01
 trial-energy change:   -0.096557  1 .order   -0.096431   -0.134012   -0.058850
 step:   1.8869(harm=  1.8869)  dis= 0.02535  next Energy=  -200.934942 (dE=-0.119E+00)
 bond charge predicted
       N       E                     dE             d eps       ncg     rms          rms(c)
DAV:   1    -0.200925572770E+03   -0.13519E-01   -0.68357E+00  7056   0.977E+00    0.604E-01
RMM:   2    -0.200938850428E+03   -0.13278E-01   -0.15212E-01  7040   0.121E+00    0.332E-01
RMM:   3    -0.200936848438E+03    0.20020E-02   -0.79401E-03  7314   0.230E-01    0.243E-01
RMM:   4    -0.200935874041E+03    0.97440E-03   -0.21573E-03  7042   0.122E-01    0.131E-01
RMM:   5    -0.200935745303E+03    0.12874E-03   -0.13035E-03  6871   0.877E-02    0.378E-02
RMM:   6    -0.200935733513E+03    0.11790E-04   -0.57364E-05  4254   0.217E-02
   5 F= -.20093573E+03 E0= -.20093332E+03  d E =-.120262E+00
 curvature:  -1.33 expect dE=-0.847E-01 dE for cont linesearch -0.114E-04
 trial: gam= 0.48638 g(F)=  0.635E-01 g(S)=  0.000E+00 ort = 0.123E-02 (trialstep = 0.122E+01)
 search vector abs. value=  0.107E+00
 bond charge predicted
       N       E                     dE             d eps       ncg     rms          rms(c)
DAV:   1    -0.200955677249E+03   -0.19932E-01   -0.13721E+01  7056   0.141E+01    0.991E-01
RMM:   2    -0.200983907884E+03   -0.28231E-01   -0.32337E-01  7040   0.176E+00    0.471E-01
RMM:   3    -0.200978452721E+03    0.54552E-02   -0.17684E-02  7326   0.329E-01    0.308E-01
RMM:   4    -0.200976158863E+03    0.22939E-02   -0.34829E-03  7046   0.164E-01    0.167E-01
RMM:   5    -0.200975691908E+03    0.46696E-03   -0.28709E-03  7040   0.138E-01    0.408E-02
RMM:   6    -0.200975676414E+03    0.15493E-04   -0.77533E-05  4261   0.261E-02
   6 F= -.20097568E+03 E0= -.20097325E+03  d E =-.399429E-01
 trial-energy change:   -0.039943  1 .order   -0.040009   -0.078437   -0.001581
 step:   1.2492(harm=  1.2492)  dis= 0.01524  next Energy=  -200.975759 (dE=-0.400E-01)
 bond charge predicted
       N       E                     dE             d eps       ncg     rms          rms(c)
DAV:   1    -0.200975688844E+03    0.30635E-05   -0.59640E-03  8136   0.294E-01    0.221E-02
RMM:   2    -0.200975700166E+03   -0.11322E-04   -0.12752E-04  3982   0.374E-02
   7 F= -.20097570E+03 E0= -.20097328E+03  d E =-.399667E-01
 curvature:  -1.04 expect dE=-0.262E-01 dE for cont linesearch -0.212E-07
 trial: gam= 0.42241 g(F)=  0.251E-01 g(S)=  0.000E+00 ort =-0.466E-04 (trialstep = 0.123E+01)
 search vector abs. value=  0.442E-01
 bond charge predicted
       N       E                     dE             d eps       ncg     rms          rms(c)
DAV:   1    -0.200993519413E+03   -0.17831E-01   -0.20510E+00  7184   0.544E+00    0.477E-01
RMM:   2    -0.200999388575E+03   -0.58692E-02   -0.47788E-02  7040   0.718E-01    0.357E-01
RMM:   3    -0.200994999751E+03    0.43888E-02   -0.45584E-03  7073   0.159E-01    0.174E-01
RMM:   4    -0.200994887131E+03    0.11262E-03   -0.72060E-04  6617   0.736E-02    0.104E-01
RMM:   5    -0.200994908809E+03   -0.21678E-04   -0.27910E-04  4352   0.507E-02
   8 F= -.20099491E+03 E0= -.20099267E+03  d E =-.192086E-01
 trial-energy change:   -0.019209  1 .order   -0.019252   -0.030818   -0.007686
 step:   1.6374(harm=  1.6374)  dis= 0.01476  next Energy=  -200.996229 (dE=-0.205E-01)
 bond charge predicted
       N       E                     dE             d eps       ncg     rms          rms(c)
DAV:   1    -0.200995916003E+03   -0.10289E-02   -0.22526E-01  7784   0.180E+00    0.161E-01
RMM:   2    -0.200996688039E+03   -0.77204E-03   -0.53113E-03  7040   0.238E-01    0.136E-01
RMM:   3    -0.200996110458E+03    0.57758E-03   -0.55154E-04  5377   0.548E-02    0.605E-02
RMM:   4    -0.200996103046E+03    0.74126E-05   -0.80844E-05  4241   0.290E-02
   9 F= -.20099610E+03 E0= -.20099395E+03  d E =-.204029E-01
 curvature:  -1.44 expect dE=-0.919E-02 dE for cont linesearch -0.108E-05
 trial: gam= 0.26160 g(F)=  0.637E-02 g(S)=  0.000E+00 ort =-0.182E-03 (trialstep = 0.131E+01)
 search vector abs. value=  0.930E-02
 bond charge predicted
       N       E                     dE             d eps       ncg     rms          rms(c)
DAV:   1    -0.200998556439E+03   -0.24460E-02   -0.12105E+00  7072   0.424E+00    0.308E-01
RMM:   2    -0.201001315816E+03   -0.27594E-02   -0.30629E-02  7040   0.540E-01    0.175E-01
RMM:   3    -0.201000689597E+03    0.62622E-03   -0.17734E-03  7122   0.107E-01    0.115E-01
RMM:   4    -0.201000455448E+03    0.23415E-03   -0.38736E-04  5589   0.550E-02    0.662E-02
RMM:   5    -0.201000412237E+03    0.43211E-04   -0.28384E-04  4348   0.485E-02
  10 F= -.20100041E+03 E0= -.20099833E+03  d E =-.430919E-02
 trial-energy change:   -0.004309  1 .order   -0.004354   -0.008293   -0.000415
 step:   1.3798(harm=  1.3798)  dis= 0.00850  next Energy=  -201.000468 (dE=-0.436E-02)
 bond charge predicted
       N       E                     dE             d eps       ncg     rms          rms(c)
DAV:   1    -0.201000407132E+03    0.48316E-04   -0.32937E-03  8096   0.220E-01    0.195E-02
RMM:   2    -0.201000415801E+03   -0.86697E-05   -0.76798E-05  3813   0.297E-02
  11 F= -.20100042E+03 E0= -.20099832E+03  d E =-.431276E-02
 curvature:  -1.01 expect dE=-0.238E-02 dE for cont linesearch -0.933E-05
 trial: gam= 0.39171 g(F)=  0.234E-02 g(S)=  0.000E+00 ort =-0.292E-03 (trialstep = 0.132E+01)
 search vector abs. value=  0.354E-02
 bond charge predicted
       N       E                     dE             d eps       ncg     rms          rms(c)
DAV:   1    -0.201001894618E+03   -0.14875E-02   -0.44883E-01  7120   0.258E+00    0.123E-01
RMM:   2    -0.201002570056E+03   -0.67544E-03   -0.80018E-03  7040   0.278E-01    0.670E-02
RMM:   3    -0.201002520089E+03    0.49968E-04   -0.39059E-04  5147   0.553E-02
  12 F= -.20100252E+03 E0= -.20100038E+03  d E =-.210429E-02
 trial-energy change:   -0.002104  1 .order   -0.002112   -0.002954   -0.001271
 step:   2.3248(harm=  2.3248)  dis= 0.01376  next Energy=  -201.003008 (dE=-0.259E-02)
 bond charge predicted
       N       E                     dE             d eps       ncg     rms          rms(c)
DAV:   1    -0.201002549239E+03    0.20817E-04   -0.25126E-01  7152   0.193E+00    0.964E-02
RMM:   2    -0.201002889572E+03   -0.34033E-03   -0.42976E-03  7040   0.205E-01    0.637E-02
RMM:   3    -0.201002857159E+03    0.32413E-04   -0.23138E-04  4764   0.414E-02
  13 F= -.20100286E+03 E0= -.20100073E+03  d E =-.244136E-02
 curvature:  -1.85 expect dE=-0.389E-02 dE for cont linesearch -0.107E-04
 trial: gam= 0.92340 g(F)=  0.211E-02 g(S)=  0.000E+00 ort =-0.143E-03 (trialstep = 0.111E+01)
 search vector abs. value=  0.486E-02
 bond charge predicted
       N       E                     dE             d eps       ncg     rms          rms(c)
DAV:   1    -0.201003497798E+03   -0.60823E-03   -0.31041E-01  7040   0.209E+00    0.133E-01
RMM:   2    -0.201004019893E+03   -0.52210E-03   -0.66628E-03  7040   0.259E-01    0.756E-02
RMM:   3    -0.201003954971E+03    0.64922E-04   -0.30258E-04  4872   0.503E-02
  14 F= -.20100395E+03 E0= -.20100190E+03  d E =-.109781E-02
 trial-energy change:   -0.001098  1 .order   -0.001174   -0.002192   -0.000157
 step:   1.1964(harm=  1.1964)  dis= 0.00890  next Energy=  -201.004038 (dE=-0.118E-02)
 bond charge predicted
       N       E                     dE             d eps       ncg     rms          rms(c)
DAV:   1    -0.201003909063E+03    0.11083E-03   -0.17230E-03  8152   0.153E-01    0.391E-02
RMM:   2    -0.201003902859E+03    0.62039E-05   -0.46390E-05  3835   0.232E-02
  15 F= -.20100390E+03 E0= -.20100183E+03  d E =-.104570E-02
 curvature:  -1.47 expect dE=-0.534E-03 dE for cont linesearch -0.229E-05
 trial: gam= 0.11940 g(F)=  0.363E-03 g(S)=  0.000E+00 ort =-0.869E-04 (trialstep = 0.113E+01)
 search vector abs. value=  0.411E-03
 bond charge predicted
       N       E                     dE             d eps       ncg     rms          rms(c)
DAV:   1    -0.201004146694E+03   -0.23763E-03   -0.16209E-02  7472   0.491E-01    0.354E-02
RMM:   2    -0.201004178995E+03   -0.32302E-04   -0.29222E-04  4777   0.582E-02
  16 F= -.20100418E+03 E0= -.20100206E+03  d E =-.276137E-03
 trial-energy change:   -0.000276  1 .order   -0.000254   -0.000397   -0.000110
 step:   1.5600(harm=  1.5600)  dis= 0.00286  next Energy=  -201.004178 (dE=-0.275E-03)
 bond charge predicted
       N       E                     dE             d eps       ncg     rms          rms(c)
DAV:   1    -0.201004209858E+03   -0.63165E-04   -0.25646E-03  8024   0.192E-01    0.273E-02
RMM:   2    -0.201004217973E+03   -0.81145E-05   -0.68966E-05  3693   0.290E-02
  17 F= -.20100422E+03 E0= -.20100211E+03  d E =-.315114E-03
 curvature:  -0.91 expect dE=-0.126E-03 dE for cont linesearch -0.275E-05
 trial: gam= 0.22814 g(F)=  0.139E-03 g(S)=  0.000E+00 ort = 0.352E-04 (trialstep = 0.121E+01)
 search vector abs. value=  0.176E-03
 reached required accuracy - stopping structural energy minimisation
