 vasp.5.4.4.18Apr17-6-g9f103f2a35 (build Nov 01 2019 12:17:22) complex          
  
 executed on             LinuxIFC date 2023.05.19  18:21:56
 running on   16 total cores
 distrk:  each k-point on   16 cores,    1 groups
 distr:  one band on NCORES_PER_BAND=   4 cores,    4 groups


--------------------------------------------------------------------------------------------------------


 INCAR:
 POTCAR:    PAW_PBE N 08Apr2002                   
 POTCAR:    PAW_PBE Si 05Jan2001                  
 POTCAR:    PAW_PBE N 08Apr2002                   
   VRHFIN =N: s2p3                                                              
   LEXCH  = PE                                                                  
   EATOM  =   264.5486 eV,   19.4438 Ry                                         
                                                                                
   TITEL  = PAW_PBE N 08Apr2002                                                 
   LULTRA =        F    use ultrasoft PP ?                                      
   IUNSCR =        1    unscreen: 0-lin 1-nonlin 2-no                           
   RPACOR =    1.200    partial core radius                                     
   POMASS =   14.001; ZVAL   =    5.000    mass and valenz                      
   RCORE  =    1.500    outmost cutoff radius                                   
   RWIGS  =    1.400; RWIGS  =    0.741    wigner-seitz radius (au A)           
   ENMAX  =  400.000; ENMIN  =  300.000 eV                                      
   ICORE  =        2    local potential                                         
   LCOR   =        T    correct aug charges                                     
   LPAW   =        T    paw PP                                                  
   EAUG   =  627.112                                                            
   DEXC   =    0.000                                                            
   RMAX   =    1.529    core radius for proj-oper                               
   RAUG   =    1.300    factor for augmentation sphere                          
   RDEP   =    1.514    radius for radial grids                                 
   RDEPT  =    1.338    core radius for aug-charge                              
                                                                                
   Atomic configuration                                                         
    4 entries                                                                   
     n  l   j            E        occ.                                          
     1  0  0.50      -384.7179   2.0000                                         
     2  0  0.50       -18.5828   2.0000                                         
     2  1  0.50        -7.0898   3.0000                                         
     3  2  1.50        -6.8029   0.0000                                         
   Description                                                                  
     l       E           TYP  RCUT    TYP  RCUT                                 
     0    -18.5828119     23  1.200                                             
     0    -13.5018863     23  1.200                                             
     1     -7.0897853     23  1.500                                             
     1      9.5240782     23  1.500                                             
     2     -6.8029130      7  1.500                                             
  local pseudopotential read in
  partial core-charges read in
  partial kinetic energy density read in
  atomic valenz-charges read in
  non local Contribution for L=           0  read in
    real space projection operators read in
  non local Contribution for L=           0  read in
    real space projection operators read in
  non local Contribution for L=           1  read in
    real space projection operators read in
  non local Contribution for L=           1  read in
    real space projection operators read in
    PAW grid and wavefunctions read in
 
   number of l-projection  operators is LMAX  =           4
   number of lm-projection operators is LMMAX =           8
 
 POTCAR:    PAW_PBE Si 05Jan2001                  
   VRHFIN =Si: s2p2                                                             
   LEXCH  = PE                                                                  
   EATOM  =   103.0669 eV,    7.5752 Ry                                         
                                                                                
   TITEL  = PAW_PBE Si 05Jan2001                                                
   LULTRA =        F    use ultrasoft PP ?                                      
   IUNSCR =        1    unscreen: 0-lin 1-nonlin 2-no                           
   RPACOR =    1.500    partial core radius                                     
   POMASS =   28.085; ZVAL   =    4.000    mass and valenz                      
   RCORE  =    1.900    outmost cutoff radius                                   
   RWIGS  =    2.480; RWIGS  =    1.312    wigner-seitz radius (au A)           
   ENMAX  =  245.345; ENMIN  =  184.009 eV                                      
   ICORE  =        2    local potential                                         
   LCOR   =        T    correct aug charges                                     
   LPAW   =        T    paw PP                                                  
   EAUG   =  322.069                                                            
   DEXC   =    0.000                                                            
   RMAX   =    1.950    core radius for proj-oper                               
   RAUG   =    1.300    factor for augmentation sphere                          
   RDEP   =    1.993    radius for radial grids                                 
   RDEPT  =    1.837    core radius for aug-charge                              
                                                                                
   Atomic configuration                                                         
    6 entries                                                                   
     n  l   j            E        occ.                                          
     1  0  0.50     -1785.8828   2.0000                                         
     2  0  0.50      -139.4969   2.0000                                         
     2  1  1.50       -95.5546   6.0000                                         
     3  0  0.50       -10.8127   2.0000                                         
     3  1  0.50        -4.0811   2.0000                                         
     3  2  1.50        -4.0817   0.0000                                         
   Description                                                                  
     l       E           TYP  RCUT    TYP  RCUT                                 
     0    -10.8127223     23  1.900                                             
     0     -7.6451159     23  1.900                                             
     1     -4.0811372     23  1.900                                             
     1      2.4879257     23  1.900                                             
     2     -4.0817478      7  1.900                                             
  local pseudopotential read in
  partial core-charges read in
  partial kinetic energy density read in
  atomic valenz-charges read in
  non local Contribution for L=           0  read in
    real space projection operators read in
  non local Contribution for L=           0  read in
    real space projection operators read in
  non local Contribution for L=           1  read in
    real space projection operators read in
  non local Contribution for L=           1  read in
    real space projection operators read in
    PAW grid and wavefunctions read in
 
   number of l-projection  operators is LMAX  =           4
   number of lm-projection operators is LMMAX =           8
 
 Optimization of the real space projectors (new method)

 maximal supplied QI-value         = 25.13
 optimisation between [QCUT,QGAM] = [ 10.05, 20.36] = [ 28.30,116.06] Ry 
 Optimized for a Real-space Cutoff    1.70 Angstroem

   l    n(q)    QCUT    max X(q) W(low)/X(q) W(high)/X(q)  e(spline) 
   0     10    10.053    79.467    0.61E-04    0.98E-04    0.61E-06
   0     10    10.053    66.151    0.60E-04    0.98E-04    0.61E-06
   1     10    10.053     8.350    0.17E-03    0.71E-03    0.45E-05
   1     10    10.053     5.531    0.18E-03    0.77E-03    0.49E-05
 Optimization of the real space projectors (new method)

 maximal supplied QI-value         = 19.84
 optimisation between [QCUT,QGAM] = [ 10.12, 20.44] = [ 28.68,116.96] Ry 
 Optimized for a Real-space Cutoff    1.38 Angstroem

   l    n(q)    QCUT    max X(q) W(low)/X(q) W(high)/X(q)  e(spline) 
   0      8    10.119   159.560    0.58E-04    0.11E-03    0.54E-07
   0      8    10.119   115.863    0.56E-04    0.11E-03    0.54E-07
   1      8    10.119    88.339    0.22E-03    0.17E-03    0.19E-06
   1      8    10.119    48.592    0.22E-03    0.17E-03    0.18E-06
  PAW_PBE N 08Apr2002                   :
 energy of atom  1       EATOM= -264.5486
 kinetic energy error for atom=    0.0736 (will be added to EATOM!!)
  PAW_PBE Si 05Jan2001                  :
 energy of atom  2       EATOM= -103.0669
 kinetic energy error for atom=    0.0012 (will be added to EATOM!!)
 
 
 POSCAR: Si12 N16                                
  positions in direct lattice
  No initial velocities read in
 exchange correlation table for  LEXCH =        8
   RHO(1)=    0.500       N(1)  =     2000
   RHO(2)=  100.500       N(2)  =     4000
 


--------------------------------------------------------------------------------------------------------


 ion  position               nearest neighbor table
   1  0.008  0.647  0.213-  14 1.80  23 1.82  25 1.84
   2  0.639  0.992  0.213-  16 1.80  22 1.82  28 1.84
   3  0.914  0.322  0.992-  22 1.81  25 1.83  18 1.84
   4  0.647  0.008  0.713-  22 1.80  16 1.82  26 1.84
   5  0.086  0.407  0.492-  13 1.81  18 1.83  25 1.84
   6  0.322  0.914  0.492-  14 1.81  26 1.83  28 1.84
   7  0.353  0.361  0.213-  13 1.80  15 1.82  21 1.84
   8  0.593  0.678  0.492-  16 1.81  27 1.83  21 1.84
   9  0.992  0.639  0.713-  23 1.80  14 1.82  18 1.84
  10  0.361  0.353  0.713-  15 1.80  13 1.82  27 1.84
  11  0.678  0.593  0.992-  23 1.81  21 1.83  27 1.84
  12  0.407  0.086  0.992-  15 1.81  28 1.83  26 1.84
  13  0.213  0.300  0.467-   7 1.80   5 1.81  10 1.82  19 2.38  21 3.04  18 3.12  15 3.15  15 3.15

  14  0.087  0.787  0.467-   1 1.80   6 1.81   9 1.82  19 2.38  25 3.04  26 3.12  23 3.15  23 3.15

  15  0.300  0.213  0.967-  10 1.80  12 1.81   7 1.82  17 2.38  27 3.04  28 3.12  13 3.15  13 3.15

  16  0.700  0.913  0.467-   2 1.80   8 1.81   4 1.82  19 2.38  28 3.04  27 3.12  22 3.15  22 3.15

  17  0.000  0.000  0.957-  22 2.38  23 2.38  15 2.38  19 2.85  19 2.85
  18  0.067  0.484  0.783-   5 1.83   3 1.84   9 1.84  24 2.37  25 3.03  25 3.03  23 3.04  13 3.12

  19  0.000  0.000  0.457-  14 2.38  16 2.38  13 2.38  17 2.85  17 2.85
  20  0.667  0.333  0.476-  21 2.37  28 2.37  25 2.37
  21  0.582  0.516  0.283-  11 1.83   8 1.84   7 1.84  20 2.37  27 3.03  27 3.03  13 3.04  23 3.12

  22  0.787  0.087  0.967-   4 1.80   3 1.81   2 1.82  17 2.38  26 3.04  25 3.12  16 3.15  16 3.15

  23  0.913  0.700  0.967-   9 1.80  11 1.81   1 1.82  17 2.38  18 3.04  21 3.12  14 3.15  14 3.15

  24  0.333  0.667  0.976-  27 2.37  18 2.37  26 2.37
  25  0.933  0.418  0.283-   3 1.83   5 1.84   1 1.84  20 2.37  18 3.03  18 3.03  14 3.04  22 3.12

  26  0.418  0.933  0.783-   6 1.83  12 1.84   4 1.84  24 2.37  28 3.03  28 3.03  22 3.04  14 3.12

  27  0.516  0.582  0.783-   8 1.83  11 1.84  10 1.84  24 2.37  21 3.03  21 3.03  15 3.04  16 3.12

  28  0.484  0.067  0.283-  12 1.83   6 1.84   2 1.84  20 2.37  26 3.03  26 3.03  16 3.04  15 3.12

 
  LATTYP: Found a hexagonal cell.
 ALAT       =     8.8847544391
 C/A-ratio  =     0.6407499831
  
  Lattice vectors:
  
 A1 = (   4.4423772196,  -7.6944230507,   0.0000000000)
 A2 = (   4.4423772196,   7.6944230507,   0.0000000000)
 A3 = (   0.0000000000,   0.0000000000,   5.6929062570)


Analysis of symmetry for initial positions (statically):
=====================================================================
 Subroutine PRICEL returns:
 Original cell was already a primitive cell.
 

 Routine SETGRP: Setting up the symmetry group for a 
 hexagonal supercell.


 Subroutine GETGRP returns: Found  6 space group operations
 (whereof  3 operations were pure point group operations)
 out of a pool of 24 trial point group operations.


The static configuration has the point symmetry C_3 .
 The point group associated with its full space group is C_3v.


Analysis of symmetry for dynamics (positions and initial velocities):
=====================================================================
 Subroutine PRICEL returns:
 Original cell was already a primitive cell.
 

 Routine SETGRP: Setting up the symmetry group for a 
 hexagonal supercell.


 Subroutine GETGRP returns: Found  6 space group operations
 (whereof  3 operations were pure point group operations)
 out of a pool of 24 trial point group operations.


The dynamic configuration has the point symmetry C_3 .
 The point group associated with its full space group is C_3v.


 Subroutine INISYM returns: Found  6 space group operations
 (whereof  3 operations are pure point group operations),
 and found     1 'primitive' translations

 
 
 KPOINTS: Automatic mesh                          

Automatic generation of k-mesh.
 generate k-points for:    6    6    8
Space group operators:
 irot       det(A)        alpha          n_x          n_y          n_z        tau_x        tau_y        tau_z
    1     1.000000     0.000001     1.000000     0.000000     0.000000     0.000000     0.000000     0.000000
    2     1.000000   120.000000     0.000000     0.000000    -1.000000     0.000000     0.000000     0.000000
    3     1.000000   120.000000     0.000000     0.000000     1.000000     0.000000     0.000000     0.000000
    4    -1.000000   180.000000     0.000000     1.000000     0.000000     0.000000     0.000000     0.500000
    5    -1.000000   179.999999     0.866025     0.500000     0.000000     0.000000     0.000000     0.500000
    6    -1.000000   179.999999     0.866025    -0.500000     0.000000     0.000000     0.000000     0.500000
 
 Subroutine IBZKPT returns following result:
 ===========================================
 
 Found     44 irreducible k-points:
 
 Following reciprocal coordinates:
            Coordinates               Weight
  0.000000  0.000000  0.000000      1.000000
  0.166667  0.000000  0.000000      6.000000
  0.333333  0.000000  0.000000      6.000000
  0.500000  0.000000  0.000000      3.000000
  0.166667  0.166667  0.000000      6.000000
  0.333333  0.166667  0.000000     12.000000
  0.333333  0.333333  0.000000      2.000000
  0.000000  0.000000  0.125000      2.000000
  0.166667  0.000000  0.125000     12.000000
  0.333333  0.000000  0.125000     12.000000
  0.500000  0.000000  0.125000      6.000000
  0.166667  0.166667  0.125000      6.000000
  0.333333  0.166667  0.125000     12.000000
  0.333333  0.333333  0.125000      2.000000
 -0.166667  0.333333  0.125000      6.000000
 -0.333333  0.500000  0.125000     12.000000
 -0.333333 -0.333333  0.125000      2.000000
  0.000000  0.000000  0.250000      2.000000
  0.166667  0.000000  0.250000     12.000000
  0.333333  0.000000  0.250000     12.000000
  0.500000  0.000000  0.250000      6.000000
  0.166667  0.166667  0.250000      6.000000
  0.333333  0.166667  0.250000     12.000000
  0.333333  0.333333  0.250000      2.000000
 -0.166667  0.333333  0.250000      6.000000
 -0.333333  0.500000  0.250000     12.000000
 -0.333333 -0.333333  0.250000      2.000000
  0.000000  0.000000  0.375000      2.000000
  0.166667  0.000000  0.375000     12.000000
  0.333333  0.000000  0.375000     12.000000
  0.500000  0.000000  0.375000      6.000000
  0.166667  0.166667  0.375000      6.000000
  0.333333  0.166667  0.375000     12.000000
  0.333333  0.333333  0.375000      2.000000
 -0.166667  0.333333  0.375000      6.000000
 -0.333333  0.500000  0.375000     12.000000
 -0.333333 -0.333333  0.375000      2.000000
  0.000000  0.000000  0.500000      1.000000
  0.166667  0.000000  0.500000      6.000000
  0.333333  0.000000  0.500000      6.000000
  0.500000  0.000000  0.500000      3.000000
  0.166667  0.166667  0.500000      6.000000
  0.333333  0.166667  0.500000     12.000000
  0.333333  0.333333  0.500000      2.000000
 
 Following cartesian coordinates:
            Coordinates               Weight
  0.000000  0.000000  0.000000      1.000000
  0.018759 -0.010830  0.000000      6.000000
  0.037517 -0.021661  0.000000      6.000000
  0.056276 -0.032491  0.000000      3.000000
  0.037517  0.000000  0.000000      6.000000
  0.056276 -0.010830  0.000000     12.000000
  0.075035 -0.000000  0.000000      2.000000
  0.000000  0.000000  0.021957      2.000000
  0.018759 -0.010830  0.021957     12.000000
  0.037517 -0.021661  0.021957     12.000000
  0.056276 -0.032491  0.021957      6.000000
  0.037517  0.000000  0.021957      6.000000
  0.056276 -0.010830  0.021957     12.000000
  0.075035 -0.000000  0.021957      2.000000
  0.018759  0.032491  0.021957      6.000000
  0.018759  0.054152  0.021957     12.000000
 -0.075035  0.000000  0.021957      2.000000
  0.000000  0.000000  0.043914      2.000000
  0.018759 -0.010830  0.043914     12.000000
  0.037517 -0.021661  0.043914     12.000000
  0.056276 -0.032491  0.043914      6.000000
  0.037517  0.000000  0.043914      6.000000
  0.056276 -0.010830  0.043914     12.000000
  0.075035 -0.000000  0.043914      2.000000
  0.018759  0.032491  0.043914      6.000000
  0.018759  0.054152  0.043914     12.000000
 -0.075035  0.000000  0.043914      2.000000
  0.000000  0.000000  0.065871      2.000000
  0.018759 -0.010830  0.065871     12.000000
  0.037517 -0.021661  0.065871     12.000000
  0.056276 -0.032491  0.065871      6.000000
  0.037517  0.000000  0.065871      6.000000
  0.056276 -0.010830  0.065871     12.000000
  0.075035 -0.000000  0.065871      2.000000
  0.018759  0.032491  0.065871      6.000000
  0.018759  0.054152  0.065871     12.000000
 -0.075035  0.000000  0.065871      2.000000
  0.000000  0.000000  0.087829      1.000000
  0.018759 -0.010830  0.087829      6.000000
  0.037517 -0.021661  0.087829      6.000000
  0.056276 -0.032491  0.087829      3.000000
  0.037517  0.000000  0.087829      6.000000
  0.056276 -0.010830  0.087829     12.000000
  0.075035 -0.000000  0.087829      2.000000
 


--------------------------------------------------------------------------------------------------------




 Dimension of arrays:
   k-points           NKPTS =     44   k-points in BZ     NKDIM =     44   number of bands    NBANDS=     80
   number of dos      NEDOS =    301   number of ions     NIONS =     28
   non local maximal  LDIM  =      4   non local SUM 2l+1 LMDIM =      8
   total plane-waves  NPLWV = 144000
   max r-space proj   IRMAX =   7636   max aug-charges    IRDMAX=  12569
   dimension x,y,z NGX =    60 NGY =   60 NGZ =   40
   dimension x,y,z NGXF=   120 NGYF=  120 NGZF=   80
   support grid    NGXF=   120 NGYF=  120 NGZF=   80
   ions per type =              12  16
   NGX,Y,Z   is equivalent  to a cutoff of  11.23, 11.23, 11.68 a.u.
   NGXF,Y,Z  is equivalent  to a cutoff of  22.45, 22.45, 23.36 a.u.

 SYSTEM =  unknown system                          
 POSCAR =  Si12 N16                                

 Startparameter for this run:
   NWRITE =      2    write-flag & timer
   PREC   = accura    normal or accurate (medium, high low for compatibility)
   ISTART =      0    job   : 0-new  1-cont  2-samecut
   ICHARG =      2    charge: 1-file 2-atom 10-const
   ISPIN  =      1    spin polarized calculation?
   LNONCOLLINEAR =      F non collinear calculations
   LSORBIT =      F    spin-orbit coupling
   INIWAV =      1    electr: 0-lowe 1-rand  2-diag
   LASPH  =      F    aspherical Exc in radial PAW
   METAGGA=      F    non-selfconsistent MetaGGA calc.

 Electronic Relaxation 1
   ENCUT  =  400.0 eV  29.40 Ry    5.42 a.u.  14.49 14.49  9.28*2*pi/ulx,y,z
   ENINI  =  400.0     initial cutoff
   ENAUG  =  627.1 eV  augmentation charge cutoff
   NELM   =     60;   NELMIN=  2; NELMDL= -5     # of ELM steps 
   EDIFF  = 0.1E-03   stopping-criterion for ELM
   LREAL  =      T    real-space projection
   NLSPLINE    = F    spline interpolate recip. space projectors
   LCOMPAT=      F    compatible to vasp.4.4
   GGA_COMPAT  = T    GGA compatible to vasp.4.4-vasp.4.6
   LMAXPAW     = -100 max onsite density
   LMAXMIX     =    2 max onsite mixed and CHGCAR
   VOSKOWN=      0    Vosko Wilk Nusair interpolation
   ROPT   =   -0.00025  -0.00025
 Ionic relaxation
   EDIFFG = 0.1E-02   stopping-criterion for IOM
   NSW    =    100    number of steps for IOM
   NBLOCK =      1;   KBLOCK =    100    inner block; outer block 
   IBRION =      2    ionic relax: 0-MD 1-quasi-New 2-CG
   NFREE  =      1    steps in history (QN), initial steepest desc. (CG)
   ISIF   =      2    stress and relaxation
   IWAVPR =     11    prediction:  0-non 1-charg 2-wave 3-comb
   ISYM   =      2    0-nonsym 1-usesym 2-fastsym
   LCORR  =      T    Harris-Foulkes like correction to forces

   POTIM  = 0.5000    time-step for ionic-motion
   TEIN   =    0.0    initial temperature
   TEBEG  =    0.0;   TEEND  =   0.0 temperature during run
   SMASS  =  -3.00    Nose mass-parameter (am)
   estimated Nose-frequenzy (Omega)   =  0.10E-29 period in steps =****** mass=  -0.180E-26a.u.
   SCALEE = 1.0000    scale energy and forces
   NPACO  =    256;   APACO  = 16.0  distance and # of slots for P.C.
   PSTRESS=    0.0 pullay stress

  Mass of Ions in am
   POMASS =  14.00 28.09
  Ionic Valenz
   ZVAL   =   5.00  4.00
  Atomic Wigner-Seitz radii
   RWIGS  =  -1.00 -1.00
  virtual crystal weights 
   VCA    =   1.00  1.00
   NELECT =     124.0000    total number of electrons
   NUPDOWN=      -1.0000    fix difference up-down

 DOS related values:
   EMIN   =  10.00;   EMAX   =-10.00  energy-range for DOS
   EFERMI =   0.00
   ISMEAR =     2;   SIGMA  =   0.10  broadening in eV -4-tet -1-fermi 0-gaus

 Electronic relaxation 2 (details)
   IALGO  =     68    algorithm
   LDIAG  =      T    sub-space diagonalisation (order eigenvalues)
   LSUBROT=      F    optimize rotation matrix (better conditioning)
   TURBO    =      0    0=normal 1=particle mesh
   IRESTART =      0    0=no restart 2=restart with 2 vectors
   NREBOOT  =      0    no. of reboots
   NMIN     =      0    reboot dimension
   EREF     =   0.00    reference energy to select bands
   IMIX   =      4    mixing-type and parameters
     AMIX     =   0.40;   BMIX     =  1.00
     AMIX_MAG =   1.60;   BMIX_MAG =  1.00
     AMIN     =   0.10
     WC   =   100.;   INIMIX=   1;  MIXPRE=   1;  MAXMIX= -45

 Intra band minimization:
   WEIMIN = 0.0010     energy-eigenvalue tresh-hold
   EBREAK =  0.31E-06  absolut break condition
   DEPER  =   0.30     relativ break condition  

   TIME   =   0.40     timestep for ELM

  volume/ion in A,a.u.               =      13.90        93.80
  Fermi-wavevector in a.u.,A,eV,Ry     =   1.118142  2.112982 17.010563  1.250241
  Thomas-Fermi vector in A             =   2.254770
 
 Write flags
   LWAVE        =      F    write WAVECAR
   LDOWNSAMPLE  =      F    k-point downsampling of WAVECAR
   LCHARG       =      F    write CHGCAR
   LVTOT        =      F    write LOCPOT, total local potential
   LVHAR        =      F    write LOCPOT, Hartree potential only
   LELF         =      F    write electronic localiz. function (ELF)
   LORBIT       =      0    0 simple, 1 ext, 2 COOP (PROOUT), +10 PAW based schemes


 Dipole corrections
   LMONO  =      F    monopole corrections only (constant potential shift)
   LDIPOL =      F    correct potential (dipole corrections)
   IDIPOL =      0    1-x, 2-y, 3-z, 4-all directions 
   EPSILON=  1.0000000 bulk dielectric constant

 Exchange correlation treatment:
   GGA     =    --    GGA type
   LEXCH   =     8    internal setting for exchange type
   VOSKOWN=      0    Vosko Wilk Nusair interpolation
   LHFCALC =     F    Hartree Fock is set to
   LHFONE  =     F    Hartree Fock one center treatment
   AEXX    =    0.0000 exact exchange contribution

 Linear response parameters
   LEPSILON=     F    determine dielectric tensor
   LRPA    =     F    only Hartree local field effects (RPA)
   LNABLA  =     F    use nabla operator in PAW spheres
   LVEL    =     F    velocity operator in full k-point grid
   LINTERFAST=   F  fast interpolation
   KINTER  =     0    interpolate to denser k-point grid
   CSHIFT  =0.1000    complex shift for real part using Kramers Kronig
   OMEGAMAX=  -1.0    maximum frequency
   DEG_THRESHOLD= 0.2000000E-02 threshold for treating states as degnerate
   RTIME   =   -0.100 relaxation time in fs
  (WPLASMAI=    0.000 imaginary part of plasma frequency in eV, 0.658/RTIME)
   DFIELD  = 0.0000000 0.0000000 0.0000000 field for delta impulse in time
 
 Orbital magnetization related:
   ORBITALMAG=     F  switch on orbital magnetization
   LCHIMAG   =     F  perturbation theory with respect to B field
   DQ        =  0.001000  dq finite difference perturbation B field
   LLRAUG    =     F  two centre corrections for induced B field



--------------------------------------------------------------------------------------------------------


 conjugate gradient relaxation of ions
 charge density and potential will be updated during run
 non-spin polarized calculation
 RMM-DIIS sequential band-by-band and
  variant of blocked Davidson during initial phase
 perform sub-space diagonalisation
    before iterative eigenvector-optimisation
 modified Broyden-mixing scheme, WC =      100.0
 initial mixing is a Kerker type mixing with AMIX =  0.4000 and BMIX =      1.0000
 Hartree-type preconditioning will be used
 using additional bands           18
 real space projection scheme for non local part
 use partial core corrections
 calculate Harris-corrections to forces 
   (improved forces if not selfconsistent)
 use gradient corrections 
 use of overlap-Matrix (Vanderbilt PP)
 Methfessel and Paxton  Order N= 2 SIGMA  =   0.10


--------------------------------------------------------------------------------------------------------


  energy-cutoff  :      400.00
  volume of cell :      389.18
      direct lattice vectors                 reciprocal lattice vectors
     4.442377220 -7.694423051  0.000000000     0.112552351 -0.064982130  0.000000000
     4.442377220  7.694423051  0.000000000     0.112552351  0.064982130  0.000000000
     0.000000000  0.000000000  5.692906257     0.000000000  0.000000000  0.175657205

  length of vectors
     8.884754439  8.884754439  5.692906257     0.129964260  0.129964260  0.175657205


 
 k-points in units of 2pi/SCALE and weight: Automatic mesh                          
   0.00000000 -0.00000000  0.00000000       0.003
   0.01875873 -0.01083036  0.00000000       0.021
   0.03751745 -0.02166071  0.00000000       0.021
   0.05627618 -0.03249107  0.00000000       0.010
   0.03751745  0.00000000  0.00000000       0.021
   0.05627618 -0.01083036  0.00000000       0.042
   0.07503490 -0.00000000  0.00000000       0.007
   0.00000000 -0.00000000  0.02195715       0.007
   0.01875873 -0.01083036  0.02195715       0.042
   0.03751745 -0.02166071  0.02195715       0.042
   0.05627618 -0.03249107  0.02195715       0.021
   0.03751745  0.00000000  0.02195715       0.021
   0.05627618 -0.01083036  0.02195715       0.042
   0.07503490 -0.00000000  0.02195715       0.007
   0.01875873  0.03249107  0.02195715       0.021
   0.01875873  0.05415178  0.02195715       0.042
  -0.07503490  0.00000000  0.02195715       0.007
   0.00000000 -0.00000000  0.04391430       0.007
   0.01875873 -0.01083036  0.04391430       0.042
   0.03751745 -0.02166071  0.04391430       0.042
   0.05627618 -0.03249107  0.04391430       0.021
   0.03751745  0.00000000  0.04391430       0.021
   0.05627618 -0.01083036  0.04391430       0.042
   0.07503490 -0.00000000  0.04391430       0.007
   0.01875873  0.03249107  0.04391430       0.021
   0.01875873  0.05415178  0.04391430       0.042
  -0.07503490  0.00000000  0.04391430       0.007
   0.00000000 -0.00000000  0.06587145       0.007
   0.01875873 -0.01083036  0.06587145       0.042
   0.03751745 -0.02166071  0.06587145       0.042
   0.05627618 -0.03249107  0.06587145       0.021
   0.03751745  0.00000000  0.06587145       0.021
   0.05627618 -0.01083036  0.06587145       0.042
   0.07503490 -0.00000000  0.06587145       0.007
   0.01875873  0.03249107  0.06587145       0.021
   0.01875873  0.05415178  0.06587145       0.042
  -0.07503490  0.00000000  0.06587145       0.007
   0.00000000 -0.00000000  0.08782860       0.003
   0.01875873 -0.01083036  0.08782860       0.021
   0.03751745 -0.02166071  0.08782860       0.021
   0.05627618 -0.03249107  0.08782860       0.010
   0.03751745  0.00000000  0.08782860       0.021
   0.05627618 -0.01083036  0.08782860       0.042
   0.07503490 -0.00000000  0.08782860       0.007
 
 k-points in reciprocal lattice and weights: Automatic mesh                          
   0.00000000  0.00000000  0.00000000       0.003
   0.16666667  0.00000000  0.00000000       0.021
   0.33333333  0.00000000  0.00000000       0.021
   0.50000000  0.00000000  0.00000000       0.010
   0.16666667  0.16666667  0.00000000       0.021
   0.33333333  0.16666667  0.00000000       0.042
   0.33333333  0.33333333  0.00000000       0.007
   0.00000000  0.00000000  0.12500000       0.007
   0.16666667  0.00000000  0.12500000       0.042
   0.33333333  0.00000000  0.12500000       0.042
   0.50000000  0.00000000  0.12500000       0.021
   0.16666667  0.16666667  0.12500000       0.021
   0.33333333  0.16666667  0.12500000       0.042
   0.33333333  0.33333333  0.12500000       0.007
  -0.16666667  0.33333333  0.12500000       0.021
  -0.33333333  0.50000000  0.12500000       0.042
  -0.33333333 -0.33333333  0.12500000       0.007
   0.00000000  0.00000000  0.25000000       0.007
   0.16666667  0.00000000  0.25000000       0.042
   0.33333333  0.00000000  0.25000000       0.042
   0.50000000  0.00000000  0.25000000       0.021
   0.16666667  0.16666667  0.25000000       0.021
   0.33333333  0.16666667  0.25000000       0.042
   0.33333333  0.33333333  0.25000000       0.007
  -0.16666667  0.33333333  0.25000000       0.021
  -0.33333333  0.50000000  0.25000000       0.042
  -0.33333333 -0.33333333  0.25000000       0.007
   0.00000000  0.00000000  0.37500000       0.007
   0.16666667  0.00000000  0.37500000       0.042
   0.33333333  0.00000000  0.37500000       0.042
   0.50000000  0.00000000  0.37500000       0.021
   0.16666667  0.16666667  0.37500000       0.021
   0.33333333  0.16666667  0.37500000       0.042
   0.33333333  0.33333333  0.37500000       0.007
  -0.16666667  0.33333333  0.37500000       0.021
  -0.33333333  0.50000000  0.37500000       0.042
  -0.33333333 -0.33333333  0.37500000       0.007
   0.00000000  0.00000000  0.50000000       0.003
   0.16666667  0.00000000  0.50000000       0.021
   0.33333333  0.00000000  0.50000000       0.021
   0.50000000  0.00000000  0.50000000       0.010
   0.16666667  0.16666667  0.50000000       0.021
   0.33333333  0.16666667  0.50000000       0.042
   0.33333333  0.33333333  0.50000000       0.007
 
 position of ions in fractional coordinates (direct lattice) 
   0.00847736  0.64712623  0.21326215
   0.63864887  0.99152264  0.21326215
   0.91417805  0.32157747  0.99187268
   0.64712623  0.00847736  0.71326215
   0.08582195  0.40739942  0.49187268
   0.32157747  0.91417805  0.49187268
   0.35287377  0.36135113  0.21326215
   0.59260058  0.67842253  0.49187268
   0.99152264  0.63864887  0.71326215
   0.36135113  0.35287377  0.71326215
   0.67842253  0.59260058  0.99187268
   0.40739942  0.08582195  0.99187268
   0.21311138  0.30040483  0.46674092
   0.08729345  0.78688862  0.46674092
   0.30040483  0.21311138  0.96674092
   0.69959517  0.91270655  0.46674092
   0.00000000  0.00000000  0.95692726
   0.06686359  0.48449764  0.78259872
   0.00000000  0.00000000  0.45692726
   0.66666667  0.33333333  0.47577702
   0.58236595  0.51550236  0.28259872
   0.78688862  0.08729345  0.96674092
   0.91270655  0.69959517  0.96674092
   0.33333333  0.66666667  0.97577702
   0.93313641  0.41763405  0.28259872
   0.41763405  0.93313641  0.78259872
   0.51550236  0.58236595  0.78259872
   0.48449764  0.06686359  0.28259872
 
 position of ions in cartesian coordinates  (Angst):
   2.91243846  4.91403460  1.21408143
   7.24183679  2.71516006  1.21408143
   5.48969219 -4.55971959  5.64663817
   2.91243846 -4.91403460  4.06053456
   2.19107534  2.47435310  2.80018504
   5.48969219  4.55971959  2.80018504
   3.17285641  0.06522839  1.21408143
   5.64636413  0.66035036  2.80018504
   7.24183679 -2.71516006  4.06053456
   3.17285641 -0.06522839  4.06053456
   5.64636413 -0.66035036  5.64663817
   2.19107534 -2.47435310  5.64663817
   2.28123270  0.67167271  2.65711228
   3.88344650  5.38298122  2.65711228
   2.28123270 -0.67167271  5.50356540
   7.16245246  1.63976912  2.65711228
   0.00000000  0.00000000  5.44769719
   2.44935455  3.21345302  4.45526117
   0.00000000  0.00000000  2.60124406
   4.44237722 -2.56480768  2.70855395
   4.87714521 -0.51447675  1.60880805
   3.88344650 -5.38298122  5.50356540
   7.16245246 -1.63976912  5.50356540
   4.44237722  2.56480768  5.55500708
   6.00063190 -3.96649328  1.60880805
   6.00063190  3.96649328  4.45526117
   4.87714521  0.51447675  4.45526117
   2.44935455 -3.21345302  1.60880805
 


--------------------------------------------------------------------------------------------------------


 k-point  1 :   0.0000 0.0000 0.0000  plane waves:    7117
 k-point  2 :   0.1667 0.0000 0.0000  plane waves:    7079
 k-point  3 :   0.3333 0.0000 0.0000  plane waves:    7097
 k-point  4 :   0.5000 0.0000 0.0000  plane waves:    7052
 k-point  5 :   0.1667 0.1667 0.0000  plane waves:    7087
 k-point  6 :   0.3333 0.1667 0.0000  plane waves:    7059
 k-point  7 :   0.3333 0.3333 0.0000  plane waves:    7050
 k-point  8 :   0.0000 0.0000 0.1250  plane waves:    7105
 k-point  9 :   0.1667 0.0000 0.1250  plane waves:    7074
 k-point 10 :   0.3333 0.0000 0.1250  plane waves:    7076
 k-point 11 :   0.5000 0.0000 0.1250  plane waves:    7056
 k-point 12 :   0.1667 0.1667 0.1250  plane waves:    7065
 k-point 13 :   0.3333 0.1667 0.1250  plane waves:    7070
 k-point 14 :   0.3333 0.3333 0.1250  plane waves:    7053
 k-point 15 :  -0.1667 0.3333 0.1250  plane waves:    7065
 k-point 16 :  -0.3333 0.5000 0.1250  plane waves:    7070
 k-point 17 :  -0.3333-0.3333 0.1250  plane waves:    7053
 k-point 18 :   0.0000 0.0000 0.2500  plane waves:    7069
 k-point 19 :   0.1667 0.0000 0.2500  plane waves:    7077
 k-point 20 :   0.3333 0.0000 0.2500  plane waves:    7060
 k-point 21 :   0.5000 0.0000 0.2500  plane waves:    7056
 k-point 22 :   0.1667 0.1667 0.2500  plane waves:    7077
 k-point 23 :   0.3333 0.1667 0.2500  plane waves:    7067
 k-point 24 :   0.3333 0.3333 0.2500  plane waves:    7068
 k-point 25 :  -0.1667 0.3333 0.2500  plane waves:    7077
 k-point 26 :  -0.3333 0.5000 0.2500  plane waves:    7067
 k-point 27 :  -0.3333-0.3333 0.2500  plane waves:    7068
 k-point 28 :   0.0000 0.0000 0.3750  plane waves:    7110
 k-point 29 :   0.1667 0.0000 0.3750  plane waves:    7081
 k-point 30 :   0.3333 0.0000 0.3750  plane waves:    7064
 k-point 31 :   0.5000 0.0000 0.3750  plane waves:    7054
 k-point 32 :   0.1667 0.1667 0.3750  plane waves:    7070
 k-point 33 :   0.3333 0.1667 0.3750  plane waves:    7056
 k-point 34 :   0.3333 0.3333 0.3750  plane waves:    7074
 k-point 35 :  -0.1667 0.3333 0.3750  plane waves:    7070
 k-point 36 :  -0.3333 0.5000 0.3750  plane waves:    7056
 k-point 37 :  -0.3333-0.3333 0.3750  plane waves:    7074
 k-point 38 :   0.0000 0.0000 0.5000  plane waves:    7062
 k-point 39 :   0.1667 0.0000 0.5000  plane waves:    7080
 k-point 40 :   0.3333 0.0000 0.5000  plane waves:    7068
 k-point 41 :   0.5000 0.0000 0.5000  plane waves:    7052
 k-point 42 :   0.1667 0.1667 0.5000  plane waves:    7074
 k-point 43 :   0.3333 0.1667 0.5000  plane waves:    7060
 k-point 44 :   0.3333 0.3333 0.5000  plane waves:    7062

 maximum and minimum number of plane-waves per node :      1804     1739

 maximum number of plane-waves:      7117
 maximum index in each direction: 
   IXMAX=   14   IYMAX=   14   IZMAX=    9
   IXMIN=  -14   IYMIN=  -14   IZMIN=   -9


 real space projection operators:
  total allocation   :       9494.88 KBytes
  max/ min on nodes  :       2374.75       2371.12


 parallel 3D FFT for wavefunctions:
    minimum data exchange during FFTs selected (reduces bandwidth)
 parallel 3D FFT for charge:
    minimum data exchange during FFTs selected (reduces bandwidth)


 total amount of memory used by VASP MPI-rank0    72143. kBytes
=======================================================================

   base      :      30000. kBytes
   nonlr-proj:       6549. kBytes
   fftplans  :       3665. kBytes
   grid      :       5832. kBytes
   one-center:         21. kBytes
   wavefun   :      26076. kBytes
 
     INWAV:  cpu time    0.0000: real time    0.0000
 Broyden mixing: mesh for mixing (old mesh)
   NGX = 29   NGY = 29   NGZ = 19
  (NGX  =120   NGY  =120   NGZ  = 80)
  gives a total of  15979 points

 initial charge density was supplied:
 charge density of overlapping atoms calculated
 number of electron     124.0000000 magnetization 
 keeping initial charge density in first step


--------------------------------------------------------------------------------------------------------


 Maximum index for non-local projection operator         1845
 Maximum index for augmentation-charges         1015 (set IRDMAX)


--------------------------------------------------------------------------------------------------------


 First call to EWALD:  gamma=   0.243
 Maximum number of real-space cells 3x 3x 3
 Maximum number of reciprocal cells 3x 3x 2

    FEWALD:  cpu time    0.0021: real time    0.0023


--------------------------------------- Iteration      1(   1)  ---------------------------------------


    POTLOK:  cpu time    0.0666: real time    0.0714
    SETDIJ:  cpu time    0.0056: real time    0.0056
     EDDAV:  cpu time    9.2685: real time    9.3025
       DOS:  cpu time    0.0035: real time    0.0035
    --------------------------------------------
      LOOP:  cpu time    9.3443: real time    9.3830

 eigenvalue-minimisations  :  7040
 total energy-change (2. order) : 0.4664575E+03  (-0.4840310E+04)
 number of electron     124.0000000 magnetization 
 augmentation part      124.0000000 magnetization 

 Free energy of the ion-electron system (eV)
  ---------------------------------------------------
  alpha Z        PSCENC =       125.29306276
  Ewald energy   TEWEN  =     -4077.91391707
  -Hartree energ DENC   =     -1123.58791675
  -exchange      EXHF   =         0.00000000
  -V(xc)+E(xc)   XCENC  =        91.57570996
  PAW double counting   =      3869.17357318    -3601.97287308
  entropy T*S    EENTRO =         0.00066591
  eigenvalues    EBANDS =       361.13723414
  atomic energy  EATOM  =      4822.75196862
  Solvation  Ediel_sol  =         0.00000000
  ---------------------------------------------------
  free energy    TOTEN  =       466.45750767 eV

  energy without entropy =      466.45684176  energy(sigma->0) =      466.45734119


--------------------------------------------------------------------------------------------------------




--------------------------------------- Iteration      1(   2)  ---------------------------------------


     EDDAV:  cpu time   10.9522: real time   10.9758
       DOS:  cpu time    0.0039: real time    0.0039
    --------------------------------------------
      LOOP:  cpu time   10.9561: real time   10.9797

 eigenvalue-minimisations  :  8768
 total energy-change (2. order) :-0.6322981E+03  (-0.6068003E+03)
 number of electron     124.0000000 magnetization 
 augmentation part      124.0000000 magnetization 

 Free energy of the ion-electron system (eV)
  ---------------------------------------------------
  alpha Z        PSCENC =       125.29306276
  Ewald energy   TEWEN  =     -4077.91391707
  -Hartree energ DENC   =     -1123.58791675
  -exchange      EXHF   =         0.00000000
  -V(xc)+E(xc)   XCENC  =        91.57570996
  PAW double counting   =      3869.17357318    -3601.97287308
  entropy T*S    EENTRO =        -0.00175975
  eigenvalues    EBANDS =      -271.15840074
  atomic energy  EATOM  =      4822.75196862
  Solvation  Ediel_sol  =         0.00000000
  ---------------------------------------------------
  free energy    TOTEN  =      -165.84055287 eV

  energy without entropy =     -165.83879312  energy(sigma->0) =     -165.84011293


--------------------------------------------------------------------------------------------------------




--------------------------------------- Iteration      1(   3)  ---------------------------------------


     EDDAV:  cpu time   10.3963: real time   10.4138
       DOS:  cpu time    0.0037: real time    0.0037
    --------------------------------------------
      LOOP:  cpu time   10.4000: real time   10.4174

 eigenvalue-minimisations  :  8512
 total energy-change (2. order) :-0.5549137E+02  (-0.5491557E+02)
 number of electron     124.0000000 magnetization 
 augmentation part      124.0000000 magnetization 

 Free energy of the ion-electron system (eV)
  ---------------------------------------------------
  alpha Z        PSCENC =       125.29306276
  Ewald energy   TEWEN  =     -4077.91391707
  -Hartree energ DENC   =     -1123.58791675
  -exchange      EXHF   =         0.00000000
  -V(xc)+E(xc)   XCENC  =        91.57570996
  PAW double counting   =      3869.17357318    -3601.97287308
  entropy T*S    EENTRO =        -0.02263616
  eigenvalues    EBANDS =      -326.62889361
  atomic energy  EATOM  =      4822.75196862
  Solvation  Ediel_sol  =         0.00000000
  ---------------------------------------------------
  free energy    TOTEN  =      -221.33192216 eV

  energy without entropy =     -221.30928599  energy(sigma->0) =     -221.32626311


--------------------------------------------------------------------------------------------------------




--------------------------------------- Iteration      1(   4)  ---------------------------------------


     EDDAV:  cpu time   10.9266: real time   10.9311
       DOS:  cpu time    0.0039: real time    0.0039
    --------------------------------------------
      LOOP:  cpu time   10.9306: real time   10.9351

 eigenvalue-minimisations  :  8888
 total energy-change (2. order) :-0.1501836E+01  (-0.1492107E+01)
 number of electron     124.0000000 magnetization 
 augmentation part      124.0000000 magnetization 

 Free energy of the ion-electron system (eV)
  ---------------------------------------------------
  alpha Z        PSCENC =       125.29306276
  Ewald energy   TEWEN  =     -4077.91391707
  -Hartree energ DENC   =     -1123.58791675
  -exchange      EXHF   =         0.00000000
  -V(xc)+E(xc)   XCENC  =        91.57570996
  PAW double counting   =      3869.17357318    -3601.97287308
  entropy T*S    EENTRO =        -0.02520417
  eigenvalues    EBANDS =      -328.12816174
  atomic energy  EATOM  =      4822.75196862
  Solvation  Ediel_sol  =         0.00000000
  ---------------------------------------------------
  free energy    TOTEN  =      -222.83375829 eV

  energy without entropy =     -222.80855412  energy(sigma->0) =     -222.82745725


--------------------------------------------------------------------------------------------------------




--------------------------------------- Iteration      1(   5)  ---------------------------------------


     EDDAV:  cpu time   10.5502: real time   10.5551
       DOS:  cpu time    0.0037: real time    0.0037
    CHARGE:  cpu time    0.3778: real time    0.3779
    MIXING:  cpu time    0.0101: real time    0.0101
    --------------------------------------------
      LOOP:  cpu time   10.9419: real time   10.9469

 eigenvalue-minimisations  :  8616
 total energy-change (2. order) :-0.3905848E-01  (-0.3899352E-01)
 number of electron     123.9999995 magnetization 
 augmentation part        0.7990958 magnetization 

 Broyden mixing:
  rms(total) = 0.32424E+01    rms(broyden)= 0.32412E+01
  rms(prec ) = 0.47092E+01
  weight for this iteration     100.00

 Free energy of the ion-electron system (eV)
  ---------------------------------------------------
  alpha Z        PSCENC =       125.29306276
  Ewald energy   TEWEN  =     -4077.91391707
  -Hartree energ DENC   =     -1123.58791675
  -exchange      EXHF   =         0.00000000
  -V(xc)+E(xc)   XCENC  =        91.57570996
  PAW double counting   =      3869.17357318    -3601.97287308
  entropy T*S    EENTRO =        -0.02519220
  eigenvalues    EBANDS =      -328.16723219
  atomic energy  EATOM  =      4822.75196862
  Solvation  Ediel_sol  =         0.00000000
  ---------------------------------------------------
  free energy    TOTEN  =      -222.87281678 eV

  energy without entropy =     -222.84762458  energy(sigma->0) =     -222.86651873


--------------------------------------------------------------------------------------------------------




--------------------------------------- Iteration      1(   6)  ---------------------------------------


    POTLOK:  cpu time    0.0524: real time    0.0537
    SETDIJ:  cpu time    0.0046: real time    0.0052
    EDDIAG:  cpu time    1.1652: real time    1.1674
  RMM-DIIS:  cpu time    6.0576: real time    6.0675
    ORTHCH:  cpu time    0.1238: real time    0.1239
       DOS:  cpu time    0.0045: real time    0.0045
    CHARGE:  cpu time    0.4053: real time    0.4058
    MIXING:  cpu time    0.0015: real time    0.0015
    --------------------------------------------
      LOOP:  cpu time    7.8149: real time    7.8296

 eigenvalue-minimisations  :  7058
 total energy-change (2. order) : 0.2170668E+02  (-0.1142305E+02)
 number of electron     123.9999995 magnetization 
 augmentation part       -0.7127710 magnetization 

 Broyden mixing:
  rms(total) = 0.14199E+01    rms(broyden)= 0.14191E+01
  rms(prec ) = 0.16107E+01
  weight for this iteration     100.00

 eigenvalues of (default mixing * dielectric matrix)
  average eigenvalue GAMMA=   1.0234
  1.0234

 Free energy of the ion-electron system (eV)
  ---------------------------------------------------
  alpha Z        PSCENC =       125.29306276
  Ewald energy   TEWEN  =     -4077.91391707
  -Hartree energ DENC   =     -1308.39787200
  -exchange      EXHF   =         0.00000000
  -V(xc)+E(xc)   XCENC  =       104.34123109
  PAW double counting   =      7260.99808104    -6995.80485793
  entropy T*S    EENTRO =        -0.00192034
  eigenvalues    EBANDS =      -132.43191088
  atomic energy  EATOM  =      4822.75196862
  Solvation  Ediel_sol  =         0.00000000
  ---------------------------------------------------
  free energy    TOTEN  =      -201.16613470 eV

  energy without entropy =     -201.16421437  energy(sigma->0) =     -201.16565462


--------------------------------------------------------------------------------------------------------




--------------------------------------- Iteration      1(   7)  ---------------------------------------


    POTLOK:  cpu time    0.0588: real time    0.0607
    SETDIJ:  cpu time    0.0052: real time    0.0058
    EDDIAG:  cpu time    1.1677: real time    1.1699
  RMM-DIIS:  cpu time    6.2795: real time    6.2873
    ORTHCH:  cpu time    0.1105: real time    0.1106
       DOS:  cpu time    0.0041: real time    0.0041
    CHARGE:  cpu time    0.4092: real time    0.4092
    MIXING:  cpu time    0.0015: real time    0.0015
    --------------------------------------------
      LOOP:  cpu time    8.0364: real time    8.0490

 eigenvalue-minimisations  :  7573
 total energy-change (2. order) : 0.3468249E+00  (-0.3564072E+00)
 number of electron     123.9999995 magnetization 
 augmentation part       -0.8084409 magnetization 

 Broyden mixing:
  rms(total) = 0.81635E+00    rms(broyden)= 0.81627E+00
  rms(prec ) = 0.94736E+00
  weight for this iteration     100.00

 eigenvalues of (default mixing * dielectric matrix)
  average eigenvalue GAMMA=   1.5712
  1.1022  2.0403

 Free energy of the ion-electron system (eV)
  ---------------------------------------------------
  alpha Z        PSCENC =       125.29306276
  Ewald energy   TEWEN  =     -4077.91391707
  -Hartree energ DENC   =     -1314.32770393
  -exchange      EXHF   =         0.00000000
  -V(xc)+E(xc)   XCENC  =       105.48374970
  PAW double counting   =      9958.04493569    -9693.46110033
  entropy T*S    EENTRO =        -0.00989442
  eigenvalues    EBANDS =      -126.68041079
  atomic energy  EATOM  =      4822.75196862
  Solvation  Ediel_sol  =         0.00000000
  ---------------------------------------------------
  free energy    TOTEN  =      -200.81930978 eV

  energy without entropy =     -200.80941536  energy(sigma->0) =     -200.81683618


--------------------------------------------------------------------------------------------------------




--------------------------------------- Iteration      1(   8)  ---------------------------------------


    POTLOK:  cpu time    0.0522: real time    0.0536
    SETDIJ:  cpu time    0.0049: real time    0.0054
    EDDIAG:  cpu time    1.1327: real time    1.1330
  RMM-DIIS:  cpu time    5.8468: real time    5.8493
    ORTHCH:  cpu time    0.1096: real time    0.1096
       DOS:  cpu time    0.0038: real time    0.0038
    CHARGE:  cpu time    0.4079: real time    0.4080
    MIXING:  cpu time    0.0016: real time    0.0016
    --------------------------------------------
      LOOP:  cpu time    7.5596: real time    7.5644

 eigenvalue-minimisations  :  7040
 total energy-change (2. order) : 0.1120604E+00  (-0.1535061E+00)
 number of electron     123.9999995 magnetization 
 augmentation part       -0.6872882 magnetization 

 Broyden mixing:
  rms(total) = 0.17612E+00    rms(broyden)= 0.17608E+00
  rms(prec ) = 0.32986E+00
  weight for this iteration     100.00

 eigenvalues of (default mixing * dielectric matrix)
  average eigenvalue GAMMA=   1.3778
  2.2640  0.9347  0.9347

 Free energy of the ion-electron system (eV)
  ---------------------------------------------------
  alpha Z        PSCENC =       125.29306276
  Ewald energy   TEWEN  =     -4077.91391707
  -Hartree energ DENC   =     -1309.02431067
  -exchange      EXHF   =         0.00000000
  -V(xc)+E(xc)   XCENC  =       106.05785660
  PAW double counting   =     13167.73324833   -12903.73542349
  entropy T*S    EENTRO =        -0.00650599
  eigenvalues    EBANDS =      -131.86322851
  atomic energy  EATOM  =      4822.75196862
  Solvation  Ediel_sol  =         0.00000000
  ---------------------------------------------------
  free energy    TOTEN  =      -200.70724941 eV

  energy without entropy =     -200.70074343  energy(sigma->0) =     -200.70562292


--------------------------------------------------------------------------------------------------------




--------------------------------------- Iteration      1(   9)  ---------------------------------------


    POTLOK:  cpu time    0.0521: real time    0.0655
    SETDIJ:  cpu time    0.0050: real time    0.0050
    EDDIAG:  cpu time    1.1647: real time    1.1657
  RMM-DIIS:  cpu time    6.0042: real time    6.0053
    ORTHCH:  cpu time    0.1127: real time    0.1127
       DOS:  cpu time    0.0041: real time    0.0041
    CHARGE:  cpu time    0.4342: real time    0.4342
    MIXING:  cpu time    0.0015: real time    0.0015
    --------------------------------------------
      LOOP:  cpu time    7.7784: real time    7.7939

 eigenvalue-minimisations  :  7040
 total energy-change (2. order) : 0.7676052E-01  (-0.8340348E-02)
 number of electron     123.9999995 magnetization 
 augmentation part       -0.6982130 magnetization 

 Broyden mixing:
  rms(total) = 0.94575E-01    rms(broyden)= 0.94569E-01
  rms(prec ) = 0.15570E+00
  weight for this iteration     100.00

 eigenvalues of (default mixing * dielectric matrix)
  average eigenvalue GAMMA=   1.3080
  2.3476  1.1082  1.1082  0.6679

 Free energy of the ion-electron system (eV)
  ---------------------------------------------------
  alpha Z        PSCENC =       125.29306276
  Ewald energy   TEWEN  =     -4077.91391707
  -Hartree energ DENC   =     -1316.12784153
  -exchange      EXHF   =         0.00000000
  -V(xc)+E(xc)   XCENC  =       106.69059485
  PAW double counting   =     13751.70935182   -13487.84229918
  entropy T*S    EENTRO =        -0.01003374
  eigenvalues    EBANDS =      -125.18137543
  atomic energy  EATOM  =      4822.75196862
  Solvation  Ediel_sol  =         0.00000000
  ---------------------------------------------------
  free energy    TOTEN  =      -200.63048890 eV

  energy without entropy =     -200.62045516  energy(sigma->0) =     -200.62798046


--------------------------------------------------------------------------------------------------------




--------------------------------------- Iteration      1(  10)  ---------------------------------------


    POTLOK:  cpu time    0.0531: real time    0.0531
    SETDIJ:  cpu time    0.0048: real time    0.0048
    EDDIAG:  cpu time    1.1368: real time    1.1376
  RMM-DIIS:  cpu time    5.5020: real time    5.5026
    ORTHCH:  cpu time    0.1142: real time    0.1141
       DOS:  cpu time    0.0042: real time    0.0042
    CHARGE:  cpu time    0.4057: real time    0.4058
    MIXING:  cpu time    0.0017: real time    0.0017
    --------------------------------------------
      LOOP:  cpu time    7.2224: real time    7.2240

 eigenvalue-minimisations  :  7044
 total energy-change (2. order) : 0.1244788E-01  (-0.2380827E-01)
 number of electron     123.9999995 magnetization 
 augmentation part       -0.7657849 magnetization 

 Broyden mixing:
  rms(total) = 0.55587E-01    rms(broyden)= 0.55529E-01
  rms(prec ) = 0.85619E-01
  weight for this iteration     100.00

 eigenvalues of (default mixing * dielectric matrix)
  average eigenvalue GAMMA=   1.4117
  2.2461  2.2461  0.9940  0.9940  0.5784

 Free energy of the ion-electron system (eV)
  ---------------------------------------------------
  alpha Z        PSCENC =       125.29306276
  Ewald energy   TEWEN  =     -4077.91391707
  -Hartree energ DENC   =     -1325.11997592
  -exchange      EXHF   =         0.00000000
  -V(xc)+E(xc)   XCENC  =       107.28701268
  PAW double counting   =     13853.62221869   -13589.80948666
  entropy T*S    EENTRO =        -0.00760128
  eigenvalues    EBANDS =      -116.72132284
  atomic energy  EATOM  =      4822.75196862
  Solvation  Ediel_sol  =         0.00000000
  ---------------------------------------------------
  free energy    TOTEN  =      -200.61804102 eV

  energy without entropy =     -200.61043974  energy(sigma->0) =     -200.61614070


--------------------------------------------------------------------------------------------------------




--------------------------------------- Iteration      1(  11)  ---------------------------------------


    POTLOK:  cpu time    0.0513: real time    0.0532
    SETDIJ:  cpu time    0.0048: real time    0.0048
    EDDIAG:  cpu time    1.1168: real time    1.1176
  RMM-DIIS:  cpu time    5.4262: real time    5.4267
    ORTHCH:  cpu time    0.1071: real time    0.1070
       DOS:  cpu time    0.0043: real time    0.0043
    CHARGE:  cpu time    0.3956: real time    0.3956
    MIXING:  cpu time    0.0015: real time    0.0015
    --------------------------------------------
      LOOP:  cpu time    7.1074: real time    7.1107

 eigenvalue-minimisations  :  7047
 total energy-change (2. order) : 0.2479749E-02  (-0.1135509E-02)
 number of electron     123.9999995 magnetization 
 augmentation part       -0.7577355 magnetization 

 Broyden mixing:
  rms(total) = 0.26362E-01    rms(broyden)= 0.26360E-01
  rms(prec ) = 0.48853E-01
  weight for this iteration     100.00

 eigenvalues of (default mixing * dielectric matrix)
  average eigenvalue GAMMA=   1.4329
  2.4251  2.4251  1.1110  1.0470  1.0470  0.5421

 Free energy of the ion-electron system (eV)
  ---------------------------------------------------
  alpha Z        PSCENC =       125.29306276
  Ewald energy   TEWEN  =     -4077.91391707
  -Hartree energ DENC   =     -1323.67869258
  -exchange      EXHF   =         0.00000000
  -V(xc)+E(xc)   XCENC  =       107.20157874
  PAW double counting   =     13739.28970167   -13475.45382691
  entropy T*S    EENTRO =        -0.00968082
  eigenvalues    EBANDS =      -118.09575569
  atomic energy  EATOM  =      4822.75196862
  Solvation  Ediel_sol  =         0.00000000
  ---------------------------------------------------
  free energy    TOTEN  =      -200.61556127 eV

  energy without entropy =     -200.60588046  energy(sigma->0) =     -200.61314107


--------------------------------------------------------------------------------------------------------




--------------------------------------- Iteration      1(  12)  ---------------------------------------


    POTLOK:  cpu time    0.4440: real time    0.4702
    SETDIJ:  cpu time    0.0047: real time    0.0047
    EDDIAG:  cpu time    1.0755: real time    1.0772
  RMM-DIIS:  cpu time    5.5783: real time    5.5795
    ORTHCH:  cpu time    0.1072: real time    0.1072
       DOS:  cpu time    0.0041: real time    0.0041
    CHARGE:  cpu time    0.4061: real time    0.4061
    MIXING:  cpu time    0.0017: real time    0.0017
    --------------------------------------------
      LOOP:  cpu time    7.6214: real time    7.6506

 eigenvalue-minimisations  :  7040
 total energy-change (2. order) : 0.8916983E-03  (-0.7436529E-03)
 number of electron     123.9999995 magnetization 
 augmentation part       -0.7495355 magnetization 

 Broyden mixing:
  rms(total) = 0.10685E-01    rms(broyden)= 0.10681E-01
  rms(prec ) = 0.27660E-01
  weight for this iteration     100.00

 eigenvalues of (default mixing * dielectric matrix)
  average eigenvalue GAMMA=   1.4487
  2.5300  2.5300  1.6016  1.0116  1.0116  0.9315  0.5244

 Free energy of the ion-electron system (eV)
  ---------------------------------------------------
  alpha Z        PSCENC =       125.29306276
  Ewald energy   TEWEN  =     -4077.91391707
  -Hartree energ DENC   =     -1322.82762505
  -exchange      EXHF   =         0.00000000
  -V(xc)+E(xc)   XCENC  =       107.15995409
  PAW double counting   =     13709.02752169   -13445.18775697
  entropy T*S    EENTRO =        -0.00845240
  eigenvalues    EBANDS =      -118.90942524
  atomic energy  EATOM  =      4822.75196862
  Solvation  Ediel_sol  =         0.00000000
  ---------------------------------------------------
  free energy    TOTEN  =      -200.61466958 eV

  energy without entropy =     -200.60621718  energy(sigma->0) =     -200.61255648


--------------------------------------------------------------------------------------------------------




--------------------------------------- Iteration      1(  13)  ---------------------------------------


    POTLOK:  cpu time    0.0529: real time    0.0545
    SETDIJ:  cpu time    0.0050: real time    0.0056
    EDDIAG:  cpu time    1.1660: real time    1.1665
  RMM-DIIS:  cpu time    5.2709: real time    5.2735
    ORTHCH:  cpu time    0.1161: real time    0.1161
       DOS:  cpu time    0.0043: real time    0.0043
    CHARGE:  cpu time    0.4223: real time    0.4223
    MIXING:  cpu time    0.0017: real time    0.0017
    --------------------------------------------
      LOOP:  cpu time    7.0392: real time    7.0444

 eigenvalue-minimisations  :  6161
 total energy-change (2. order) : 0.2354116E-03  (-0.7763421E-04)
 number of electron     123.9999995 magnetization 
 augmentation part       -0.7468836 magnetization 

 Broyden mixing:
  rms(total) = 0.36842E-02    rms(broyden)= 0.36777E-02
  rms(prec ) = 0.74978E-02
  weight for this iteration     100.00

 eigenvalues of (default mixing * dielectric matrix)
  average eigenvalue GAMMA=   1.4334
  2.7708  2.4212  1.8177  1.0210  1.0210  1.0195  0.8736  0.5223

 Free energy of the ion-electron system (eV)
  ---------------------------------------------------
  alpha Z        PSCENC =       125.29306276
  Ewald energy   TEWEN  =     -4077.91391707
  -Hartree energ DENC   =     -1322.81944109
  -exchange      EXHF   =         0.00000000
  -V(xc)+E(xc)   XCENC  =       107.16635287
  PAW double counting   =     13681.53876332   -13417.69671598
  entropy T*S    EENTRO =        -0.00926304
  eigenvalues    EBANDS =      -118.92524456
  atomic energy  EATOM  =      4822.75196862
  Solvation  Ediel_sol  =         0.00000000
  ---------------------------------------------------
  free energy    TOTEN  =      -200.61443416 eV

  energy without entropy =     -200.60517113  energy(sigma->0) =     -200.61211841


--------------------------------------------------------------------------------------------------------




--------------------------------------- Iteration      1(  14)  ---------------------------------------


    POTLOK:  cpu time    0.0526: real time    0.0545
    SETDIJ:  cpu time    0.0050: real time    0.0050
    EDDIAG:  cpu time    1.1588: real time    1.1596
  RMM-DIIS:  cpu time    3.9737: real time    3.9757
    ORTHCH:  cpu time    0.1135: real time    0.1136
       DOS:  cpu time    0.0043: real time    0.0043
    --------------------------------------------
      LOOP:  cpu time    5.3079: real time    5.3126

 eigenvalue-minimisations  :  4261
 total energy-change (2. order) : 0.2603099E-04  (-0.5632685E-05)
 number of electron     123.9999995 magnetization 
 augmentation part       -0.7468836 magnetization 

 Free energy of the ion-electron system (eV)
  ---------------------------------------------------
  alpha Z        PSCENC =       125.29306276
  Ewald energy   TEWEN  =     -4077.91391707
  -Hartree energ DENC   =     -1323.00974332
  -exchange      EXHF   =         0.00000000
  -V(xc)+E(xc)   XCENC  =       107.17920289
  PAW double counting   =     13679.15198295   -13415.31043937
  entropy T*S    EENTRO =        -0.00914639
  eigenvalues    EBANDS =      -118.74737921
  atomic energy  EATOM  =      4822.75196862
  Solvation  Ediel_sol  =         0.00000000
  ---------------------------------------------------
  free energy    TOTEN  =      -200.61440813 eV

  energy without entropy =     -200.60526174  energy(sigma->0) =     -200.61212154


--------------------------------------------------------------------------------------------------------




 average (electrostatic) potential at core
  the test charge radii are     0.7089  0.9892
  (the norm of the test charge is              1.0000)
       1 -62.6482       2 -62.6482       3 -62.6272       4 -62.6482       5 -62.6272
       6 -62.6272       7 -62.6482       8 -62.6272       9 -62.6482      10 -62.6482
      11 -62.6272      12 -62.6272      13 -84.0599      14 -84.0599      15 -84.0599
      16 -84.0599      17 -82.9933      18 -83.8542      19 -82.9933      20 -82.3695
      21 -83.8542      22 -84.0599      23 -84.0599      24 -82.3695      25 -83.8542
      26 -83.8542      27 -83.8542      28 -83.8542
 
 
 
 E-fermi :   6.3351     XC(G=0): -10.0261     alpha+bet :-12.5394


 k-point     1 :       0.0000    0.0000    0.0000
  band No.  band energies     occupation 
      1     -11.4193      2.00000
      2     -10.8401      2.00000
      3     -10.8401      2.00000
      4     -10.1051      2.00000
      5     -10.1051      2.00000
      6      -9.4849      2.00000
      7      -9.1903      2.00000
      8      -9.1613      2.00000
      9      -9.1613      2.00000
     10      -9.1242      2.00000
     11      -9.0590      2.00000
     12      -9.0590      2.00000
     13      -4.6072      2.00000
     14      -3.7285      2.00000
     15      -3.7285      2.00000
     16      -3.4595      2.00000
     17      -2.9692      2.00000
     18      -2.6087      2.00000
     19      -2.6087      2.00000
     20      -2.2779      2.00000
     21      -1.6983      2.00000
     22      -1.6983      2.00000
     23      -1.2934      2.00000
     24      -1.1210      2.00000
     25      -1.1210      2.00000
     26      -0.7626      2.00000
     27      -0.6977      2.00000
     28       0.0468      2.00000
     29       0.1685      2.00000
     30       0.1685      2.00000
     31       0.3118      2.00000
     32       0.6118      2.00000
     33       0.8744      2.00000
     34       0.8744      2.00000
     35       1.0448      2.00000
     36       1.0448      2.00000
     37       1.3695      2.00000
     38       1.4668      2.00000
     39       1.4668      2.00000
     40       1.6853      2.00000
     41       1.6853      2.00000
     42       2.4233      2.00000
     43       2.4519      2.00000
     44       2.4519      2.00000
     45       2.5949      2.00000
     46       2.5949      2.00000
     47       3.0944      2.00000
     48       3.1591      2.00000
     49       3.2699      2.00000
     50       3.2699      2.00000
     51       3.3132      2.00000
     52       3.8359      2.00000
     53       4.0304      2.00000
     54       4.0687      2.00000
     55       4.0687      2.00000
     56       4.4190      2.00000
     57       4.4190      2.00000
     58       4.9874      2.00000
     59       4.9874      2.00000
     60       5.4338      2.00000
     61       5.4338      2.00000
     62       6.0304      1.99952
     63       6.5632      0.00728
     64       8.1050      0.00000
     65       8.1050      0.00000
     66       8.2797      0.00000
     67       8.8436      0.00000
     68       8.8436      0.00000
     69       9.0737      0.00000
     70       9.0738      0.00000
     71       9.8444      0.00000
     72       9.8917      0.00000
     73      10.1223      0.00000
     74      10.1246      0.00000
     75      10.5246      0.00000
     76      10.6262      0.00000
     77      10.9158      0.00000
     78      10.9401      0.00000
     79      11.0016      0.00000
     80      11.1393      0.00000

 k-point     2 :       0.1667    0.0000    0.0000
  band No.  band energies     occupation 
      1     -11.3919      2.00000
      2     -10.8949      2.00000
      3     -10.8606      2.00000
      4     -10.0765      2.00000
      5     -10.0459      2.00000
      6      -9.4612      2.00000
      7      -9.2959      2.00000
      8      -9.1740      2.00000
      9      -9.1528      2.00000
     10      -9.1186      2.00000
     11      -9.0587      2.00000
     12      -9.0249      2.00000
     13      -4.5358      2.00000
     14      -3.7431      2.00000
     15      -3.6585      2.00000
     16      -3.4173      2.00000
     17      -3.0128      2.00000
     18      -2.7053      2.00000
     19      -2.6114      2.00000
     20      -2.4055      2.00000
     21      -1.9234      2.00000
     22      -1.6937      2.00000
     23      -1.3283      2.00000
     24      -1.1112      2.00000
     25      -0.9252      2.00000
     26      -0.6648      2.00000
     27      -0.5392      2.00000
     28       0.0658      2.00000
     29       0.0905      2.00000
     30       0.1133      2.00000
     31       0.3777      2.00000
     32       0.5476      2.00000
     33       0.8524      2.00000
     34       0.8755      2.00000
     35       1.0476      2.00000
     36       1.0701      2.00000
     37       1.3582      2.00000
     38       1.4667      2.00000
     39       1.6207      2.00000
     40       1.7195      2.00000
     41       1.7439      2.00000
     42       2.3076      2.00000
     43       2.3497      2.00000
     44       2.4280      2.00000
     45       2.6275      2.00000
     46       2.6653      2.00000
     47       2.9561      2.00000
     48       3.0862      2.00000
     49       3.1758      2.00000
     50       3.3831      2.00000
     51       3.6043      2.00000
     52       3.8423      2.00000
     53       3.9913      2.00000
     54       4.0979      2.00000
     55       4.1134      2.00000
     56       4.3463      2.00000
     57       4.4162      2.00000
     58       4.8840      2.00000
     59       4.9231      2.00000
     60       5.3081      2.00000
     61       5.4258      2.00000
     62       6.0617      1.99815
     63       6.5109      0.00370
     64       8.2054      0.00000
     65       8.2713      0.00000
     66       8.4985      0.00000
     67       8.7774      0.00000
     68       8.8338      0.00000
     69       9.1618      0.00000
     70       9.2272      0.00000
     71       9.5597      0.00000
     72       9.8323      0.00000
     73      10.0321      0.00000
     74      10.3499      0.00000
     75      10.5666      0.00000
     76      10.5943      0.00000
     77      10.6311      0.00000
     78      10.8268      0.00000
     79      10.8746      0.00000
     80      11.0770      0.00000

 k-point     3 :       0.3333    0.0000    0.0000
  band No.  band energies     occupation 
      1     -11.3156      2.00000
      2     -11.0201      2.00000
      3     -10.8963      2.00000
      4     -10.0309      2.00000
      5      -9.8920      2.00000
      6      -9.4800      2.00000
      7      -9.3976      2.00000
      8      -9.2151      2.00000
      9      -9.1568      2.00000
     10      -9.1091      2.00000
     11      -9.0574      2.00000
     12      -8.9994      2.00000
     13      -4.3337      2.00000
     14      -3.7868      2.00000
     15      -3.5268      2.00000
     16      -3.3767      2.00000
     17      -3.1146      2.00000
     18      -2.8284      2.00000
     19      -2.6596      2.00000
     20      -2.5770      2.00000
     21      -2.2771      2.00000
     22      -1.5913      2.00000
     23      -1.3541      2.00000
     24      -1.2137      2.00000
     25      -0.7508      2.00000
     26      -0.4546      2.00000
     27      -0.3114      2.00000
     28      -0.0738      2.00000
     29       0.1483      2.00000
     30       0.1911      2.00000
     31       0.4563      2.00000
     32       0.5395      2.00000
     33       0.7961      2.00000
     34       0.8279      2.00000
     35       0.9713      2.00000
     36       1.1059      2.00000
     37       1.3008      2.00000
     38       1.5047      2.00000
     39       1.7323      2.00000
     40       1.8178      2.00000
     41       1.8835      2.00000
     42       2.1734      2.00000
     43       2.1932      2.00000
     44       2.3993      2.00000
     45       2.6104      2.00000
     46       2.7695      2.00000
     47       2.9946      2.00000
     48       3.1236      2.00000
     49       3.1837      2.00000
     50       3.4783      2.00000
     51       3.6267      2.00000
     52       3.8729      2.00000
     53       3.8814      2.00000
     54       4.0252      2.00000
     55       4.1962      2.00000
     56       4.3439      2.00000
     57       4.3904      2.00000
     58       4.6877      2.00000
     59       4.8125      2.00000
     60       5.0883      2.00000
     61       5.4624      2.00000
     62       6.1398      1.99043
     63       6.4028     -0.02904
     64       8.4141      0.00000
     65       8.5700      0.00000
     66       8.6771      0.00000
     67       8.9336      0.00000
     68       8.9444      0.00000
     69       9.2287      0.00000
     70       9.4152      0.00000
     71       9.4594      0.00000
     72       9.6930      0.00000
     73       9.9295      0.00000
     74      10.1193      0.00000
     75      10.3752      0.00000
     76      10.4074      0.00000
     77      10.5173      0.00000
     78      10.7335      0.00000
     79      10.8376      0.00000
     80      11.0260      0.00000

 k-point     4 :       0.5000    0.0000    0.0000
  band No.  band energies     occupation 
      1     -11.2382      2.00000
      2     -11.1193      2.00000
      3     -10.9121      2.00000
      4     -10.0123      2.00000
      5      -9.6912      2.00000
      6      -9.6887      2.00000
      7      -9.3413      2.00000
      8      -9.2594      2.00000
      9      -9.1587      2.00000
     10      -9.1047      2.00000
     11      -9.0561      2.00000
     12      -8.9948      2.00000
     13      -4.1311      2.00000
     14      -3.8888      2.00000
     15      -3.5607      2.00000
     16      -3.3449      2.00000
     17      -3.0491      2.00000
     18      -2.8465      2.00000
     19      -2.7962      2.00000
     20      -2.5899      2.00000
     21      -2.4545      2.00000
     22      -1.5248      2.00000
     23      -1.3334      2.00000
     24      -1.3155      2.00000
     25      -0.6064      2.00000
     26      -0.5163      2.00000
     27      -0.2074      2.00000
     28      -0.1348      2.00000
     29       0.2356      2.00000
     30       0.3126      2.00000
     31       0.3955      2.00000
     32       0.6798      2.00000
     33       0.7853      2.00000
     34       0.8265      2.00000
     35       0.8484      2.00000
     36       1.1424      2.00000
     37       1.1772      2.00000
     38       1.5334      2.00000
     39       1.7175      2.00000
     40       1.8440      2.00000
     41       1.9691      2.00000
     42       2.1093      2.00000
     43       2.2206      2.00000
     44       2.3351      2.00000
     45       2.5971      2.00000
     46       2.8714      2.00000
     47       3.0359      2.00000
     48       3.2027      2.00000
     49       3.3093      2.00000
     50       3.4842      2.00000
     51       3.5114      2.00000
     52       3.7518      2.00000
     53       3.9232      2.00000
     54       3.9579      2.00000
     55       4.1852      2.00000
     56       4.3042      2.00000
     57       4.3699      2.00000
     58       4.6229      2.00000
     59       4.8927      2.00000
     60       4.9328      2.00000
     61       5.4990      2.00000
     62       6.2060      2.05818
     63       6.3278      1.15461
     64       8.5026      0.00000
     65       8.6080      0.00000
     66       8.8396      0.00000
     67       8.9011      0.00000
     68       9.1819      0.00000
     69       9.2792      0.00000
     70       9.3450      0.00000
     71       9.4262      0.00000
     72       9.8738      0.00000
     73       9.9811      0.00000
     74      10.0617      0.00000
     75      10.1535      0.00000
     76      10.2620      0.00000
     77      10.4535      0.00000
     78      10.4879      0.00000
     79      10.7230      0.00000
     80      10.8265      0.00000

 k-point     5 :       0.1667    0.1667    0.0000
  band No.  band energies     occupation 
      1     -11.3398      2.00000
      2     -10.9748      2.00000
      3     -10.8993      2.00000
      4     -10.0130      2.00000
      5      -9.9667      2.00000
      6      -9.4284      2.00000
      7      -9.4167      2.00000
      8      -9.1913      2.00000
      9      -9.1632      2.00000
     10      -9.1113      2.00000
     11      -9.0561      2.00000
     12      -9.0060      2.00000
     13      -4.3972      2.00000
     14      -3.7462      2.00000
     15      -3.5807      2.00000
     16      -3.3849      2.00000
     17      -3.0704      2.00000
     18      -2.8540      2.00000
     19      -2.6094      2.00000
     20      -2.5635      2.00000
     21      -2.1286      2.00000
     22      -1.6870      2.00000
     23      -1.3499      2.00000
     24      -1.1691      2.00000
     25      -0.7947      2.00000
     26      -0.4738      2.00000
     27      -0.3401      2.00000
     28      -0.0551      2.00000
     29       0.0958      2.00000
     30       0.1703      2.00000
     31       0.4814      2.00000
     32       0.5001      2.00000
     33       0.7729      2.00000
     34       0.9339      2.00000
     35       0.9450      2.00000
     36       1.0894      2.00000
     37       1.3283      2.00000
     38       1.5016      2.00000
     39       1.7668      2.00000
     40       1.7768      2.00000
     41       1.7815      2.00000
     42       2.2032      2.00000
     43       2.2270      2.00000
     44       2.4232      2.00000
     45       2.6317      2.00000
     46       2.7154      2.00000
     47       2.9684      2.00000
     48       3.1264      2.00000
     49       3.1662      2.00000
     50       3.5101      2.00000
     51       3.6256      2.00000
     52       3.8417      2.00000
     53       3.9226      2.00000
     54       4.0975      2.00000
     55       4.2044      2.00000
     56       4.2151      2.00000
     57       4.4215      2.00000
     58       4.7197      2.00000
     59       4.8481      2.00000
     60       5.1695      2.00000
     61       5.4396      2.00000
     62       6.1157      1.99148
     63       6.4322     -0.10315
     64       8.3844      0.00000
     65       8.4843      0.00000
     66       8.7208      0.00000
     67       8.7582      0.00000
     68       8.9081      0.00000
     69       9.2683      0.00000
     70       9.3990      0.00000
     71       9.4677      0.00000
     72       9.7261      0.00000
     73       9.9585      0.00000
     74      10.0780      0.00000
     75      10.3878      0.00000
     76      10.5312      0.00000
     77      10.6160      0.00000
     78      10.6490      0.00000
     79      10.9422      0.00000
     80      11.1050      0.00000

 k-point     6 :       0.3333    0.1667    0.0000
  band No.  band energies     occupation 
      1     -11.2493      2.00000
      2     -11.0889      2.00000
      3     -10.9369      2.00000
      4      -9.9582      2.00000
      5      -9.8157      2.00000
      6      -9.6180      2.00000
      7      -9.3476      2.00000
      8      -9.2301      2.00000
      9      -9.1737      2.00000
     10      -9.1046      2.00000
     11      -9.0496      2.00000
     12      -9.0045      2.00000
     13      -4.1561      2.00000
     14      -3.7856      2.00000
     15      -3.5876      2.00000
     16      -3.4547      2.00000
     17      -3.0482      2.00000
     18      -2.8674      2.00000
     19      -2.7212      2.00000
     20      -2.5980      2.00000
     21      -2.3915      2.00000
     22      -1.6073      2.00000
     23      -1.3618      2.00000
     24      -1.2938      2.00000
     25      -0.6389      2.00000
     26      -0.3913      2.00000
     27      -0.2347      2.00000
     28      -0.1618      2.00000
     29       0.2567      2.00000
     30       0.2916      2.00000
     31       0.4630      2.00000
     32       0.6409      2.00000
     33       0.7022      2.00000
     34       0.8376      2.00000
     35       0.9454      2.00000
     36       1.0809      2.00000
     37       1.1910      2.00000
     38       1.5798      2.00000
     39       1.7315      2.00000
     40       1.7815      2.00000
     41       1.8936      2.00000
     42       2.0904      2.00000
     43       2.1419      2.00000
     44       2.4652      2.00000
     45       2.5951      2.00000
     46       2.9129      2.00000
     47       3.0585      2.00000
     48       3.2325      2.00000
     49       3.2529      2.00000
     50       3.5353      2.00000
     51       3.5997      2.00000
     52       3.7833      2.00000
     53       3.8690      2.00000
     54       3.9930      2.00000
     55       4.1465      2.00000
     56       4.1954      2.00000
     57       4.2973      2.00000
     58       4.5151      2.00000
     59       4.9513      2.00000
     60       5.0857      2.00000
     61       5.4662      2.00000
     62       6.1968      2.04096
     63       6.3357      0.98772
[...]
     33       0.3603      2.00000
     34       0.3964      2.00000
     35       0.7456      2.00000
     36       0.8079      2.00000
     37       0.8638      2.00000
     38       1.0183      2.00000
     39       1.1212      2.00000
     40       1.2483      2.00000
     41       1.8794      2.00000
     42       1.9819      2.00000
     43       2.0067      2.00000
     44       2.1192      2.00000
     45       2.4264      2.00000
     46       2.6842      2.00000
     47       2.6911      2.00000
     48       3.0687      2.00000
     49       3.0741      2.00000
     50       3.2143      2.00000
     51       3.6240      2.00000
     52       3.6453      2.00000
     53       4.0980      2.00000
     54       4.1067      2.00000
     55       4.2771      2.00000
     56       4.2878      2.00000
     57       4.8476      2.00000
     58       4.8595      2.00000
     59       4.9669      2.00000
     60       4.9991      2.00000
     61       6.3788      2.08452
     62       6.3991      1.97855
     63       6.5985     -0.03987
     64       6.6059     -0.02750
     65       8.8723      0.00000
     66       8.9237      0.00000
     67       9.1412      0.00000
     68       9.1842      0.00000
     69       9.7285      0.00000
     70       9.7363      0.00000
     71       9.8091      0.00000
     72       9.8918      0.00000
     73      10.0640      0.00000
     74      10.1772      0.00000
     75      10.2620      0.00000
     76      10.3360      0.00000
     77      10.5035      0.00000
     78      10.6137      0.00000
     79      10.7521      0.00000
     80      10.9113      0.00000

 k-point    43 :       0.3333    0.1667    0.5000
  band No.  band energies     occupation 
      1     -10.8279      2.00000
      2     -10.8277      2.00000
      3     -10.5140      2.00000
      4     -10.5100      2.00000
      5     -10.4703      2.00000
      6     -10.4629      2.00000
      7      -9.6265      2.00000
      8      -9.6143      2.00000
      9      -9.5801      2.00000
     10      -9.5723      2.00000
     11      -9.1658      2.00000
     12      -9.1654      2.00000
     13      -3.6250      2.00000
     14      -3.6063      2.00000
     15      -3.2521      2.00000
     16      -3.2100      2.00000
     17      -2.9182      2.00000
     18      -2.8872      2.00000
     19      -2.2863      2.00000
     20      -2.2828      2.00000
     21      -1.8295      2.00000
     22      -1.8032      2.00000
     23      -1.1698      2.00000
     24      -1.0374      2.00000
     25      -0.9105      2.00000
     26      -0.7838      2.00000
     27      -0.6201      2.00000
     28      -0.5542      2.00000
     29      -0.3729      2.00000
     30      -0.1706      2.00000
     31       0.0784      2.00000
     32       0.1195      2.00000
     33       0.2613      2.00000
     34       0.3931      2.00000
     35       0.6906      2.00000
     36       0.7066      2.00000
     37       0.8025      2.00000
     38       1.0991      2.00000
     39       1.2600      2.00000
     40       1.4132      2.00000
     41       1.9163      2.00000
     42       1.9333      2.00000
     43       2.0903      2.00000
     44       2.1234      2.00000
     45       2.5346      2.00000
     46       2.7307      2.00000
     47       2.9791      2.00000
     48       3.1820      2.00000
     49       3.3444      2.00000
     50       3.4345      2.00000
     51       3.5858      2.00000
     52       3.6193      2.00000
     53       3.8764      2.00000
     54       3.9129      2.00000
     55       4.2192      2.00000
     56       4.2337      2.00000
     57       4.6384      2.00000
     58       4.6583      2.00000
     59       4.8877      2.00000
     60       4.9465      2.00000
     61       6.4291      1.60120
     62       6.4513      1.17517
     63       6.5740     -0.08532
     64       6.5833     -0.06862
     65       8.7852      0.00000
     66       8.8304      0.00000
     67       9.1540      0.00000
     68       9.2147      0.00000
     69       9.5402      0.00000
     70       9.5969      0.00000
     71       9.8305      0.00000
     72       9.8961      0.00000
     73      10.1593      0.00000
     74      10.2234      0.00000
     75      10.3544      0.00000
     76      10.4181      0.00000
     77      10.5458      0.00000
     78      10.6527      0.00000
     79      10.8593      0.00000
     80      10.9705      0.00000

 k-point    44 :       0.3333    0.3333    0.5000
  band No.  band energies     occupation 
      1     -10.8178      2.00000
      2     -10.8178      2.00000
      3     -10.5067      2.00000
      4     -10.5067      2.00000
      5     -10.4971      2.00000
      6     -10.4822      2.00000
      7      -9.6106      2.00000
      8      -9.5852      2.00000
      9      -9.5852      2.00000
     10      -9.5837      2.00000
     11      -9.1730      2.00000
     12      -9.1730      2.00000
     13      -3.4525      2.00000
     14      -3.3788      2.00000
     15      -3.3788      2.00000
     16      -3.3403      2.00000
     17      -3.0514      2.00000
     18      -3.0514      2.00000
     19      -2.1433      2.00000
     20      -2.1257      2.00000
     21      -1.9489      2.00000
     22      -1.9489      2.00000
     23      -0.9734      2.00000
     24      -0.9734      2.00000
     25      -0.8392      2.00000
     26      -0.7374      2.00000
     27      -0.7254      2.00000
     28      -0.7254      2.00000
     29      -0.2896      2.00000
     30      -0.2896      2.00000
     31       0.1034      2.00000
     32       0.1034      2.00000
     33       0.2289      2.00000
     34       0.4917      2.00000
     35       0.6061      2.00000
     36       0.6061      2.00000
     37       0.7258      2.00000
     38       1.2334      2.00000
     39       1.2334      2.00000
     40       1.4795      2.00000
     41       1.9208      2.00000
     42       1.9208      2.00000
     43       2.1706      2.00000
     44       2.3901      2.00000
     45       2.4803      2.00000
     46       2.4803      2.00000
     47       3.2294      2.00000
     48       3.2294      2.00000
     49       3.3503      2.00000
     50       3.5129      2.00000
     51       3.5129      2.00000
     52       3.5910      2.00000
     53       3.8549      2.00000
     54       3.8549      2.00000
     55       4.2247      2.00000
     56       4.2247      2.00000
     57       4.6395      2.00000
     58       4.6395      2.00000
     59       4.7691      2.00000
     60       4.8681      2.00000
     61       6.4402      1.39817
     62       6.4580      1.03399
     63       6.5769     -0.08032
     64       6.5769     -0.08032
     65       8.8364      0.00000
     66       8.8364      0.00000
     67       9.1399      0.00000
     68       9.1399      0.00000
     69       9.3918      0.00000
     70       9.4796      0.00000
     71       9.9018      0.00000
     72       9.9018      0.00000
     73      10.2973      0.00000
     74      10.2974      0.00000
     75      10.4132      0.00000
     76      10.4132      0.00000
     77      10.6841      0.00000
     78      10.7046      0.00000
     79      10.7046      0.00000
     80      10.9265      0.00000


--------------------------------------------------------------------------------------------------------


 soft charge-density along one line, spin component           1
         0         1         2         3         4         5         6         7         8         9
 total charge-density along one line
 
 pseudopotential strength for first ion, spin component:           1
 12.608  15.116  -0.001  -0.001   0.001  -0.002  -0.002   0.002
 15.116  18.123  -0.001  -0.001   0.001  -0.002  -0.002   0.003
 -0.001  -0.001  -6.006   0.012  -0.015  -8.045   0.019  -0.023
 -0.001  -0.001   0.012  -6.014  -0.014   0.019  -8.058  -0.022
  0.001   0.001  -0.015  -0.014  -6.002  -0.023  -0.022  -8.039
 -0.002  -0.002  -8.045   0.019  -0.023 -10.069   0.029  -0.036
 -0.002  -0.002   0.019  -8.058  -0.022   0.029 -10.090  -0.033
  0.002   0.003  -0.023  -0.022  -8.039  -0.036  -0.033 -10.060
 total augmentation occupancy for first ion, spin component:           1
  6.943  -3.101   0.117   0.117  -0.135  -0.034  -0.036   0.042
 -3.101   1.506  -0.104  -0.097   0.116   0.023   0.024  -0.029
  0.117  -0.104   2.122  -0.074   0.113  -0.334   0.052  -0.068
  0.117  -0.097  -0.074   2.235   0.082   0.051  -0.381  -0.057
 -0.135   0.116   0.113   0.082   2.117  -0.067  -0.058  -0.320
 -0.034   0.023  -0.334   0.051  -0.067   0.061  -0.014   0.019
 -0.036   0.024   0.052  -0.381  -0.058  -0.014   0.075   0.015
  0.042  -0.029  -0.068  -0.057  -0.320   0.019   0.015   0.058


------------------------ aborting loop because EDIFF is reached ----------------------------------------


    CHARGE:  cpu time    0.3929: real time    0.3933
    FORLOC:  cpu time    0.0121: real time    0.0121
    FORNL :  cpu time    2.8324: real time    2.8346
    STRESS:  cpu time    8.9401: real time    8.9420
    FORCOR:  cpu time    0.0639: real time    0.0639
    FORHAR:  cpu time    0.0237: real time    0.0237
    MIXING:  cpu time    0.0016: real time    0.0016
    OFIELD:  cpu time    0.0000: real time    0.0000

  FORCE on cell =-STRESS in cart. coord.  units (eV):
  Direction    XX          YY          ZZ          XY          YZ          ZX
  --------------------------------------------------------------------------------------
  Alpha Z   125.29306   125.29306   125.29306
  Ewald   -1600.74661 -1600.74661  -837.27886    -0.00000     0.00000     0.00000
  Hartree   328.97356   328.97356   693.76426    -0.00000     0.00000    -0.00000
  E(xc)    -467.36460  -467.36460  -465.30345     0.00000     0.00000     0.00000
  Local    -434.17826  -434.17772 -1501.84074    -0.00000     0.00000    -0.00000
  n-local   426.83576   426.81957   422.20125     0.02453     0.04679     0.21661
  augment   -74.97694   -74.97744   -74.38419    -0.00000     0.00000    -0.00000
  Kinetic  1669.16731  1670.67943  1601.78024     0.38251     0.29327    -0.50290
  Fock        0.00000     0.00000     0.00000     0.00000     0.00000     0.00000
  -------------------------------------------------------------------------------------
  Total     -26.24874   -26.24874   -35.76843    -0.00000     0.00000     0.00000
  in kB    -108.05963  -108.05963  -147.24987    -0.00000     0.00000     0.00000
  external pressure =     -121.12 kB  Pullay stress =        0.00 kB


 VOLUME and BASIS-vectors are now :
 -----------------------------------------------------------------------------
  energy-cutoff  :      400.00
  volume of cell :      389.18
      direct lattice vectors                 reciprocal lattice vectors
     4.442377220 -7.694423051  0.000000000     0.112552351 -0.064982130  0.000000000
     4.442377220  7.694423051  0.000000000     0.112552351  0.064982130  0.000000000
     0.000000000  0.000000000  5.692906257     0.000000000  0.000000000  0.175657205

  length of vectors
     8.884754439  8.884754439  5.692906257     0.129964260  0.129964260  0.175657205


 FORCES acting on ions
    electron-ion (+dipol)            ewald-force                    non-local-force                 convergence-correction
 -----------------------------------------------------------------------------------------------
   -.347E+02 -.109E+02 0.667E+01   0.377E+02 0.802E+01 -.904E+01   -.301E+01 0.286E+01 0.236E+01   0.186E-01 0.315E-01 0.534E-02
   0.791E+01 0.355E+02 0.667E+01   -.119E+02 -.366E+02 -.904E+01   0.398E+01 0.117E+01 0.236E+01   0.179E-01 -.319E-01 0.534E-02
   0.163E+02 0.190E+02 0.147E+02   -.179E+02 -.181E+02 -.168E+02   0.160E+01 -.799E+00 0.207E+01   -.805E-02 -.468E-01 0.732E-02
   -.347E+02 0.109E+02 0.667E+01   0.377E+02 -.802E+01 -.904E+01   -.301E+01 -.286E+01 0.236E+01   0.186E-01 -.315E-01 0.534E-02
   0.830E+01 0.236E+02 0.147E+02   -.677E+01 -.246E+02 -.168E+02   -.149E+01 0.984E+00 0.207E+01   -.365E-01 -.304E-01 0.732E-02
   0.163E+02 -.190E+02 0.147E+02   -.179E+02 0.181E+02 -.168E+02   0.160E+01 0.799E+00 0.207E+01   -.805E-02 0.468E-01 0.732E-02
   0.268E+02 -.246E+02 0.667E+01   -.258E+02 0.286E+02 -.904E+01   -.974E+00 -.403E+01 0.236E+01   -.366E-01 0.397E-03 0.534E-02
   -.246E+02 -.461E+01 0.147E+02   0.247E+02 0.642E+01 -.168E+02   -.107E+00 -.178E+01 0.207E+01   0.446E-01 -.164E-01 0.732E-02
   0.791E+01 -.355E+02 0.667E+01   -.119E+02 0.366E+02 -.904E+01   0.398E+01 -.117E+01 0.236E+01   0.179E-01 0.319E-01 0.534E-02
   0.268E+02 0.246E+02 0.667E+01   -.258E+02 -.286E+02 -.904E+01   -.974E+00 0.403E+01 0.236E+01   -.366E-01 -.397E-03 0.534E-02
   -.246E+02 0.461E+01 0.147E+02   0.247E+02 -.642E+01 -.168E+02   -.107E+00 0.178E+01 0.207E+01   0.446E-01 0.164E-01 0.732E-02
   0.830E+01 -.236E+02 0.147E+02   -.677E+01 0.246E+02 -.168E+02   -.149E+01 -.984E+00 0.207E+01   -.365E-01 0.304E-01 0.732E-02
   0.654E+02 0.714E+01 0.532E+01   -.675E+02 -.946E+01 -.553E+01   0.219E+01 0.235E+01 0.212E+00   -.436E-01 -.127E-01 -.799E-03
   -.265E+02 -.602E+02 0.532E+01   0.256E+02 0.632E+02 -.553E+01   0.936E+00 -.307E+01 0.212E+00   0.108E-01 0.442E-01 -.799E-03
   0.654E+02 -.714E+01 0.532E+01   -.675E+02 0.946E+01 -.553E+01   0.219E+01 -.235E+01 0.212E+00   -.436E-01 0.127E-01 -.799E-03
   -.389E+02 0.531E+02 0.532E+01   0.420E+02 -.538E+02 -.553E+01   -.313E+01 0.724E+00 0.212E+00   0.328E-01 -.314E-01 -.799E-03
   0.867E-07 0.154E-06 0.618E+00   0.600E-13 0.790E-12 -.402E+00   0.213E-17 -.640E-18 -.205E+00   0.418E-07 -.242E-07 -.692E-03
   -.123E+02 0.328E+02 -.178E+02   0.180E+02 -.343E+02 0.190E+02   -.568E+01 0.153E+01 -.116E+01   -.121E-01 -.586E-02 -.177E-02
   0.867E-07 -.154E-06 0.618E+00   0.342E-13 -.765E-12 -.402E+00   0.163E-17 0.157E-17 -.205E+00   0.418E-07 0.242E-07 -.692E-03
   -.555E-06 0.543E-07 -.409E+02   -.143E-11 -.832E-11 0.375E+02   -.149E-17 0.417E-18 0.341E+01   0.549E-08 -.205E-07 -.443E-02
   -.222E+02 0.270E+02 -.178E+02   0.207E+02 -.327E+02 0.190E+02   0.152E+01 0.569E+01 -.116E+01   0.111E-01 0.751E-02 -.177E-02
   -.265E+02 0.602E+02 0.532E+01   0.256E+02 -.632E+02 -.553E+01   0.936E+00 0.307E+01 0.212E+00   0.108E-01 -.442E-01 -.799E-03
   -.389E+02 -.531E+02 0.532E+01   0.420E+02 0.538E+02 -.553E+01   -.313E+01 -.724E+00 0.212E+00   0.328E-01 0.314E-01 -.799E-03
   -.555E-06 -.543E-07 -.409E+02   0.315E-11 0.807E-11 0.375E+02   0.130E-17 -.243E-17 0.341E+01   0.549E-08 0.205E-07 -.443E-02
   0.345E+02 0.573E+01 -.178E+02   -.387E+02 -.156E+01 0.190E+02   0.417E+01 -.416E+01 -.116E+01   0.954E-03 -.134E-01 -.177E-02
   0.345E+02 -.573E+01 -.178E+02   -.387E+02 0.156E+01 0.190E+02   0.417E+01 0.416E+01 -.116E+01   0.954E-03 0.134E-01 -.177E-02
   -.222E+02 -.270E+02 -.178E+02   0.207E+02 0.327E+02 0.190E+02   0.152E+01 -.569E+01 -.116E+01   0.111E-01 -.751E-02 -.177E-02
   -.123E+02 -.328E+02 -.178E+02   0.180E+02 0.343E+02 0.190E+02   -.568E+01 -.153E+01 -.116E+01   -.121E-01 0.586E-02 -.177E-02
 -----------------------------------------------------------------------------------------------
   -.251E-05 0.214E-09 -.273E+02   -.355E-14 0.284E-13 -.107E-13   0.000E+00 0.178E-14 0.273E+02   0.376E-05 0.289E-11 0.503E-01
 
 
 POSITION                                       TOTAL-FORCE (eV/Angst)
 -----------------------------------------------------------------------------------
      2.89902      4.95862      1.26550        -0.004206      0.010922     -0.003252
      7.28716      2.70449      1.26550         0.011562     -0.001818     -0.003252
      5.51913     -4.57372      5.64709        -0.011708      0.000933      0.003308
      2.89902     -4.95862      4.11196        -0.004206     -0.010922     -0.003252
      2.16423      2.49285      2.80064         0.006662     -0.009673      0.003308
      5.51913      4.57372      2.80064        -0.011708     -0.000933      0.003308
      3.14096      0.03131      1.26550        -0.007356     -0.009103     -0.003252
      5.64377      0.62785      2.80064         0.005046      0.010606      0.003308
      7.28716     -2.70449      4.11196         0.011562      0.001818     -0.003252
      3.14096     -0.03131      4.11196        -0.007356      0.009103     -0.003252
      5.64377     -0.62785      5.64709         0.005046     -0.010606      0.003308
      2.16423     -2.49285      5.64709         0.006662      0.009673      0.003308
      2.27885      0.67866      2.69333         0.007779      0.004644     -0.000826
      3.89069      5.38155      2.69333         0.000132     -0.009058     -0.000826
      2.27885     -0.67866      5.53978         0.007779     -0.004644     -0.000826
      7.15759      1.63421      2.69333        -0.007911      0.004415     -0.000826
     -0.00000      0.00000      5.51736        -0.000000     -0.000000      0.010403
      2.41548      3.25267      4.41935         0.000075     -0.005109     -0.004876
     -0.00000      0.00000      2.67090        -0.000000     -0.000000      0.010403
      4.44238     -2.56481      2.48233        -0.000000     -0.000000      0.006533
      4.86012     -0.46553      1.57290         0.004387     -0.002620     -0.004876
      3.89069     -5.38155      5.53978         0.000132      0.009058     -0.000826
      7.15759     -1.63421      5.53978        -0.007911     -0.004415     -0.000826
      4.44238      2.56481      5.32879        -0.000000     -0.000000      0.006533
      6.05153     -3.97622      1.57290        -0.004462     -0.002490     -0.004876
      6.05153      3.97622      4.41935        -0.004462      0.002490     -0.004876
      4.86012      0.46553      4.41935         0.004387      0.002620     -0.004876
      2.41548     -3.25267      1.57290         0.000075      0.005109     -0.004876
 -----------------------------------------------------------------------------------
    total drift:                                0.000001      0.000000      0.007249


--------------------------------------------------------------------------------------------------------



  FREE ENERGIE OF THE ION-ELECTRON SYSTEM (eV)
  ---------------------------------------------------
  free  energy   TOTEN  =      -201.00421797 eV

  energy  without entropy=     -200.99579131  energy(sigma->0) =     -201.00211131
 
 d Force = 0.2867404E-04[ 0.152E-04, 0.421E-04]  d Energy = 0.3897740E-04-0.103E-04
 d Force = 0.6772849E-01[ 0.677E-01, 0.677E-01]  d Ewald  = 0.6772850E-01-0.743E-08


--------------------------------------------------------------------------------------------------------


    POTLOK:  cpu time    0.0584: real time    0.0583


--------------------------------------------------------------------------------------------------------




--------------------------------------------------------------------------------------------------------


  
 reached required accuracy - stopping structural energy minimisation
     LOOP+:  cpu time   27.6347: real time   27.6997
    4ORBIT:  cpu time    0.0000: real time    0.0000

 total amount of memory used by VASP MPI-rank0    72143. kBytes
=======================================================================

   base      :      30000. kBytes
   nonlr-proj:       6549. kBytes
   fftplans  :       3665. kBytes
   grid      :       5832. kBytes
   one-center:         21. kBytes
   wavefun   :      26076. kBytes
 
  
  
 General timing and accounting informations for this job:
 ========================================================
  
                  Total CPU time used (sec):      809.119
                            User time (sec):      807.991
                          System time (sec):        1.128
                         Elapsed time (sec):      813.451
  
                   Maximum memory used (kb):       92496.
                   Average memory used (kb):           0.
  
                          Minor page faults:       213806
                          Major page faults:            2
                 Voluntary context switches:        12429
