<?xml version="1.0" encoding="ISO-8859-1"?>
<modeling>
 <generator>
  <i name="program" type="string">vasp </i>
  <i name="version" type="string">5.4.4.18Apr17-6-g9f103f2a35  </i>
  <i name="subversion" type="string">(build Nov 01 2019 12:17:22) complex            parallel </i>
  <i name="platform" type="string">LinuxIFC </i>
  <i name="date" type="string">2023 05 19 </i>
  <i name="time" type="string">18:21:56 </i>
 </generator>
 <incar>
  <i type="string" name="PREC">accurate</i>
  <i type="string" name="ALGO"> Fast</i>
  <i type="int" name="IBRION">     2</i>
  <i type="int" name="NSW">   100</i>
  <i type="int" name="ISIF">     2</i>
  <i type="string" name="LREAL"> Auto</i>
  <i type="int" name="ISMEAR">     2</i>
  <i name="SIGMA">      0.10000000</i>
  <i type="logical" name="LWAVE"> F  </i>
  <i type="logical" name="LCHARG"> F  </i>
  <v type="int" name="KPOINT_BSE">    -1     0     0     0</v>
 </incar>
 <structure name="primitive_cell" >
  <crystal>
   <varray name="basis" >
    <v>       4.44237722      -7.69442305       0.00000000 </v>
    <v>       4.44237722       7.69442305       0.00000000 </v>
    <v>       0.00000000       0.00000000       5.69290626 </v>
   </varray>
   <i name="volume">    389.18448835 </i>
   <varray name="rec_basis" >
    <v>       0.11255235      -0.06498213       0.00000000 </v>
    <v>       0.11255235       0.06498213       0.00000000 </v>
    <v>       0.00000000       0.00000000       0.17565720 </v>
   </varray>
  </crystal>
  <varray name="positions" >
   <v>       0.00847736      -0.35287377       0.21326215 </v>
   <v>       0.08729345      -0.21311138       0.46674092 </v>
   <v>      -0.08729345      -0.30040483      -0.03325908 </v>
   <v>      -0.06686359       0.41763405       0.28259872 </v>
   <v>      -0.00847736      -0.36135113      -0.28673785 </v>
   <v>      -0.08582195       0.32157747      -0.00812732 </v>
   <v>       0.08582195       0.40739942       0.49187268 </v>
   <v>      -0.32157747      -0.40739942      -0.00812732 </v>
   <v>       0.06686359       0.48449764      -0.21740128 </v>
   <v>       0.32157747      -0.08582195       0.49187268 </v>
   <v>       0.33333333      -0.33333333      -0.02422298 </v>
   <v>      -0.33333333       0.33333333       0.47577702 </v>
   <v>      -0.41763405      -0.48449764       0.28259872 </v>
   <v>       0.00000000       0.00000000       0.45692726 </v>
   <v>       0.00000000       0.00000000      -0.04307274 </v>
   <v>       0.40739942       0.08582195      -0.00812732 </v>
   <v>       0.48449764       0.06686359       0.28259872 </v>
   <v>       0.41763405      -0.06686359      -0.21740128 </v>
   <v>      -0.40739942      -0.32157747       0.49187268 </v>
   <v>       0.21311138       0.30040483       0.46674092 </v>
   <v>      -0.21311138       0.08729345      -0.03325908 </v>
   <v>       0.30040483       0.21311138      -0.03325908 </v>
   <v>      -0.30040483      -0.08729345       0.46674092 </v>
   <v>      -0.48449764      -0.41763405      -0.21740128 </v>
   <v>       0.35287377       0.36135113       0.21326215 </v>
   <v>      -0.36135113      -0.00847736       0.21326215 </v>
   <v>      -0.35287377       0.00847736      -0.28673785 </v>
   <v>       0.36135113       0.35287377      -0.28673785 </v>
  </varray>
 </structure>
 <varray name="primitive_index" >
  <v type="int" >        1 </v>
  <v type="int" >       14 </v>
  <v type="int" >       23 </v>
  <v type="int" >       25 </v>
  <v type="int" >        9 </v>
  <v type="int" >        3 </v>
  <v type="int" >        5 </v>
  <v type="int" >       11 </v>
  <v type="int" >       18 </v>
  <v type="int" >        6 </v>
  <v type="int" >       24 </v>
  <v type="int" >       20 </v>
  <v type="int" >       21 </v>
  <v type="int" >       19 </v>
  <v type="int" >       17 </v>
  <v type="int" >       12 </v>
  <v type="int" >       28 </v>
  <v type="int" >       26 </v>
  <v type="int" >        8 </v>
  <v type="int" >       13 </v>
  <v type="int" >       22 </v>
  <v type="int" >       15 </v>
  <v type="int" >       16 </v>
  <v type="int" >       27 </v>
  <v type="int" >        7 </v>
  <v type="int" >        2 </v>
  <v type="int" >        4 </v>
  <v type="int" >       10 </v>
 </varray>
 <kpoints>
  <generation param="Auto">
   <i name="subdivisionlength">     45.00000000 </i>
   <v type="int" name="divisions">       6        6        8 </v>
   <v name="usershift">      0.00000000       0.00000000       0.00000000 </v>
   <v name="genvec1">      0.16666667       0.00000000       0.00000000 </v>
   <v name="genvec2">      0.00000000       0.16666667       0.00000000 </v>
   <v name="genvec3">      0.00000000       0.00000000       0.12500000 </v>
   <v name="shift">      0.00000000       0.00000000       0.00000000 </v>
  </generation>
  <varray name="kpointlist" >
   <v>       0.00000000       0.00000000       0.00000000 </v>
   <v>       0.16666667       0.00000000       0.00000000 </v>
   <v>       0.33333333       0.00000000       0.00000000 </v>
   <v>       0.50000000       0.00000000       0.00000000 </v>
   <v>       0.16666667       0.16666667       0.00000000 </v>
   <v>       0.33333333       0.16666667       0.00000000 </v>
   <v>       0.33333333       0.33333333       0.00000000 </v>
   <v>       0.00000000       0.00000000       0.12500000 </v>
   <v>       0.16666667       0.00000000       0.12500000 </v>
   <v>       0.33333333       0.00000000       0.12500000 </v>
   <v>       0.50000000       0.00000000       0.12500000 </v>
   <v>       0.16666667       0.16666667       0.12500000 </v>
   <v>       0.33333333       0.16666667       0.12500000 </v>
   <v>       0.33333333       0.33333333       0.12500000 </v>
   <v>      -0.16666667       0.33333333       0.12500000 </v>
   <v>      -0.33333333       0.50000000       0.12500000 </v>
   <v>      -0.33333333      -0.33333333       0.12500000 </v>
   <v>       0.00000000       0.00000000       0.25000000 </v>
   <v>       0.16666667       0.00000000       0.25000000 </v>
   <v>       0.33333333       0.00000000       0.25000000 </v>
   <v>       0.50000000       0.00000000       0.25000000 </v>
   <v>       0.16666667       0.16666667       0.25000000 </v>
   <v>       0.33333333       0.16666667       0.25000000 </v>
   <v>       0.33333333       0.33333333       0.25000000 </v>
   <v>      -0.16666667       0.33333333       0.25000000 </v>
   <v>      -0.33333333       0.50000000       0.25000000 </v>
   <v>      -0.33333333      -0.33333333       0.25000000 </v>
   <v>       0.00000000       0.00000000       0.37500000 </v>
   <v>       0.16666667       0.00000000       0.37500000 </v>
   <v>       0.33333333       0.00000000       0.37500000 </v>
   <v>       0.50000000       0.00000000       0.37500000 </v>
   <v>       0.16666667       0.16666667       0.37500000 </v>
   <v>       0.33333333       0.16666667       0.37500000 </v>
   <v>       0.33333333       0.33333333       0.37500000 </v>
   <v>      -0.16666667       0.33333333       0.37500000 </v>
   <v>      -0.33333333       0.50000000       0.37500000 </v>
   <v>      -0.33333333      -0.33333333       0.37500000 </v>
   <v>       0.00000000       0.00000000       0.50000000 </v>
   <v>       0.16666667       0.00000000       0.50000000 </v>
   <v>       0.33333333       0.00000000       0.50000000 </v>
   <v>       0.50000000       0.00000000       0.50000000 </v>
   <v>       0.16666667       0.16666667       0.50000000 </v>
   <v>       0.33333333       0.16666667       0.50000000 </v>
   <v>       0.33333333       0.33333333       0.50000000 </v>
  </varray>
  <varray name="weights" >
   <v>       0.00347222 </v>
   <v>       0.02083333 </v>
   <v>       0.02083333 </v>
   <v>       0.01041667 </v>
   <v>       0.02083333 </v>
   <v>       0.04166667 </v>
   <v>       0.00694444 </v>
   <v>       0.00694444 </v>
   <v>       0.04166667 </v>
   <v>       0.04166667 </v>
   <v>       0.02083333 </v>
   <v>       0.02083333 </v>
   <v>       0.04166667 </v>
   <v>       0.00694444 </v>
   <v>       0.02083333 </v>
   <v>       0.04166667 </v>
   <v>       0.00694444 </v>
   <v>       0.00694444 </v>
   <v>       0.04166667 </v>
   <v>       0.04166667 </v>
   <v>       0.02083333 </v>
   <v>       0.02083333 </v>
   <v>       0.04166667 </v>
   <v>       0.00694444 </v>
   <v>       0.02083333 </v>
   <v>       0.04166667 </v>
   <v>       0.00694444 </v>
   <v>       0.00694444 </v>
   <v>       0.04166667 </v>
   <v>       0.04166667 </v>
   <v>       0.02083333 </v>
   <v>       0.02083333 </v>
   <v>       0.04166667 </v>
   <v>       0.00694444 </v>
   <v>       0.02083333 </v>
   <v>       0.04166667 </v>
   <v>       0.00694444 </v>
   <v>       0.00347222 </v>
   <v>       0.02083333 </v>
   <v>       0.02083333 </v>
   <v>       0.01041667 </v>
   <v>       0.02083333 </v>
   <v>       0.04166667 </v>
   <v>       0.00694444 </v>
  </varray>
 </kpoints>
 <parameters>
  <separator name="general" >
   <i type="string" name="SYSTEM">unknown system</i>
   <i type="logical" name="LCOMPAT"> F  </i>
  </separator>
  <separator name="electronic" >
   <i type="string" name="PREC">accura</i>
   <i name="ENMAX">    400.00000000</i>
   <i name="ENAUG">    627.11200000</i>
   <i name="EDIFF">      0.00010000</i>
   <i type="int" name="IALGO">    68</i>
   <i type="int" name="IWAVPR">    11</i>
   <i type="int" name="NBANDS">    80</i>
   <i name="NELECT">    124.00000000</i>
   <i type="int" name="TURBO">     0</i>
   <i type="int" name="IRESTART">     0</i>
   <i type="int" name="NREBOOT">     0</i>
   <i type="int" name="NMIN">     0</i>
   <i name="EREF">      0.00000000</i>
   <separator name="electronic smearing" >
    <i type="int" name="ISMEAR">     2</i>
    <i name="SIGMA">      0.10000000</i>
    <i name="KSPACING">      0.50000000</i>
    <i type="logical" name="KGAMMA"> T  </i>
   </separator>
   <separator name="electronic projectors" >
    <i type="logical" name="LREAL"> T  </i>
    <v name="ROPT">     -0.00025000     -0.00025000</v>
    <i type="int" name="LMAXPAW">  -100</i>
    <i type="int" name="LMAXMIX">     2</i>
    <i type="logical" name="NLSPLINE"> F  </i>
   </separator>
   <separator name="electronic startup" >
    <i type="int" name="ISTART">     0</i>
    <i type="int" name="ICHARG">     2</i>
    <i type="int" name="INIWAV">     1</i>
   </separator>
   <separator name="electronic spin" >
    <i type="int" name="ISPIN">     1</i>
    <i type="logical" name="LNONCOLLINEAR"> F  </i>
    <v name="MAGMOM">      1.00000000      1.00000000      1.00000000      1.00000000      1.00000000      1.00000000      1.00000000      1.00000000      1.00000000      1.00000000      1.00000000      1.00000000      1.00000000      1.00000000      1.00000000      1.00000000      1.00000000      1.00000000      1.00000000      1.00000000
      1.00000000      1.00000000      1.00000000      1.00000000      1.00000000      1.00000000      1.00000000      1.00000000</v>
    <i name="NUPDOWN">     -1.00000000</i>
    <i type="logical" name="LSORBIT"> F  </i>
    <v name="SAXIS">      0.00000000      0.00000000      1.00000000</v>
    <i type="logical" name="LSPIRAL"> F  </i>
    <v name="QSPIRAL">      0.00000000      0.00000000      0.00000000</v>
    <i type="logical" name="LZEROZ"> F  </i>
   </separator>
   <separator name="electronic exchange-correlation" >
    <i type="logical" name="LASPH"> F  </i>
    <i type="logical" name="LMETAGGA"> F  </i>
   </separator>
   <separator name="electronic convergence" >
    <i type="int" name="NELM">    60</i>
    <i type="int" name="NELMDL">    -5</i>
    <i type="int" name="NELMIN">     2</i>
    <i name="ENINI">    400.00000000</i>
    <separator name="electronic convergence detail" >
     <i type="logical" name="LDIAG"> T  </i>
     <i type="logical" name="LSUBROT"> F  </i>
     <i name="WEIMIN">      0.00100000</i>
     <i name="EBREAK">      0.00000031</i>
     <i name="DEPER">      0.30000000</i>
     <i type="int" name="NRMM">     4</i>
     <i name="TIME">      0.40000000</i>
    </separator>
   </separator>
   <separator name="electronic mixer" >
    <i name="AMIX">      0.40000000</i>
    <i name="BMIX">      1.00000000</i>
    <i name="AMIN">      0.10000000</i>
    <i name="AMIX_MAG">      1.60000000</i>
    <i name="BMIX_MAG">      1.00000000</i>
    <separator name="electronic mixer details" >
     <i type="int" name="IMIX">     4</i>
     <i type="logical" name="MIXFIRST"> F  </i>
     <i type="int" name="MAXMIX">   -45</i>
     <i name="WC">    100.00000000</i>
     <i type="int" name="INIMIX">     1</i>
     <i type="int" name="MIXPRE">     1</i>
     <i type="int" name="MREMOVE">     5</i>
    </separator>
   </separator>
   <separator name="electronic dipolcorrection" >
    <i type="logical" name="LDIPOL"> F  </i>
    <i type="logical" name="LMONO"> F  </i>
    <i type="int" name="IDIPOL">     0</i>
    <i name="EPSILON">      1.00000000</i>
    <v name="DIPOL">   -100.00000000   -100.00000000   -100.00000000</v>
    <i name="EFIELD">      0.00000000</i>
   </separator>
  </separator>
  <separator name="grids" >
   <i type="int" name="NGX">    60</i>
   <i type="int" name="NGY">    60</i>
   <i type="int" name="NGZ">    40</i>
   <i type="int" name="NGXF">   120</i>
   <i type="int" name="NGYF">   120</i>
   <i type="int" name="NGZF">    80</i>
   <i type="logical" name="ADDGRID"> F  </i>
  </separator>
  <separator name="ionic" >
   <i type="int" name="NSW">   100</i>
   <i type="int" name="IBRION">     2</i>
   <i type="int" name="MDALGO">     0</i>
   <i type="int" name="ISIF">     2</i>
   <i name="PSTRESS">      0.00000000</i>
   <i name="EDIFFG">      0.00100000</i>
   <i type="int" name="NFREE">     1</i>
   <i name="POTIM">      0.50000000</i>
   <i name="SMASS">     -3.00000000</i>
   <i name="SCALEE">      1.00000000</i>
  </separator>
  <separator name="ionic md" >
   <i name="TEBEG">      0.00010000</i>
   <i name="TEEND">      0.00010000</i>
   <i type="int" name="NBLOCK">     1</i>
   <i type="int" name="KBLOCK">   100</i>
   <i type="int" name="NPACO">   256</i>
   <i name="APACO">     16.00000000</i>
  </separator>
  <separator name="symmetry" >
   <i type="int" name="ISYM">     2</i>
   <i name="SYMPREC">      0.00001000</i>
  </separator>
  <separator name="dos" >
   <i type="int" name="LORBIT">     0</i>
   <v name="RWIGS">     -1.00000000     -1.00000000</v>
   <i type="int" name="NEDOS">   301</i>
   <i name="EMIN">     10.00000000</i>
   <i name="EMAX">    -10.00000000</i>
   <i name="EFERMI">      0.00000000</i>
  </separator>
  <separator name="writing" >
   <i type="int" name="NWRITE">     2</i>
   <i type="logical" name="LWAVE"> F  </i>
   <i type="logical" name="LDOWNSAMPLE"> F  </i>
   <i type="logical" name="LCHARG"> F  </i>
   <i type="logical" name="LPARD"> F  </i>
   <i type="logical" name="LVTOT"> F  </i>
   <i type="logical" name="LVHAR"> F  </i>
   <i type="logical" name="LELF"> F  </i>
   <i type="logical" name="LOPTICS"> F  </i>
   <v name="STM">      0.00000000      0.00000000      0.00000000      0.00000000      0.00000000      0.00000000      0.00000000</v>
  </separator>
  <separator name="performance" >
   <i type="int" name="NPAR">     4</i>
   <i type="int" name="NSIM">     4</i>
   <i type="int" name="NBLK">    -1</i>
   <i type="logical" name="LPLANE"> T  </i>
   <i type="logical" name="LSCALAPACK"> F  </i>
   <i type="logical" name="LSCAAWARE"> F  </i>
   <i type="logical" name="LSCALU"> F  </i>
   <i type="logical" name="LASYNC"> F  </i>
   <i type="logical" name="LORBITALREAL"> F  </i>
  </separator>
  <separator name="miscellaneous" >
   <i type="int" name="IDIOT">     3</i>
   <i type="int" name="ISPECIAL">     0</i>
   <i type="logical" name="LMUSIC"> F  </i>
   <v name="POMASS">     14.00100000     28.08500000</v>
   <v name="DARWINR">      0.00000000      0.00000000</v>
   <v name="DARWINV">      1.00000000      1.00000000</v>
   <i type="logical" name="LCORR"> T  </i>
  </separator>
  <i type="logical" name="GGA_COMPAT"> T  </i>
  <i type="logical" name="LBERRY"> F  </i>
  <i type="int" name="ICORELEVEL">     0</i>
  <i type="logical" name="LDAU"> F  </i>
  <i type="int" name="I_CONSTRAINED_M">     0</i>
  <separator name="electronic exchange-correlation" >
   <i type="string" name="GGA">--</i>
   <i type="int" name="VOSKOWN">     0</i>
   <i type="logical" name="LHFCALC"> F  </i>
   <i type="string" name="PRECFOCK"></i>
   <i type="logical" name="LSYMGRAD"> F  </i>
   <i type="logical" name="LHFONE"> F  </i>
   <i type="logical" name="LRHFCALC"> F  </i>
   <i type="logical" name="LTHOMAS"> F  </i>
   <i type="logical" name="LMODELHF"> F  </i>
   <i name="ENCUT4O">     -1.00000000</i>
   <i type="int" name="EXXOEP">     0</i>
   <i type="int" name="FOURORBIT">     0</i>
   <i name="AEXX">      0.00000000</i>
   <i name="HFALPHA">      0.00000000</i>
   <i name="MCALPHA">      0.00000000</i>
   <i name="ALDAX">      1.00000000</i>
   <i name="AGGAX">      1.00000000</i>
   <i name="ALDAC">      1.00000000</i>
   <i name="AGGAC">      1.00000000</i>
   <i type="int" name="NKREDX">     1</i>
   <i type="int" name="NKREDY">     1</i>
   <i type="int" name="NKREDZ">     1</i>
   <i type="logical" name="SHIFTRED"> F  </i>
   <i type="logical" name="ODDONLY"> F  </i>
   <i type="logical" name="EVENONLY"> F  </i>
   <i type="int" name="LMAXFOCK">     0</i>
   <i type="int" name="NMAXFOCKAE">     0</i>
   <i type="logical" name="LFOCKAEDFT"> F  </i>
   <i name="HFSCREEN">      0.00000000</i>
   <i name="HFSCREENC">      0.00000000</i>
   <i type="int" name="NBANDSGWLOW">     0</i>
  </separator>
  <separator name="vdW DFT" >
   <i type="logical" name="LUSE_VDW"> F  </i>
   <i name="Zab_VDW">     -0.84910000</i>
   <i name="PARAM1">      0.12340000</i>
   <i name="PARAM2">      1.00000000</i>
   <i name="PARAM3">      0.00000000</i>
  </separator>
  <separator name="model GW" >
   <i type="int" name="MODEL_GW">     0</i>
   <i name="MODEL_EPS0">      8.33966761</i>
   <i name="MODEL_ALPHA">      1.00000000</i>
  </separator>
  <separator name="linear response parameters" >
   <i type="logical" name="LEPSILON"> F  </i>
   <i type="logical" name="LRPA"> F  </i>
   <i type="logical" name="LNABLA"> F  </i>
   <i type="logical" name="LVEL"> F  </i>
   <i type="int" name="KINTER">     0</i>
   <i name="CSHIFT">      0.10000000</i>
   <i name="OMEGAMAX">     -1.00000000</i>
   <i name="DEG_THRESHOLD">      0.00200000</i>
   <i name="RTIME">     -0.10000000</i>
   <i name="WPLASMAI">      0.00000000</i>
   <v name="DFIELD">      0.00000000      0.00000000      0.00000000</v>
   <v name="WPLASMA">      0.00000000      0.00000000      0.00000000      0.00000000      0.00000000      0.00000000      0.00000000      0.00000000      0.00000000</v>
  </separator>
  <separator name="orbital magnetization" >
   <i type="logical" name="NUCIND"> F  </i>
   <v name="MAGPOS">      0.00000000      0.00000000      0.00000000</v>
   <i type="logical" name="LNICSALL"> T  </i>
   <i type="logical" name="ORBITALMAG"> F  </i>
   <i type="logical" name="LMAGBLOCH"> F  </i>
   <i type="logical" name="LCHIMAG"> F  </i>
   <i type="logical" name="LGAUGE"> T  </i>
   <i type="int" name="MAGATOM">     0</i>
   <v name="MAGDIPOL">      0.00000000      0.00000000      0.00000000</v>
   <v name="AVECCONST">      0.00000000      0.00000000      0.00000000</v>
  </separator>
  <separator name="response functions" >
   <i type="logical" name="LADDER"> F  </i>
   <i type="logical" name="LRPAFORCE"> F  </i>
   <i type="logical" name="LFXC"> F  </i>
   <i type="logical" name="LHARTREE"> T  </i>
   <i type="int" name="IBSE">     0</i>
   <v type="int" name="KPOINT">    -1     0     0     0</v>
   <i type="logical" name="LTCTE"> F  </i>
   <i type="logical" name="LTETE"> F  </i>
   <i type="logical" name="LTRIPLET"> F  </i>
   <i type="logical" name="LFXCEPS"> F  </i>
   <i type="logical" name="LFXHEG"> F  </i>
   <i type="int" name="NATURALO">     2</i>
   <i type="logical" name="L2ORDER"> F  </i>
   <i type="logical" name="LMP2LT"> F  </i>
   <i type="logical" name="LUSEW"> F  </i>
   <i name="ENCUTGW">     -2.00000000</i>
   <i name="ENCUTGWSOFT">     -2.00000000</i>
   <i name="ENCUTLF">     -1.00000000</i>
   <i type="int" name="LMAXMP2">    -1</i>
   <i name="SCISSOR">      0.00000000</i>
   <i type="int" name="NOMEGA">     0</i>
   <i type="int" name="NOMEGAR">     0</i>
   <i type="int" name="NBANDSGW">    -1</i>
   <i type="int" name="NBANDSO">    -1</i>
   <i type="int" name="NBANDSV">    -1</i>
   <i type="int" name="NELM">     1</i>
   <i type="int" name="NELMHF">     1</i>
   <i type="int" name="DIM">     3</i>
   <i type="int" name="ANTIRES">     0</i>
   <i name="OMEGAMAX">    -30.00000000</i>
   <i name="OMEGAMIN">    -30.00000000</i>
   <i name="OMEGATL">   -200.00000000</i>
   <i type="int" name="OMEGAGRID">   140</i>
   <i name="CSHIFT">     -0.10000000</i>
   <i type="logical" name="SELFENERGY"> F  </i>
   <i type="logical" name="LSPECTRAL"> F  </i>
   <i type="logical" name="LSPECTRALGW"> F  </i>
   <i type="logical" name="LSINGLES"> F  </i>
   <i type="logical" name="LFERMIGW"> F  </i>
   <i type="logical" name="ODDONLYGW"> F  </i>
   <i type="logical" name="EVENONLYGW"> F  </i>
   <i type="int" name="NKREDLFX">     1</i>
   <i type="int" name="NKREDLFY">     1</i>
   <i type="int" name="NKREDLFZ">     1</i>
   <i type="int" name="MAXMEM">  2800</i>
   <i type="int" name="TELESCOPE">     0</i>
   <i type="int" name="TAUPAR">     1</i>
   <i type="int" name="OMEGAPAR">    -1</i>
   <i name="LAMBDA">      1.00000000</i>
  </separator>
  <separator name="External order field" >
   <i name="OFIELD_KAPPA">      0.00000000</i>
   <v name="OFIELD_K">      0.00000000      0.00000000      0.00000000</v>
   <i name="OFIELD_Q6_NEAR">      0.00000000</i>
   <i name="OFIELD_Q6_FAR">      0.00000000</i>
   <i name="OFIELD_A">      0.00000000</i>
  </separator>
 </parameters>
 <atominfo>
  <atoms>      28 </atoms>
  <types>       2 </types>
  <array name="atoms" >
   <dimension dim="1">ion</dimension>
   <field type="string">element</field>
   <field type="int">atomtype</field>
   <set>
    <rc><c>N </c><c>   1</c></rc>
    <rc><c>N </c><c>   1</c></rc>
    <rc><c>N </c><c>   1</c></rc>
    <rc><c>N </c><c>   1</c></rc>
    <rc><c>N </c><c>   1</c></rc>
    <rc><c>N </c><c>   1</c></rc>
    <rc><c>N </c><c>   1</c></rc>
    <rc><c>N </c><c>   1</c></rc>
    <rc><c>N </c><c>   1</c></rc>
    <rc><c>N </c><c>   1</c></rc>
    <rc><c>N </c><c>   1</c></rc>
    <rc><c>N </c><c>   1</c></rc>
    <rc><c>Si</c><c>   2</c></rc>
    <rc><c>Si</c><c>   2</c></rc>
    <rc><c>Si</c><c>   2</c></rc>
    <rc><c>Si</c><c>   2</c></rc>
    <rc><c>Si</c><c>   2</c></rc>
    <rc><c>Si</c><c>   2</c></rc>
    <rc><c>Si</c><c>   2</c></rc>
    <rc><c>Si</c><c>   2</c></rc>
    <rc><c>Si</c><c>   2</c></rc>
    <rc><c>Si</c><c>   2</c></rc>
    <rc><c>Si</c><c>   2</c></rc>
    <rc><c>Si</c><c>   2</c></rc>
    <rc><c>Si</c><c>   2</c></rc>
    <rc><c>Si</c><c>   2</c></rc>
    <rc><c>Si</c><c>   2</c></rc>
    <rc><c>Si</c><c>   2</c></rc>
   </set>
  </array>
  <array name="atomtypes" >
   <dimension dim="1">type</dimension>
   <field type="int">atomspertype</field>
   <field type="string">element</field>
   <field>mass</field>
   <field>valence</field>
   <field type="string">pseudopotential</field>
   <set>
    <rc><c>  12</c><c>N </c><c>     14.00100000</c><c>      5.00000000</c><c>  PAW_PBE N 08Apr2002                   </c></rc>
    <rc><c>  16</c><c>Si</c><c>     28.08500000</c><c>      4.00000000</c><c>  PAW_PBE Si 05Jan2001                  </c></rc>
   </set>
  </array>
 </atominfo>
 <structure name="initialpos" >
  <crystal>
   <varray name="basis" >
    <v>       4.44237722      -7.69442305       0.00000000 </v>
    <v>       4.44237722       7.69442305       0.00000000 </v>
    <v>       0.00000000       0.00000000       5.69290626 </v>
   </varray>
   <i name="volume">    389.18448835 </i>
   <varray name="rec_basis" >
    <v>       0.11255235      -0.06498213       0.00000000 </v>
    <v>       0.11255235       0.06498213       0.00000000 </v>
    <v>       0.00000000       0.00000000       0.17565720 </v>
   </varray>
  </crystal>
  <varray name="positions" >
   <v>       0.00847736       0.64712623       0.21326215 </v>
   <v>       0.63864887       0.99152264       0.21326215 </v>
   <v>       0.91417805       0.32157747       0.99187268 </v>
   <v>       0.64712623       0.00847736       0.71326215 </v>
   <v>       0.08582195       0.40739942       0.49187268 </v>
   <v>       0.32157747       0.91417805       0.49187268 </v>
   <v>       0.35287377       0.36135113       0.21326215 </v>
   <v>       0.59260058       0.67842253       0.49187268 </v>
   <v>       0.99152264       0.63864887       0.71326215 </v>
   <v>       0.36135113       0.35287377       0.71326215 </v>
   <v>       0.67842253       0.59260058       0.99187268 </v>
   <v>       0.40739942       0.08582195       0.99187268 </v>
   <v>       0.21311138       0.30040483       0.46674092 </v>
   <v>       0.08729345       0.78688862       0.46674092 </v>
   <v>       0.30040483       0.21311138       0.96674092 </v>
   <v>       0.69959517       0.91270655       0.46674092 </v>
   <v>       0.00000000       0.00000000       0.95692726 </v>
   <v>       0.06686359       0.48449764       0.78259872 </v>
   <v>       0.00000000       0.00000000       0.45692726 </v>
   <v>       0.66666667       0.33333333       0.47577702 </v>
   <v>       0.58236595       0.51550236       0.28259872 </v>
   <v>       0.78688862       0.08729345       0.96674092 </v>
   <v>       0.91270655       0.69959517       0.96674092 </v>
   <v>       0.33333333       0.66666667       0.97577702 </v>
   <v>       0.93313641       0.41763405       0.28259872 </v>
   <v>       0.41763405       0.93313641       0.78259872 </v>
   <v>       0.51550236       0.58236595       0.78259872 </v>
   <v>       0.48449764       0.06686359       0.28259872 </v>
  </varray>
 </structure>
 <calculation>
  <scstep>
   <time name="dav">    9.27    9.30</time>
   <time name="total">    9.34    9.38</time>
   <energy>
    <i name="alphaZ">    125.29306276 </i>
    <i name="ewald">  -4077.91391707 </i>
    <i name="hartreedc">  -1123.58791675 </i>
    <i name="XCdc">     91.57570996 </i>
    <i name="pawpsdc">   3869.17357318 </i>
    <i name="pawaedc">  -3601.97287308 </i>
    <i name="eentropy">      0.00066591 </i>
    <i name="bandstr">    361.13723414 </i>
    <i name="atom">   4822.75196862 </i>
    <i name="e_fr_energy">    466.45750767 </i>
    <i name="e_wo_entrp">    466.45684176 </i>
    <i name="e_0_energy">    466.45734119 </i>
   </energy>
  </scstep>
  <scstep>
   <time name="dav">   10.95   10.98</time>
   <time name="total">   10.96   10.98</time>
   <energy>
    <i name="e_fr_energy">   -165.84055287 </i>
    <i name="e_wo_entrp">   -165.83879312 </i>
    <i name="e_0_energy">   -165.84011293 </i>
   </energy>
  </scstep>
  <scstep>
   <time name="dav">   10.40   10.41</time>
   <time name="total">   10.40   10.42</time>
   <energy>
    <i name="e_fr_energy">   -221.33192216 </i>
    <i name="e_wo_entrp">   -221.30928599 </i>
    <i name="e_0_energy">   -221.32626311 </i>
   </energy>
  </scstep>
  <scstep>
   <time name="dav">   10.93   10.93</time>
   <time name="total">   10.93   10.94</time>
   <energy>
    <i name="e_fr_energy">   -222.83375829 </i>
    <i name="e_wo_entrp">   -222.80855412 </i>
    <i name="e_0_energy">   -222.82745725 </i>
   </energy>
  </scstep>
  <scstep>
   <time name="dav">   10.55   10.56</time>
   <time name="total">   10.94   10.95</time>
   <energy>
    <i name="e_fr_energy">   -222.87281678 </i>
    <i name="e_wo_entrp">   -222.84762458 </i>
    <i name="e_0_energy">   -222.86651873 </i>
   </energy>
  </scstep>
  <scstep>
   <time name="diag">    1.17    1.17</time>
   <time name="diis">    6.06    6.07</time>
   <time name="orth">    0.12    0.12</time>
   <time name="total">    7.81    7.83</time>
   <energy>
    <i name="e_fr_energy">   -201.16613470 </i>
    <i name="e_wo_entrp">   -201.16421437 </i>
    <i name="e_0_energy">   -201.16565462 </i>
   </energy>
  </scstep>
  <scstep>
   <time name="diag">    1.17    1.17</time>
   <time name="diis">    6.28    6.29</time>
   <time name="orth">    0.11    0.11</time>
   <time name="total">    8.04    8.05</time>
   <energy>
    <i name="e_fr_energy">   -200.81930978 </i>
    <i name="e_wo_entrp">   -200.80941536 </i>
    <i name="e_0_energy">   -200.81683618 </i>
   </energy>
  </scstep>
  <scstep>
   <time name="diag">    1.13    1.13</time>
   <time name="diis">    5.85    5.85</time>
   <time name="orth">    0.11    0.11</time>
   <time name="total">    7.56    7.56</time>
   <energy>
    <i name="e_fr_energy">   -200.70724941 </i>
    <i name="e_wo_entrp">   -200.70074343 </i>
    <i name="e_0_energy">   -200.70562292 </i>
   </energy>
  </scstep>
  <scstep>
   <time name="diag">    1.16    1.17</time>
   <time name="diis">    6.00    6.01</time>
   <time name="orth">    0.11    0.11</time>
   <time name="total">    7.78    7.79</time>
   <energy>
    <i name="e_fr_energy">   -200.63048890 </i>
    <i name="e_wo_entrp">   -200.62045516 </i>
    <i name="e_0_energy">   -200.62798046 </i>
   </energy>
  </scstep>
  <scstep>
   <time name="diag">    1.14    1.14</time>
   <time name="diis">    5.50    5.50</time>
   <time name="orth">    0.11    0.11</time>
   <time name="total">    7.22    7.22</time>
   <energy>
    <i name="e_fr_energy">   -200.61804102 </i>
    <i name="e_wo_entrp">   -200.61043974 </i>
    <i name="e_0_energy">   -200.61614070 </i>
   </energy>
  </scstep>
  <scstep>
   <time name="diag">    1.12    1.12</time>
   <time name="diis">    5.43    5.43</time>
   <time name="orth">    0.11    0.11</time>
   <time name="total">    7.11    7.11</time>
   <energy>
    <i name="e_fr_energy">   -200.61556127 </i>
    <i name="e_wo_entrp">   -200.60588046 </i>
    <i name="e_0_energy">   -200.61314107 </i>
   </energy>
  </scstep>
  <scstep>
   <time name="diag">    1.08    1.08</time>
   <time name="diis">    5.58    5.58</time>
   <time name="orth">    0.11    0.11</time>
   <time name="total">    7.62    7.65</time>
   <energy>
    <i name="e_fr_energy">   -200.61466958 </i>
    <i name="e_wo_entrp">   -200.60621718 </i>
    <i name="e_0_energy">   -200.61255648 </i>
   </energy>
  </scstep>
  <scstep>
   <time name="diag">    1.17    1.17</time>
   <time name="diis">    5.27    5.27</time>
   <time name="orth">    0.12    0.12</time>
   <time name="total">    7.04    7.04</time>
   <energy>
    <i name="e_fr_energy">   -200.61443416 </i>
    <i name="e_wo_entrp">   -200.60517113 </i>
    <i name="e_0_energy">   -200.61211841 </i>
   </energy>
  </scstep>
  <scstep>
   <time name="diag">    1.16    1.16</time>
   <time name="diis">    3.97    3.98</time>
   <time name="orth">    0.11    0.11</time>
   <time name="total">    5.31    5.31</time>
   <energy>
    <i name="alphaZ">    125.29306276 </i>
    <i name="ewald">  -4077.91391707 </i>
    <i name="hartreedc">  -1323.00974332 </i>
    <i name="XCdc">    107.17920289 </i>
    <i name="pawpsdc">  13679.15198295 </i>
    <i name="pawaedc"> -13415.31043937 </i>
    <i name="eentropy">     -0.00914639 </i>
    <i name="bandstr">   -118.74737921 </i>
    <i name="atom">   4822.75196862 </i>
    <i name="e_fr_energy">   -200.61440813 </i>
    <i name="e_wo_entrp">   -200.60526174 </i>
    <i name="e_0_energy">   -200.61212154 </i>
   </energy>
  </scstep>
  <structure>
   <crystal>
    <varray name="basis" >
     <v>       4.44237722      -7.69442305       0.00000000 </v>
     <v>       4.44237722       7.69442305       0.00000000 </v>
     <v>       0.00000000       0.00000000       5.69290626 </v>
    </varray>
    <i name="volume">    389.18448835 </i>
    <varray name="rec_basis" >
     <v>       0.11255235      -0.06498213       0.00000000 </v>
     <v>       0.11255235       0.06498213       0.00000000 </v>
     <v>       0.00000000       0.00000000       0.17565720 </v>
    </varray>
   </crystal>
   <varray name="positions" >
    <v>       0.00847736       0.64712623       0.21326215 </v>
    <v>       0.63864887       0.99152264       0.21326215 </v>
    <v>       0.91417805       0.32157747       0.99187268 </v>
    <v>       0.64712623       0.00847736       0.71326215 </v>
    <v>       0.08582195       0.40739942       0.49187268 </v>
    <v>       0.32157747       0.91417805       0.49187268 </v>
    <v>       0.35287377       0.36135113       0.21326215 </v>
    <v>       0.59260058       0.67842253       0.49187268 </v>
    <v>       0.99152264       0.63864887       0.71326215 </v>
    <v>       0.36135113       0.35287377       0.71326215 </v>
    <v>       0.67842253       0.59260058       0.99187268 </v>
    <v>       0.40739942       0.08582195       0.99187268 </v>
    <v>       0.21311138       0.30040483       0.46674092 </v>
    <v>       0.08729345       0.78688862       0.46674092 </v>
    <v>       0.30040483       0.21311138       0.96674092 </v>
    <v>       0.69959517       0.91270655       0.46674092 </v>
    <v>       0.00000000       0.00000000       0.95692726 </v>
    <v>       0.06686359       0.48449764       0.78259872 </v>
    <v>       0.00000000       0.00000000       0.45692726 </v>
    <v>       0.66666667       0.33333333       0.47577702 </v>
    <v>       0.58236595       0.51550236       0.28259872 </v>
    <v>       0.78688862       0.08729345       0.96674092 </v>
    <v>       0.91270655       0.69959517       0.96674092 </v>
    <v>       0.33333333       0.66666667       0.97577702 </v>
    <v>       0.93313641       0.41763405       0.28259872 </v>
    <v>       0.41763405       0.93313641       0.78259872 </v>
    <v>       0.51550236       0.58236595       0.78259872 </v>
    <v>       0.48449764       0.06686359       0.28259872 </v>
   </varray>
  </structure>
  <varray name="forces" >
   <v>      -0.21894611       0.32638304       0.25672401 </v>
   <v>       0.39212906       0.02642138       0.25672401 </v>
   <v>       0.16604182      -0.06679967       0.26421976 </v>
   <v>      -0.21894611      -0.32638304       0.25672401 </v>
   <v>      -0.14087112       0.11039660       0.26421976 </v>
   <v>       0.16604182       0.06679967       0.26421976 </v>
   <v>      -0.17318295      -0.35280442       0.25672401 </v>
   <v>      -0.02517070      -0.17719627       0.26421976 </v>
   <v>       0.39212906      -0.02642138       0.25672401 </v>
   <v>      -0.17318295       0.35280442       0.25672401 </v>
   <v>      -0.02517070       0.17719627       0.26421976 </v>
   <v>      -0.14087112      -0.11039660       0.26421976 </v>
   <v>       0.53823765       0.08604655       0.02668142 </v>
   <v>      -0.19460033      -0.50915076       0.02668142 </v>
   <v>       0.53823765      -0.08604655       0.02668142 </v>
   <v>      -0.34363733       0.42310421       0.02668142 </v>
   <v>       0.00000000      -0.00000000       0.06964120 </v>
   <v>      -0.19235396       0.28593562      -0.28366512 </v>
   <v>       0.00000000       0.00000000       0.06964120 </v>
   <v>       0.00000000       0.00000000      -0.86152142 </v>
   <v>      -0.15145053       0.30955123      -0.28366512 </v>
   <v>      -0.19460033       0.50915076       0.02668142 </v>
   <v>      -0.34363733      -0.42310421       0.02668142 </v>
   <v>       0.00000000       0.00000000      -0.86152142 </v>
   <v>       0.34380449      -0.02361560      -0.28366512 </v>
   <v>       0.34380449       0.02361560      -0.28366512 </v>
   <v>      -0.15145053      -0.30955123      -0.28366512 </v>
   <v>      -0.19235396      -0.28593562      -0.28366512 </v>
  </varray>
  <varray name="stress" >
   <v>    -124.94736810       0.00000000      -0.00000000 </v>
   <v>       0.00000000    -124.94736810       0.00000000 </v>
   <v>       0.00000000       0.00000000    -181.48933996 </v>
  </varray>
  <energy>
   <i name="e_fr_energy">   -200.61440813 </i>
   <i name="e_wo_entrp">   -200.61212154 </i>
   <i name="e_0_energy">     -0.00914639 </i>
  </energy>
  <time name="totalsc">  130.80  131.02</time>
 </calculation>
 <calculation>
  <scstep>
   <time name="dav">    9.90    9.92</time>
   <time name="total">   10.44   10.55</time>
   <energy>
    <i name="alphaZ">    125.29306276 </i>
    <i name="ewald">  -4053.78326444 </i>
    <i name="hartreedc">  -1339.68061194 </i>
    <i name="XCdc">    107.60361983 </i>
    <i name="pawpsdc">  13682.32240385 </i>
    <i name="pawaedc"> -13418.48084157 </i>
    <i name="eentropy">     -0.01049232 </i>
    <i name="bandstr">   -126.79380854 </i>
    <i name="atom">   4822.75196862 </i>
    <i name="e_fr_energy">   -200.77796375 </i>
    <i name="e_wo_entrp">   -200.76747144 </i>
    <i name="e_0_energy">   -200.77534068 </i>
   </energy>
  </scstep>
  <scstep>
   <time name="diag">    1.18    1.18</time>
   <time name="diis">    6.03    6.03</time>
   <time name="orth">    0.12    0.12</time>
   <time name="total">    7.80    7.80</time>
   <energy>
    <i name="e_fr_energy">   -200.81246883 </i>
    <i name="e_wo_entrp">   -200.80225144 </i>
    <i name="e_0_energy">   -200.80991448 </i>
   </energy>
  </scstep>
  <scstep>
   <time name="diag">    1.16    1.16</time>
   <time name="diis">    6.13    6.13</time>
   <time name="orth">    0.11    0.11</time>
   <time name="total">    7.88    7.88</time>
   <energy>
    <i name="e_fr_energy">   -200.80683947 </i>
    <i name="e_wo_entrp">   -200.79653702 </i>
    <i name="e_0_energy">   -200.80426386 </i>
   </energy>
  </scstep>
  <scstep>
   <time name="diag">    1.17    1.17</time>
   <time name="diis">    6.19    6.19</time>
   <time name="orth">    0.12    0.12</time>
   <time name="total">    7.95    7.95</time>
   <energy>
    <i name="e_fr_energy">   -200.80517001 </i>
    <i name="e_wo_entrp">   -200.79489143 </i>
    <i name="e_0_energy">   -200.80260037 </i>
   </energy>
  </scstep>
  <scstep>
   <time name="diag">    1.16    1.16</time>
   <time name="diis">    5.22    5.22</time>
   <time name="orth">    0.13    0.13</time>
   <time name="total">    6.57    6.58</time>
   <energy>
    <i name="alphaZ">    125.29306276 </i>
    <i name="ewald">  -4053.78326444 </i>
    <i name="hartreedc">  -1342.04723806 </i>
    <i name="XCdc">    107.79328709 </i>
    <i name="pawpsdc">  13930.84506147 </i>
    <i name="pawaedc"> -13667.09862073 </i>
    <i name="eentropy">     -0.01035743 </i>
    <i name="bandstr">   -124.54904931 </i>
    <i name="atom">   4822.75196862 </i>
    <i name="e_fr_energy">   -200.80515003 </i>
    <i name="e_wo_entrp">   -200.79479260 </i>
    <i name="e_0_energy">   -200.80256067 </i>
   </energy>
  </scstep>
  <structure>
   <crystal>
    <varray name="basis" >
     <v>       4.44237722      -7.69442305       0.00000000 </v>
     <v>       4.44237722       7.69442305       0.00000000 </v>
     <v>       0.00000000       0.00000000       5.69290626 </v>
    </varray>
    <i name="volume">    389.18448835 </i>
    <varray name="rec_basis" >
     <v>       0.11255235      -0.06498213       0.00000000 </v>
     <v>       0.11255235       0.06498213       0.00000000 </v>
     <v>       0.00000000       0.00000000       0.17565720 </v>
    </varray>
   </crystal>
   <varray name="positions" >
    <v>       0.00626534       0.64696057       0.21543767 </v>
    <v>       0.64069524       0.99373466       0.21543767 </v>
    <v>       0.91528904       0.32226964       0.99411172 </v>
    <v>       0.64696057       0.00626534       0.71543767 </v>
    <v>       0.08471096       0.40698059       0.49411172 </v>
    <v>       0.32226964       0.91528904       0.49411172 </v>
    <v>       0.35303943       0.35930476       0.21543767 </v>
    <v>       0.59301941       0.67773036       0.49411172 </v>
    <v>       0.99373466       0.64069524       0.71543767 </v>
    <v>       0.35930476       0.35303943       0.71543767 </v>
    <v>       0.67773036       0.59301941       0.99411172 </v>
    <v>       0.40698059       0.08471096       0.99411172 </v>
    <v>       0.21576417       0.30359711       0.46696702 </v>
    <v>       0.08783294       0.78423583       0.46696702 </v>
    <v>       0.30359711       0.21576417       0.96696702 </v>
    <v>       0.69640289       0.91216706       0.46696702 </v>
    <v>       0.00000000       0.00000000       0.95751741 </v>
    <v>       0.06492276       0.48434957       0.78019490 </v>
    <v>       0.00000000       0.00000000       0.45751741 </v>
    <v>       0.66666667       0.33333333       0.46847634 </v>
    <v>       0.58057319       0.51565043       0.28019490 </v>
    <v>       0.78423583       0.08783294       0.96696702 </v>
    <v>       0.91216706       0.69640289       0.96696702 </v>
    <v>       0.33333333       0.66666667       0.96847634 </v>
    <v>       0.93507724       0.41942681       0.28019490 </v>
    <v>       0.41942681       0.93507724       0.78019490 </v>
    <v>       0.51565043       0.58057319       0.78019490 </v>
    <v>       0.48434957       0.06492276       0.28019490 </v>
   </varray>
  </structure>
  <varray name="forces" >
   <v>      -0.18860330       0.03759619       0.13813388 </v>
   <v>       0.12686090       0.14453716       0.13813388 </v>
   <v>       0.08715465      -0.01531330      -0.07713234 </v>
   <v>      -0.18860330      -0.03759619       0.13813388 </v>
   <v>      -0.05683903       0.06782149      -0.07713234 </v>
   <v>       0.08715465       0.01531330      -0.07713234 </v>
   <v>       0.06174240      -0.18213334       0.13813388 </v>
   <v>      -0.03031562      -0.08313479      -0.07713234 </v>
   <v>       0.12686090      -0.14453716       0.13813388 </v>
   <v>       0.06174240       0.18213334       0.13813388 </v>
   <v>      -0.03031562       0.08313479      -0.07713234 </v>
   <v>      -0.05683903      -0.06782149      -0.07713234 </v>
   <v>      -0.15197280       0.11044772       0.13241955 </v>
   <v>       0.17163693       0.07638844       0.13241955 </v>
   <v>      -0.15197280      -0.11044772       0.13241955 </v>
   <v>      -0.01966414      -0.18683616       0.13241955 </v>
   <v>      -0.00000000       0.00000000       0.07720205 </v>
   <v>      -0.07154742       0.03436846       0.02678668 </v>
   <v>      -0.00000000       0.00000000       0.07720205 </v>
   <v>      -0.00000000       0.00000000      -0.73782537 </v>
   <v>       0.00600975       0.07914612       0.02678668 </v>
   <v>       0.17163693      -0.07638844       0.13241955 </v>
   <v>      -0.01966414       0.18683616       0.13241955 </v>
   <v>      -0.00000000       0.00000000      -0.73782537 </v>
   <v>       0.06553767      -0.04477766       0.02678668 </v>
   <v>       0.06553767       0.04477766       0.02678668 </v>
   <v>       0.00600975      -0.07914612       0.02678668 </v>
   <v>      -0.07154742      -0.03436846       0.02678668 </v>
  </varray>
  <varray name="stress" >
   <v>    -119.00768036       0.00000000       0.00000000 </v>
   <v>       0.00000000    -119.00768036       0.00000000 </v>
   <v>       0.00000000       0.00000000    -166.23015999 </v>
  </varray>
  <energy>
   <i name="e_fr_energy">   -200.80515003 </i>
   <i name="e_wo_entrp">   -200.80256067 </i>
   <i name="e_0_energy">     -0.01035743 </i>
  </energy>
  <time name="totalsc">   53.88   54.02</time>
 </calculation>
 <calculation>
  <scstep>
   <time name="dav">    9.97    9.98</time>
   <time name="total">   10.46   10.48</time>
   <energy>
    <i name="alphaZ">    125.29306276 </i>
    <i name="ewald">  -4046.75485430 </i>
    <i name="hartreedc">  -1346.89608509 </i>
    <i name="XCdc">    107.91502460 </i>
    <i name="pawpsdc">  13946.90351669 </i>
    <i name="pawaedc"> -13683.16017447 </i>
    <i name="eentropy">     -0.01045506 </i>
    <i name="bandstr">   -126.85506088 </i>
    <i name="atom">   4822.75196862 </i>
    <i name="e_fr_energy">   -200.81305712 </i>
    <i name="e_wo_entrp">   -200.80260206 </i>
    <i name="e_0_energy">   -200.81044335 </i>
   </energy>
  </scstep>
  <scstep>
   <time name="diag">    1.17    1.17</time>
   <time name="diis">    5.94    5.94</time>
   <time name="orth">    0.12    0.12</time>
   <time name="total">    7.69    7.69</time>
   <energy>
    <i name="e_fr_energy">   -200.81598619 </i>
    <i name="e_wo_entrp">   -200.80552923 </i>
    <i name="e_0_energy">   -200.81337195 </i>
   </energy>
  </scstep>
  <scstep>
   <time name="diag">    1.31    1.40</time>
   <time name="diis">    6.77    6.78</time>
   <time name="orth">    0.11    0.11</time>
   <time name="total">    8.97    9.16</time>
   <energy>
    <i name="e_fr_energy">   -200.81557580 </i>
    <i name="e_wo_entrp">   -200.80510813 </i>
    <i name="e_0_energy">   -200.81295888 </i>
   </energy>
  </scstep>
  <scstep>
   <time name="diag">    1.14    1.14</time>
   <time name="diis">    5.69    5.71</time>
   <time name="orth">    0.12    0.12</time>
   <time name="total">    7.41    7.43</time>
   <energy>
    <i name="e_fr_energy">   -200.81546395 </i>
    <i name="e_wo_entrp">   -200.80498364 </i>
    <i name="e_0_energy">   -200.81284387 </i>
   </energy>
  </scstep>
  <scstep>
   <time name="diag">    1.21    1.21</time>
   <time name="diis">    3.97    3.97</time>
   <time name="orth">    0.12    0.12</time>
   <time name="total">    5.35    5.35</time>
   <energy>
    <i name="alphaZ">    125.29306276 </i>
    <i name="ewald">  -4046.75485430 </i>
    <i name="hartreedc">  -1347.55774270 </i>
    <i name="XCdc">    107.96910047 </i>
    <i name="pawpsdc">  14033.83486167 </i>
    <i name="pawaedc"> -13770.12028791 </i>
    <i name="eentropy">     -0.01047946 </i>
    <i name="bandstr">   -126.22110034 </i>
    <i name="atom">   4822.75196862 </i>
    <i name="e_fr_energy">   -200.81547118 </i>
    <i name="e_wo_entrp">   -200.80499172 </i>
    <i name="e_0_energy">   -200.81285131 </i>
   </energy>
  </scstep>
  <structure>
   <crystal>
    <varray name="basis" >
     <v>       4.44237722      -7.69442305       0.00000000 </v>
     <v>       4.44237722       7.69442305       0.00000000 </v>
     <v>       0.00000000       0.00000000       5.69290626 </v>
    </varray>
    <i name="volume">    389.18448835 </i>
    <varray name="rec_basis" >
     <v>       0.11255235      -0.06498213       0.00000000 </v>
     <v>       0.11255235       0.06498213       0.00000000 </v>
     <v>       0.00000000       0.00000000       0.17565720 </v>
    </varray>
   </crystal>
   <varray name="positions" >
    <v>       0.00562087       0.64691231       0.21607151 </v>
    <v>       0.64129144       0.99437913       0.21607151 </v>
    <v>       0.91561273       0.32247130       0.99476406 </v>
    <v>       0.64691231       0.00562087       0.71607151 </v>
    <v>       0.08438727       0.40685857       0.49476406 </v>
    <v>       0.32247130       0.91561273       0.49476406 </v>
    <v>       0.35308769       0.35870856       0.21607151 </v>
    <v>       0.59314143       0.67752870       0.49476406 </v>
    <v>       0.99437913       0.64129144       0.71607151 </v>
    <v>       0.35870856       0.35308769       0.71607151 </v>
    <v>       0.67752870       0.59314143       0.99476406 </v>
    <v>       0.40685857       0.08438727       0.99476406 </v>
    <v>       0.21653706       0.30452718       0.46703289 </v>
    <v>       0.08799013       0.78346294       0.46703289 </v>
    <v>       0.30452718       0.21653706       0.96703289 </v>
    <v>       0.69547282       0.91200987       0.46703289 </v>
    <v>       0.00000000       0.00000000       0.95768935 </v>
    <v>       0.06435730       0.48430643       0.77949454 </v>
    <v>       0.00000000       0.00000000       0.45768935 </v>
    <v>       0.66666667       0.33333333       0.46634929 </v>
    <v>       0.58005087       0.51569357       0.27949454 </v>
    <v>       0.78346294       0.08799013       0.96703289 </v>
    <v>       0.91200987       0.69547282       0.96703289 </v>
    <v>       0.33333333       0.66666667       0.96634929 </v>
    <v>       0.93564270       0.41994913       0.27949454 </v>
    <v>       0.41994913       0.93564270       0.77949454 </v>
    <v>       0.51569357       0.58005087       0.77949454 </v>
    <v>       0.48430643       0.06435730       0.27949454 </v>
   </varray>
  </structure>
  <varray name="forces" >
   <v>      -0.18241613      -0.05041125       0.10042670 </v>
   <v>       0.04755064       0.18318263       0.10042670 </v>
   <v>       0.06269965       0.00046726      -0.18277361 </v>
   <v>      -0.18241613       0.05041125       0.10042670 </v>
   <v>      -0.03094517       0.05453312      -0.18277361 </v>
   <v>       0.06269965      -0.00046726      -0.18277361 </v>
   <v>       0.13486549      -0.13277138       0.10042670 </v>
   <v>      -0.03175448      -0.05406586      -0.18277361 </v>
   <v>       0.04755064      -0.18318263       0.10042670 </v>
   <v>       0.13486549       0.13277138       0.10042670 </v>
   <v>      -0.03175448       0.05406586      -0.18277361 </v>
   <v>      -0.03094517      -0.05453312      -0.18277361 </v>
   <v>      -0.35917059       0.12055119       0.16496228 </v>
   <v>       0.28398568       0.25077526       0.16496228 </v>
   <v>      -0.35917059      -0.12055119       0.16496228 </v>
   <v>       0.07518490      -0.37132645       0.16496228 </v>
   <v>      -0.00000000      -0.00000000       0.07938281 </v>
   <v>      -0.03954471      -0.03829424       0.12467928 </v>
   <v>      -0.00000000      -0.00000000       0.07938281 </v>
   <v>      -0.00000000      -0.00000000      -0.70126677 </v>
   <v>       0.05293614       0.01509961       0.12467928 </v>
   <v>       0.28398568      -0.25077526       0.16496228 </v>
   <v>       0.07518490       0.37132645       0.16496228 </v>
   <v>      -0.00000000      -0.00000000      -0.70126677 </v>
   <v>      -0.01339143      -0.05339385       0.12467928 </v>
   <v>      -0.01339143       0.05339385       0.12467928 </v>
   <v>       0.05293614      -0.01509961       0.12467928 </v>
   <v>      -0.03954471       0.03829424       0.12467928 </v>
  </varray>
  <varray name="stress" >
   <v>    -117.30810977       0.00000000       0.00000000 </v>
   <v>       0.00000000    -117.30810977      -0.00000000 </v>
   <v>       0.00000000       0.00000000    -161.36507536 </v>
  </varray>
  <energy>
   <i name="e_fr_energy">   -200.81547118 </i>
   <i name="e_wo_entrp">   -200.81285131 </i>
   <i name="e_0_energy">     -0.01047946 </i>
  </energy>
  <time name="totalsc">   52.21   52.46</time>
 </calculation>
 <calculation>
  <scstep>
   <time name="dav">    8.44    8.45</time>
   <time name="total">    8.93    8.97</time>
   <energy>
    <i name="alphaZ">    125.29306276 </i>
    <i name="ewald">  -4039.88994824 </i>
    <i name="hartreedc">  -1352.28038294 </i>
    <i name="XCdc">    108.13121538 </i>
    <i name="pawpsdc">  14038.78483438 </i>
    <i name="pawaedc"> -13775.07085967 </i>
    <i name="eentropy">     -0.00972490 </i>
    <i name="bandstr">   -128.60463076 </i>
    <i name="atom">   4822.75196862 </i>
    <i name="e_fr_energy">   -200.89446537 </i>
    <i name="e_wo_entrp">   -200.88474047 </i>
    <i name="e_0_energy">   -200.89203414 </i>
   </energy>
  </scstep>
  <scstep>
   <time name="diag">    1.12    1.12</time>
   <time name="diis">    5.80    5.80</time>
   <time name="orth">    0.10    0.10</time>
   <time name="total">    7.48    7.49</time>
   <energy>
    <i name="e_fr_energy">   -200.91526690 </i>
    <i name="e_wo_entrp">   -200.90493885 </i>
    <i name="e_0_energy">   -200.91268488 </i>
   </energy>
  </scstep>
  <scstep>
   <time name="diag">    1.19    1.19</time>
   <time name="diis">    6.40    6.41</time>
   <time name="orth">    0.11    0.11</time>
   <time name="total">    8.22    8.26</time>
   <energy>
    <i name="e_fr_energy">   -200.91327284 </i>
    <i name="e_wo_entrp">   -200.90327657 </i>
    <i name="e_0_energy">   -200.91077378 </i>
   </energy>
  </scstep>
  <scstep>
   <time name="diag">    1.17    1.17</time>
   <time name="diis">    5.94    5.94</time>
   <time name="orth">    0.12    0.12</time>
   <time name="total">    7.73    7.73</time>
   <energy>
    <i name="e_fr_energy">   -200.91214934 </i>
    <i name="e_wo_entrp">   -200.90196654 </i>
    <i name="e_0_energy">   -200.90960364 </i>
   </energy>
  </scstep>
  <scstep>
   <time name="diag">    1.13    1.13</time>
   <time name="diis">    5.56    5.56</time>
   <time name="orth">    0.11    0.11</time>
   <time name="total">    7.27    7.28</time>
   <energy>
    <i name="e_fr_energy">   -200.91205372 </i>
    <i name="e_wo_entrp">   -200.90198636 </i>
    <i name="e_0_energy">   -200.90953688 </i>
   </energy>
  </scstep>
  <scstep>
   <time name="diag">    1.17    1.18</time>
   <time name="diis">    4.07    4.11</time>
   <time name="orth">    0.12    0.12</time>
   <time name="total">    5.42    5.49</time>
   <energy>
    <i name="alphaZ">    125.29306276 </i>
    <i name="ewald">  -4039.88994824 </i>
    <i name="hartreedc">  -1353.09511334 </i>
    <i name="XCdc">    108.19499010 </i>
    <i name="pawpsdc">  14144.55860884 </i>
    <i name="pawaedc"> -13880.88878390 </i>
    <i name="eentropy">     -0.01009306 </i>
    <i name="bandstr">   -127.82671959 </i>
    <i name="atom">   4822.75196862 </i>
    <i name="e_fr_energy">   -200.91202781 </i>
    <i name="e_wo_entrp">   -200.90193475 </i>
    <i name="e_0_energy">   -200.90950455 </i>
   </energy>
  </scstep>
  <structure>
   <crystal>
    <varray name="basis" >
     <v>       4.44237722      -7.69442305       0.00000000 </v>
     <v>       4.44237722       7.69442305       0.00000000 </v>
     <v>       0.00000000       0.00000000       5.69290626 </v>
    </varray>
    <i name="volume">    389.18448835 </i>
    <varray name="rec_basis" >
     <v>       0.11255235      -0.06498213       0.00000000 </v>
     <v>       0.11255235       0.06498213       0.00000000 </v>
     <v>       0.00000000       0.00000000       0.17565720 </v>
    </varray>
   </crystal>
   <varray name="positions" >
    <v>       0.00377297       0.64562445       0.21792311 </v>
    <v>       0.64185148       0.99622703       0.21792311 </v>
    <v>       0.91645711       0.32313570       0.99410370 </v>
    <v>       0.64562445       0.00377297       0.71792311 </v>
    <v>       0.08354289       0.40667859       0.49410370 </v>
    <v>       0.32313570       0.91645711       0.49410370 </v>
    <v>       0.35437555       0.35814852       0.21792311 </v>
    <v>       0.59332141       0.67686430       0.49410370 </v>
    <v>       0.99622703       0.64185148       0.71792311 </v>
    <v>       0.35814852       0.35437555       0.71792311 </v>
    <v>       0.67686430       0.59332141       0.99410370 </v>
    <v>       0.40667859       0.08354289       0.99410370 </v>
    <v>       0.21523285       0.30425868       0.46861110 </v>
    <v>       0.08902583       0.78476715       0.46861110 </v>
    <v>       0.30425868       0.21523285       0.96861110 </v>
    <v>       0.69574132       0.91097417       0.46861110 </v>
    <v>       0.00000000       0.00000000       0.95865922 </v>
    <v>       0.06340872       0.48388743       0.77956189 </v>
    <v>       0.00000000       0.00000000       0.45865922 </v>
    <v>       0.66666667       0.33333333       0.45686903 </v>
    <v>       0.57952129       0.51611257       0.27956189 </v>
    <v>       0.78476715       0.08902583       0.96861110 </v>
    <v>       0.91097417       0.69574132       0.96861110 </v>
    <v>       0.33333333       0.66666667       0.95686903 </v>
    <v>       0.93659128       0.42047871       0.27956189 </v>
    <v>       0.42047871       0.93659128       0.77956189 </v>
    <v>       0.51611257       0.57952129       0.77956189 </v>
    <v>       0.48388743       0.06340872       0.27956189 </v>
   </varray>
  </structure>
  <varray name="forces" >
   <v>       0.08492084       0.08385187       0.12496612 </v>
   <v>       0.03015743      -0.11546955       0.12496612 </v>
   <v>       0.02856152      -0.00306748      -0.11096781 </v>
   <v>       0.08492084      -0.08385187       0.12496612 </v>
   <v>      -0.01693728       0.02320126      -0.11096781 </v>
   <v>       0.02856152       0.00306748      -0.11096781 </v>
   <v>      -0.11507828       0.03161767       0.12496612 </v>
   <v>      -0.01162424      -0.02626874      -0.11096781 </v>
   <v>       0.03015743       0.11546955       0.12496612 </v>
   <v>      -0.11507828      -0.03161767       0.12496612 </v>
   <v>      -0.01162424       0.02626874      -0.11096781 </v>
   <v>      -0.01693728      -0.02320126      -0.11096781 </v>
   <v>      -0.19473893      -0.05960876       0.06161487 </v>
   <v>       0.04574676       0.19845324       0.06161487 </v>
   <v>      -0.19473893       0.05960876       0.06161487 </v>
   <v>       0.14899217      -0.13884448       0.06161487 </v>
   <v>      -0.00000000      -0.00000000       0.08779039 </v>
   <v>      -0.01609257      -0.07727002       0.03046868 </v>
   <v>      -0.00000000      -0.00000000       0.08779039 </v>
   <v>      -0.00000000      -0.00000000      -0.40603595 </v>
   <v>       0.07496409      -0.02469843       0.03046868 </v>
   <v>       0.04574676      -0.19845324       0.06161487 </v>
   <v>       0.14899217       0.13884448       0.06161487 </v>
   <v>      -0.00000000      -0.00000000      -0.40603595 </v>
   <v>      -0.05887152      -0.05257159       0.03046868 </v>
   <v>      -0.05887152       0.05257159       0.03046868 </v>
   <v>       0.07496409       0.02469843       0.03046868 </v>
   <v>      -0.01609257       0.07727002       0.03046868 </v>
  </varray>
  <varray name="stress" >
   <v>    -112.39199926       0.00000000       0.00000000 </v>
   <v>       0.00000000    -112.39199926       0.00000000 </v>
   <v>       0.00000000       0.00000000    -159.96310105 </v>
  </varray>
  <energy>
   <i name="e_fr_energy">   -200.91202781 </i>
   <i name="e_wo_entrp">   -200.90950455 </i>
   <i name="e_0_energy">     -0.01009306 </i>
  </energy>
  <time name="totalsc">   58.25   58.45</time>
 </calculation>
 <calculation>
  <scstep>
   <time name="dav">    9.10    9.11</time>
   <time name="total">    9.61    9.62</time>
   <energy>
    <i name="alphaZ">    125.29306276 </i>
    <i name="ewald">  -4034.30188249 </i>
    <i name="hartreedc">  -1356.97903965 </i>
    <i name="XCdc">    108.32308667 </i>
    <i name="pawpsdc">  14147.36199804 </i>
    <i name="pawaedc"> -13883.69316796 </i>
    <i name="eentropy">     -0.00865398 </i>
    <i name="bandstr">   -129.67294479 </i>
    <i name="atom">   4822.75196862 </i>
    <i name="e_fr_energy">   -200.92557277 </i>
    <i name="e_wo_entrp">   -200.91691879 </i>
    <i name="e_0_energy">   -200.92340928 </i>
   </energy>
  </scstep>
  <scstep>
   <time name="diag">    1.18    1.18</time>
   <time name="diis">    6.25    6.25</time>
   <time name="orth">    0.11    0.11</time>
   <time name="total">    8.03    8.03</time>
   <energy>
    <i name="e_fr_energy">   -200.93885043 </i>
    <i name="e_wo_entrp">   -200.92859947 </i>
    <i name="e_0_energy">   -200.93628769 </i>
   </energy>
  </scstep>
  <scstep>
   <time name="diag">    1.15    1.15</time>
   <time name="diis">    5.97    5.97</time>
   <time name="orth">    0.10    0.10</time>
   <time name="total">    7.71    7.71</time>
   <energy>
    <i name="e_fr_energy">   -200.93684844 </i>
    <i name="e_wo_entrp">   -200.92739573 </i>
    <i name="e_0_energy">   -200.93448526 </i>
   </energy>
  </scstep>
  <scstep>
   <time name="diag">    1.17    1.17</time>
   <time name="diis">    6.05    6.06</time>
   <time name="orth">    0.12    0.12</time>
   <time name="total">    7.83    7.83</time>
   <energy>
    <i name="e_fr_energy">   -200.93587404 </i>
    <i name="e_wo_entrp">   -200.92614269 </i>
    <i name="e_0_energy">   -200.93344120 </i>
   </energy>
  </scstep>
  <scstep>
   <time name="diag">    1.19    1.19</time>
   <time name="diis">    5.98    5.98</time>
   <time name="orth">    0.11    0.11</time>
   <time name="total">    7.78    7.79</time>
   <energy>
    <i name="e_fr_energy">   -200.93574530 </i>
    <i name="e_wo_entrp">   -200.92614879 </i>
    <i name="e_0_energy">   -200.93334618 </i>
   </energy>
  </scstep>
  <scstep>
   <time name="diag">    1.12    1.12</time>
   <time name="diis">    3.88    3.88</time>
   <time name="orth">    0.12    0.12</time>
   <time name="total">    5.18    5.18</time>
   <energy>
    <i name="alphaZ">    125.29306276 </i>
    <i name="ewald">  -4034.30188249 </i>
    <i name="hartreedc">  -1357.63691212 </i>
    <i name="XCdc">    108.37394046 </i>
    <i name="pawpsdc">  14233.64324272 </i>
    <i name="pawaedc"> -13970.00926682 </i>
    <i name="eentropy">     -0.00965181 </i>
    <i name="bandstr">   -129.04023483 </i>
    <i name="atom">   4822.75196862 </i>
    <i name="e_fr_energy">   -200.93573351 </i>
    <i name="e_wo_entrp">   -200.92608170 </i>
    <i name="e_0_energy">   -200.93332056 </i>
   </energy>
  </scstep>
  <structure>
   <crystal>
    <varray name="basis" >
     <v>       4.44237722      -7.69442305       0.00000000 </v>
     <v>       4.44237722       7.69442305       0.00000000 </v>
     <v>       0.00000000       0.00000000       5.69290626 </v>
    </varray>
    <i name="volume">    389.18448835 </i>
    <varray name="rec_basis" >
     <v>       0.11255235      -0.06498213       0.00000000 </v>
     <v>       0.11255235       0.06498213       0.00000000 </v>
     <v>       0.00000000       0.00000000       0.17565720 </v>
    </varray>
   </crystal>
   <varray name="positions" >
    <v>       0.00232611       0.64461608       0.21937289 </v>
    <v>       0.64228997       0.99767389       0.21937289 </v>
    <v>       0.91711824       0.32365592       0.99358665 </v>
    <v>       0.64461608       0.00232611       0.71937289 </v>
    <v>       0.08288176       0.40653767       0.49358665 </v>
    <v>       0.32365592       0.91711824       0.49358665 </v>
    <v>       0.35538392       0.35771003       0.21937289 </v>
    <v>       0.59346233       0.67634408       0.49358665 </v>
    <v>       0.99767389       0.64228997       0.71937289 </v>
    <v>       0.35771003       0.35538392       0.71937289 </v>
    <v>       0.67634408       0.59346233       0.99358665 </v>
    <v>       0.40653767       0.08288176       0.99358665 </v>
    <v>       0.21421168       0.30404845       0.46984682 </v>
    <v>       0.08983677       0.78578832       0.46984682 </v>
    <v>       0.30404845       0.21421168       0.96984682 </v>
    <v>       0.69595155       0.91016323       0.46984682 </v>
    <v>       0.00000000       0.00000000       0.95941862 </v>
    <v>       0.06266600       0.48355936       0.77961461 </v>
    <v>       0.00000000       0.00000000       0.45941862 </v>
    <v>       0.66666667       0.33333333       0.44944615 </v>
    <v>       0.57910664       0.51644064       0.27961461 </v>
    <v>       0.78578832       0.08983677       0.96984682 </v>
    <v>       0.91016323       0.69595155       0.96984682 </v>
    <v>       0.33333333       0.66666667       0.94944615 </v>
    <v>       0.93733400       0.42089336       0.27961461 </v>
    <v>       0.42089336       0.93733400       0.77961461 </v>
    <v>       0.51644064       0.57910664       0.77961461 </v>
    <v>       0.48355936       0.06266600       0.27961461 </v>
   </varray>
  </structure>
  <varray name="forces" >
   <v>       0.29241778       0.18798872       0.13805421 </v>
   <v>       0.01659412      -0.34723559       0.13805421 </v>
   <v>      -0.00099660      -0.00425978      -0.05086438 </v>
   <v>       0.29241778      -0.18798872       0.13805421 </v>
   <v>      -0.00319077      -0.00299297      -0.05086438 </v>
   <v>      -0.00099660       0.00425978      -0.05086438 </v>
   <v>      -0.30901190       0.15924687       0.13805421 </v>
   <v>       0.00418738      -0.00126680      -0.05086438 </v>
   <v>       0.01659412       0.34723559       0.13805421 </v>
   <v>      -0.30901190      -0.15924687       0.13805421 </v>
   <v>       0.00418738       0.00126680      -0.05086438 </v>
   <v>      -0.00319077       0.00299297      -0.05086438 </v>
   <v>      -0.07717903      -0.20403137      -0.01272082 </v>
   <v>      -0.13810683       0.16885469      -0.01272082 </v>
   <v>      -0.07717903       0.20403137      -0.01272082 </v>
   <v>       0.21528587       0.03517668      -0.01272082 </v>
   <v>      -0.00000000       0.00000000       0.09522435 </v>
   <v>       0.00168640      -0.11202564      -0.04423278 </v>
   <v>      -0.00000000       0.00000000       0.09522435 </v>
   <v>      -0.00000000       0.00000000      -0.18593306 </v>
   <v>       0.09617384      -0.05747329      -0.04423278 </v>
   <v>      -0.13810683      -0.16885469      -0.01272082 </v>
   <v>       0.21528587      -0.03517668      -0.01272082 </v>
   <v>      -0.00000000       0.00000000      -0.18593306 </v>
   <v>      -0.09786025      -0.05455235      -0.04423278 </v>
   <v>      -0.09786025       0.05455235      -0.04423278 </v>
   <v>       0.09617384       0.05747329      -0.04423278 </v>
   <v>       0.00168640       0.11202564      -0.04423278 </v>
  </varray>
  <varray name="stress" >
   <v>    -108.12332656       0.00000000       0.00000000 </v>
   <v>       0.00000000    -108.12332656      -0.00000000 </v>
   <v>       0.00000000       0.00000000    -158.61913969 </v>
  </varray>
  <energy>
   <i name="e_fr_energy">   -200.93573351 </i>
   <i name="e_wo_entrp">   -200.93332056 </i>
   <i name="e_0_energy">     -0.00965181 </i>
  </energy>
  <time name="totalsc">   59.31   59.35</time>
 </calculation>
 <calculation>
  <scstep>
   <time name="dav">    8.95    8.96</time>
   <time name="total">    9.43    9.44</time>
   <energy>
    <i name="alphaZ">    125.29306276 </i>
    <i name="ewald">  -4037.87202695 </i>
    <i name="hartreedc">  -1353.65374446 </i>
    <i name="XCdc">    108.41081469 </i>
    <i name="pawpsdc">  14236.40576400 </i>
    <i name="pawaedc"> -13972.77248334 </i>
    <i name="eentropy">     -0.00740140 </i>
    <i name="bandstr">   -129.51163117 </i>
    <i name="atom">   4822.75196862 </i>
    <i name="e_fr_energy">   -200.95567725 </i>
    <i name="e_wo_entrp">   -200.94827585 </i>
    <i name="e_0_energy">   -200.95382690 </i>
   </energy>
  </scstep>
  <scstep>
   <time name="diag">    1.20    1.20</time>
   <time name="diis">    6.00    6.01</time>
   <time name="orth">    0.11    0.11</time>
   <time name="total">    7.80    7.81</time>
   <energy>
    <i name="e_fr_energy">   -200.98390788 </i>
    <i name="e_wo_entrp">   -200.97359127 </i>
    <i name="e_0_energy">   -200.98132873 </i>
   </energy>
  </scstep>
  <scstep>
   <time name="diag">    1.17    1.17</time>
   <time name="diis">    5.96    5.97</time>
   <time name="orth">    0.11    0.11</time>
   <time name="total">    7.73    7.73</time>
   <energy>
    <i name="e_fr_energy">   -200.97845272 </i>
    <i name="e_wo_entrp">   -200.96915920 </i>
    <i name="e_0_energy">   -200.97612934 </i>
   </energy>
  </scstep>
  <scstep>
   <time name="diag">    1.15    1.15</time>
   <time name="diis">    5.53    5.53</time>
   <time name="orth">    0.10    0.10</time>
   <time name="total">    7.25    7.25</time>
   <energy>
    <i name="e_fr_energy">   -200.97615886 </i>
    <i name="e_wo_entrp">   -200.96634521 </i>
    <i name="e_0_energy">   -200.97370545 </i>
   </energy>
  </scstep>
  <scstep>
   <time name="diag">    1.06    1.07</time>
   <time name="diis">    5.44    5.50</time>
   <time name="orth">    0.10    0.11</time>
   <time name="total">    7.07    7.16</time>
   <energy>
    <i name="e_fr_energy">   -200.97569191 </i>
    <i name="e_wo_entrp">   -200.96611990 </i>
    <i name="e_0_energy">   -200.97329891 </i>
   </energy>
  </scstep>
  <scstep>
   <time name="diag">    1.21    1.21</time>
   <time name="diis">    3.97    3.97</time>
   <time name="orth">    0.11    0.11</time>
   <time name="total">    5.35    5.36</time>
   <energy>
    <i name="alphaZ">    125.29306276 </i>
    <i name="ewald">  -4037.87202695 </i>
    <i name="hartreedc">  -1353.59997390 </i>
    <i name="XCdc">    108.43544125 </i>
    <i name="pawpsdc">  14287.68895282 </i>
    <i name="pawaedc"> -14024.08100222 </i>
    <i name="eentropy">     -0.00970675 </i>
    <i name="bandstr">   -129.58239203 </i>
    <i name="atom">   4822.75196862 </i>
    <i name="e_fr_energy">   -200.97567641 </i>
    <i name="e_wo_entrp">   -200.96596966 </i>
    <i name="e_0_energy">   -200.97324973 </i>
   </energy>
  </scstep>
  <structure>
   <crystal>
    <varray name="basis" >
     <v>       4.44237722      -7.69442305       0.00000000 </v>
     <v>       4.44237722       7.69442305       0.00000000 </v>
     <v>       0.00000000       0.00000000       5.69290626 </v>
    </varray>
    <i name="volume">    389.18448835 </i>
    <varray name="rec_basis" >
     <v>       0.11255235      -0.06498213       0.00000000 </v>
     <v>       0.11255235       0.06498213       0.00000000 </v>
     <v>       0.00000000       0.00000000       0.17565720 </v>
    </varray>
   </crystal>
   <varray name="positions" >
    <v>       0.00250867       0.64655636       0.22184644 </v>
    <v>       0.64404768       0.99749133       0.22184644 </v>
    <v>       0.91760297       0.32400670       0.99268759 </v>
    <v>       0.64655636       0.00250867       0.72184644 </v>
    <v>       0.08239703       0.40640374       0.49268759 </v>
    <v>       0.32400670       0.91760297       0.49268759 </v>
    <v>       0.35344364       0.35595232       0.22184644 </v>
    <v>       0.59359626       0.67599330       0.49268759 </v>
    <v>       0.99749133       0.64404768       0.72184644 </v>
    <v>       0.35595232       0.35344364       0.72184644 </v>
    <v>       0.67599330       0.59359626       0.99268759 </v>
    <v>       0.40640374       0.08239703       0.99268759 </v>
    <v>       0.21374796       0.30260158       0.47060269 </v>
    <v>       0.08885362       0.78625204       0.47060269 </v>
    <v>       0.30260158       0.21374796       0.97060269 </v>
    <v>       0.69739842       0.91114638       0.47060269 </v>
    <v>      -0.00000000       0.00000000       0.96095191 </v>
    <v>       0.06257344       0.48290501       0.77919370 </v>
    <v>      -0.00000000       0.00000000       0.46095191 </v>
    <v>       0.66666667       0.33333333       0.44218452 </v>
    <v>       0.57966844       0.51709499       0.27919370 </v>
    <v>       0.78625204       0.08885362       0.97060269 </v>
    <v>       0.91114638       0.69739842       0.97060269 </v>
    <v>       0.33333333       0.66666667       0.94218452 </v>
    <v>       0.93742656       0.42033156       0.27919370 </v>
    <v>       0.42033156       0.93742656       0.77919370 </v>
    <v>       0.51709499       0.57966844       0.77919370 </v>
    <v>       0.48290501       0.06257344       0.27919370 </v>
   </varray>
  </structure>
  <varray name="forces" >
   <v>      -0.00825486      -0.00524323      -0.04115062 </v>
   <v>      -0.00041333       0.00977053      -0.04115062 </v>
   <v>      -0.06121416      -0.05535731       0.02588454 </v>
   <v>      -0.00825486       0.00524323      -0.04115062 </v>
   <v>      -0.01733376      -0.08069168       0.02588454 </v>
   <v>      -0.06121416       0.05535731       0.02588454 </v>
   <v>       0.00866820      -0.00452731      -0.04115062 </v>
   <v>       0.07854792       0.02533436       0.02588454 </v>
   <v>      -0.00041333      -0.00977053      -0.04115062 </v>
   <v>       0.00866820       0.00452731      -0.04115062 </v>
   <v>       0.07854792      -0.02533436       0.02588454 </v>
   <v>      -0.01733376       0.08069168       0.02588454 </v>
   <v>      -0.08823533      -0.06400953       0.11654933 </v>
   <v>      -0.01131622       0.10841880       0.11654933 </v>
   <v>      -0.08823533       0.06400953       0.11654933 </v>
   <v>       0.09955154      -0.04440927       0.11654933 </v>
   <v>       0.00000000      -0.00000000       0.09696802 </v>
   <v>      -0.02091195       0.15137003      -0.14535567 </v>
   <v>       0.00000000      -0.00000000       0.09696802 </v>
   <v>       0.00000000       0.00000000       0.03524925 </v>
   <v>      -0.12063432       0.09379529      -0.14535567 </v>
   <v>      -0.01131622      -0.10841880       0.11654933 </v>
   <v>       0.09955154       0.04440927       0.11654933 </v>
   <v>       0.00000000      -0.00000000       0.03524925 </v>
   <v>       0.14154627       0.05757473      -0.14535567 </v>
   <v>       0.14154627      -0.05757473      -0.14535567 </v>
   <v>      -0.12063432      -0.09379529      -0.14535567 </v>
   <v>      -0.02091195      -0.15137003      -0.14535567 </v>
  </varray>
  <varray name="stress" >
   <v>    -108.43513193       0.00000000       0.00000000 </v>
   <v>       0.00000000    -108.43513193      -0.00000000 </v>
   <v>       0.00000000       0.00000000    -152.66212346 </v>
  </varray>
  <energy>
   <i name="e_fr_energy">   -200.97567641 </i>
   <i name="e_wo_entrp">   -200.97324973 </i>
   <i name="e_0_energy">     -0.00970675 </i>
  </energy>
  <time name="totalsc">   58.13   58.27</time>
 </calculation>
 <calculation>
  <scstep>
   <time name="dav">    9.94   10.05</time>
   <time name="total">   10.43   10.58</time>
   <energy>
    <i name="alphaZ">    125.29306276 </i>
    <i name="ewald">  -4037.93850545 </i>
    <i name="hartreedc">  -1353.53955245 </i>
    <i name="XCdc">    108.43740767 </i>
    <i name="pawpsdc">  14286.61813651 </i>
    <i name="pawaedc"> -14023.01070326 </i>
    <i name="eentropy">     -0.00961037 </i>
    <i name="bandstr">   -129.57789287 </i>
    <i name="atom">   4822.75196862 </i>
    <i name="e_fr_energy">   -200.97568884 </i>
    <i name="e_wo_entrp">   -200.96607847 </i>
    <i name="e_0_energy">   -200.97328625 </i>
   </energy>
  </scstep>
  <scstep>
   <time name="diag">    1.17    1.18</time>
   <time name="diis">    3.75    3.80</time>
   <time name="orth">    0.11    0.12</time>
   <time name="total">    5.10    5.16</time>
   <energy>
    <i name="alphaZ">    125.29306276 </i>
    <i name="ewald">  -4037.93850545 </i>
    <i name="hartreedc">  -1353.52850066 </i>
    <i name="XCdc">    108.43718128 </i>
    <i name="pawpsdc">  14287.57100340 </i>
    <i name="pawaedc"> -14023.96369730 </i>
    <i name="eentropy">     -0.00968626 </i>
    <i name="bandstr">   -129.58852654 </i>
    <i name="atom">   4822.75196862 </i>
    <i name="e_fr_energy">   -200.97570017 </i>
    <i name="e_wo_entrp">   -200.96601391 </i>
    <i name="e_0_energy">   -200.97327860 </i>
   </energy>
  </scstep>
  <structure>
   <crystal>
    <varray name="basis" >
     <v>       4.44237722      -7.69442305       0.00000000 </v>
     <v>       4.44237722       7.69442305       0.00000000 </v>
     <v>       0.00000000       0.00000000       5.69290626 </v>
    </varray>
    <i name="volume">    389.18448835 </i>
    <varray name="rec_basis" >
     <v>       0.11255235      -0.06498213       0.00000000 </v>
     <v>       0.11255235       0.06498213       0.00000000 </v>
     <v>       0.00000000       0.00000000       0.17565720 </v>
    </varray>
   </crystal>
   <varray name="positions" >
    <v>       0.00251243       0.64659628       0.22189733 </v>
    <v>       0.64408385       0.99748757       0.22189733 </v>
    <v>       0.91761294       0.32401392       0.99266909 </v>
    <v>       0.64659628       0.00251243       0.72189733 </v>
    <v>       0.08238706       0.40640098       0.49266909 </v>
    <v>       0.32401392       0.91761294       0.49266909 </v>
    <v>       0.35340372       0.35591615       0.22189733 </v>
    <v>       0.59359902       0.67598608       0.49266909 </v>
    <v>       0.99748757       0.64408385       0.72189733 </v>
    <v>       0.35591615       0.35340372       0.72189733 </v>
    <v>       0.67598608       0.59359902       0.99266909 </v>
    <v>       0.40640098       0.08238706       0.99266909 </v>
    <v>       0.21373842       0.30257181       0.47061824 </v>
    <v>       0.08883339       0.78626158       0.47061824 </v>
    <v>       0.30257181       0.21373842       0.97061824 </v>
    <v>       0.69742819       0.91116661       0.47061824 </v>
    <v>      -0.00000000       0.00000000       0.96098346 </v>
    <v>       0.06257154       0.48289154       0.77918504 </v>
    <v>      -0.00000000       0.00000000       0.46098346 </v>
    <v>       0.66666667       0.33333333       0.44203512 </v>
    <v>       0.57968000       0.51710846       0.27918504 </v>
    <v>       0.78626158       0.08883339       0.97061824 </v>
    <v>       0.91116661       0.69742819       0.97061824 </v>
    <v>       0.33333333       0.66666667       0.94203512 </v>
    <v>       0.93742846       0.42032000       0.27918504 </v>
    <v>       0.42032000       0.93742846       0.77918504 </v>
    <v>       0.51710846       0.57968000       0.77918504 </v>
    <v>       0.48289154       0.06257154       0.27918504 </v>
   </varray>
  </structure>
  <varray name="forces" >
   <v>      -0.01458271      -0.00757369      -0.04580632 </v>
   <v>       0.00073234       0.01641584      -0.04580632 </v>
   <v>      -0.06385395      -0.05690091       0.02786341 </v>
   <v>      -0.01458271       0.00757369      -0.04580632 </v>
   <v>      -0.01735066      -0.08374960       0.02786341 </v>
   <v>      -0.06385395       0.05690091       0.02786341 </v>
   <v>       0.01385036      -0.00884215      -0.04580632 </v>
   <v>       0.08120461       0.02684869       0.02786341 </v>
   <v>       0.00073234      -0.01641584      -0.04580632 </v>
   <v>       0.01385036       0.00884215      -0.04580632 </v>
   <v>       0.08120461      -0.02684869       0.02786341 </v>
   <v>      -0.01735066       0.08374960       0.02786341 </v>
   <v>      -0.08876129      -0.06071252       0.11945338 </v>
   <v>      -0.00819793       0.10722579       0.11945338 </v>
   <v>      -0.08876129       0.06071252       0.11945338 </v>
   <v>       0.09695923      -0.04651328       0.11945338 </v>
   <v>      -0.00000000      -0.00000000       0.09656356 </v>
   <v>      -0.02196468       0.15681242      -0.14721999 </v>
   <v>      -0.00000000      -0.00000000       0.09656356 </v>
   <v>      -0.00000000      -0.00000000       0.04056498 </v>
   <v>      -0.12482120       0.09742818      -0.14721999 </v>
   <v>      -0.00819793      -0.10722579       0.11945338 </v>
   <v>       0.09695923       0.04651328       0.11945338 </v>
   <v>      -0.00000000      -0.00000000       0.04056498 </v>
   <v>       0.14678587       0.05938424      -0.14721999 </v>
   <v>       0.14678587      -0.05938424      -0.14721999 </v>
   <v>      -0.12482120      -0.09742818      -0.14721999 </v>
   <v>      -0.02196468      -0.15681242      -0.14721999 </v>
  </varray>
  <varray name="stress" >
   <v>    -108.45460896       0.00000000       0.00000000 </v>
   <v>      -0.00000000    -108.45460896       0.00000000 </v>
   <v>       0.00000000       0.00000000    -152.57854617 </v>
  </varray>
  <energy>
   <i name="e_fr_energy">   -200.97570017 </i>
   <i name="e_wo_entrp">   -200.97327860 </i>
   <i name="e_0_energy">     -0.00968626 </i>
  </energy>
  <time name="totalsc">   28.54   28.89</time>
 </calculation>
 <calculation>
  <scstep>
   <time name="dav">    9.17    9.17</time>
   <time name="total">    9.75    9.85</time>
   <energy>
    <i name="alphaZ">    125.29306276 </i>
    <i name="ewald">  -4038.99446857 </i>
    <i name="hartreedc">  -1351.97224344 </i>
    <i name="XCdc">    108.48012720 </i>
    <i name="pawpsdc">  14287.66794780 </i>
[...]
       <r>   -3.0514    1.0000 </r>
       <r>   -2.1433    1.0000 </r>
       <r>   -2.1257    1.0000 </r>
       <r>   -1.9489    1.0000 </r>
       <r>   -1.9489    1.0000 </r>
       <r>   -0.9734    1.0000 </r>
       <r>   -0.9734    1.0000 </r>
       <r>   -0.8392    1.0000 </r>
       <r>   -0.7374    1.0000 </r>
       <r>   -0.7254    1.0000 </r>
       <r>   -0.7254    1.0000 </r>
       <r>   -0.2896    1.0000 </r>
       <r>   -0.2896    1.0000 </r>
       <r>    0.1034    1.0000 </r>
       <r>    0.1034    1.0000 </r>
       <r>    0.2289    1.0000 </r>
       <r>    0.4917    1.0000 </r>
       <r>    0.6061    1.0000 </r>
       <r>    0.6061    1.0000 </r>
       <r>    0.7258    1.0000 </r>
       <r>    1.2334    1.0000 </r>
       <r>    1.2334    1.0000 </r>
       <r>    1.4795    1.0000 </r>
       <r>    1.9208    1.0000 </r>
       <r>    1.9208    1.0000 </r>
       <r>    2.1706    1.0000 </r>
       <r>    2.3901    1.0000 </r>
       <r>    2.4803    1.0000 </r>
       <r>    2.4803    1.0000 </r>
       <r>    3.2294    1.0000 </r>
       <r>    3.2294    1.0000 </r>
       <r>    3.3503    1.0000 </r>
       <r>    3.5129    1.0000 </r>
       <r>    3.5129    1.0000 </r>
       <r>    3.5910    1.0000 </r>
       <r>    3.8549    1.0000 </r>
       <r>    3.8549    1.0000 </r>
       <r>    4.2247    1.0000 </r>
       <r>    4.2247    1.0000 </r>
       <r>    4.6395    1.0000 </r>
       <r>    4.6395    1.0000 </r>
       <r>    4.7691    1.0000 </r>
       <r>    4.8681    1.0000 </r>
       <r>    6.4402    0.6991 </r>
       <r>    6.4580    0.5170 </r>
       <r>    6.5769   -0.0402 </r>
       <r>    6.5769   -0.0402 </r>
       <r>    8.8364    0.0000 </r>
       <r>    8.8364    0.0000 </r>
       <r>    9.1399    0.0000 </r>
       <r>    9.1399    0.0000 </r>
       <r>    9.3918    0.0000 </r>
       <r>    9.4796    0.0000 </r>
       <r>    9.9018    0.0000 </r>
       <r>    9.9018    0.0000 </r>
       <r>   10.2973    0.0000 </r>
       <r>   10.2974    0.0000 </r>
       <r>   10.4132    0.0000 </r>
       <r>   10.4132    0.0000 </r>
       <r>   10.6841    0.0000 </r>
       <r>   10.7046    0.0000 </r>
       <r>   10.7046    0.0000 </r>
       <r>   10.9265    0.0000 </r>
      </set>
     </set>
    </set>
   </array>
  </eigenvalues>
  <separator name="orbital magnetization" >
   <v name="MAGDIPOLOUT">      0.00000000      0.00000000      0.00000000</v>
  </separator>
  <dos>
   <i name="efermi">      6.45959636 </i>
   <total>
    <array>
     <dimension dim="1">gridpoints</dimension>
     <dimension dim="2">spin</dimension>
     <field>energy</field>
     <field>total</field>
     <field>integrated</field>
     <set>
      <set comment="spin 1">
       <r>   -12.7068     0.0000     0.0000 </r>
       <r>   -12.6234     0.0000     0.0000 </r>
       <r>   -12.5400     0.0000     0.0000 </r>
       <r>   -12.4566     0.0000     0.0000 </r>
       <r>   -12.3731     0.0000     0.0000 </r>
       <r>   -12.2897     0.0000     0.0000 </r>
       <r>   -12.2063     0.0000     0.0000 </r>
       <r>   -12.1229     0.0000     0.0000 </r>
       <r>   -12.0394     0.0000     0.0000 </r>
       <r>   -11.9560     0.0000     0.0000 </r>
       <r>   -11.8726     0.0001     0.0000 </r>
       <r>   -11.7892     0.0023     0.0002 </r>
       <r>   -11.7057     0.0061     0.0007 </r>
       <r>   -11.6223    -0.0672    -0.0049 </r>
       <r>   -11.5389     0.4926     0.0362 </r>
       <r>   -11.4555     2.4289     0.2388 </r>
       <r>   -11.3720     4.2552     0.5938 </r>
       <r>   -11.2886     4.7134     0.9870 </r>
       <r>   -11.2052     5.2242     1.4229 </r>
       <r>   -11.1218     6.1670     1.9374 </r>
       <r>   -11.0383    11.0300     2.8575 </r>
       <r>   -10.9549     9.6800     3.6651 </r>
       <r>   -10.8715     9.3162     4.4423 </r>
       <r>   -10.7881     8.0021     5.1099 </r>
       <r>   -10.7046     4.5283     5.4877 </r>
       <r>   -10.6212     2.9811     5.7364 </r>
       <r>   -10.5378     0.9371     5.8145 </r>
       <r>   -10.4544     8.9772     6.5635 </r>
       <r>   -10.3709     7.3514     7.1768 </r>
       <r>   -10.2875     1.9231     7.3372 </r>
       <r>   -10.2041    11.8992     8.3299 </r>
       <r>   -10.1207    16.2752     9.6877 </r>
       <r>   -10.0372     7.8773    10.3448 </r>
       <r>    -9.9538     6.8182    10.9136 </r>
       <r>    -9.8704     4.2261    11.2662 </r>
       <r>    -9.7869     6.7716    11.8311 </r>
       <r>    -9.7035    13.0140    12.9168 </r>
       <r>    -9.6201    18.9934    14.5014 </r>
       <r>    -9.5367    17.7341    15.9808 </r>
       <r>    -9.4532    16.5661    17.3629 </r>
       <r>    -9.3698    12.0499    18.3681 </r>
       <r>    -9.2864    11.2327    19.3052 </r>
       <r>    -9.2030    15.9582    20.6366 </r>
       <r>    -9.1195    26.3210    22.8324 </r>
       <r>    -9.0361    14.1755    24.0150 </r>
       <r>    -8.9527    -0.0224    24.0131 </r>
       <r>    -8.8693    -0.2251    23.9944 </r>
       <r>    -8.7858     0.0635    23.9997 </r>
       <r>    -8.7024     0.0041    24.0000 </r>
       <r>    -8.6190     0.0000    24.0000 </r>
       <r>    -8.5356     0.0000    24.0000 </r>
       <r>    -8.4521     0.0000    24.0000 </r>
       <r>    -8.3687     0.0000    24.0000 </r>
       <r>    -8.2853     0.0000    24.0000 </r>
       <r>    -8.2019     0.0000    24.0000 </r>
       <r>    -8.1184     0.0000    24.0000 </r>
       <r>    -8.0350     0.0000    24.0000 </r>
       <r>    -7.9516     0.0000    24.0000 </r>
       <r>    -7.8682     0.0000    24.0000 </r>
       <r>    -7.7847     0.0000    24.0000 </r>
       <r>    -7.7013     0.0000    24.0000 </r>
       <r>    -7.6179     0.0000    24.0000 </r>
       <r>    -7.5345     0.0000    24.0000 </r>
       <r>    -7.4510     0.0000    24.0000 </r>
       <r>    -7.3676     0.0000    24.0000 </r>
       <r>    -7.2842     0.0000    24.0000 </r>
       <r>    -7.2008     0.0000    24.0000 </r>
       <r>    -7.1173     0.0000    24.0000 </r>
       <r>    -7.0339     0.0000    24.0000 </r>
       <r>    -6.9505     0.0000    24.0000 </r>
       <r>    -6.8671     0.0000    24.0000 </r>
       <r>    -6.7836     0.0000    24.0000 </r>
       <r>    -6.7002     0.0000    24.0000 </r>
       <r>    -6.6168     0.0000    24.0000 </r>
       <r>    -6.5334     0.0000    24.0000 </r>
       <r>    -6.4499     0.0000    24.0000 </r>
       <r>    -6.3665     0.0000    24.0000 </r>
       <r>    -6.2831     0.0000    24.0000 </r>
       <r>    -6.1997     0.0000    24.0000 </r>
       <r>    -6.1162     0.0000    24.0000 </r>
       <r>    -6.0328     0.0000    24.0000 </r>
       <r>    -5.9494     0.0000    24.0000 </r>
       <r>    -5.8659     0.0000    24.0000 </r>
       <r>    -5.7825     0.0000    24.0000 </r>
       <r>    -5.6991     0.0000    24.0000 </r>
       <r>    -5.6157     0.0000    24.0000 </r>
       <r>    -5.5322     0.0000    24.0000 </r>
       <r>    -5.4488     0.0000    24.0000 </r>
       <r>    -5.3654     0.0000    24.0000 </r>
       <r>    -5.2820     0.0000    24.0000 </r>
       <r>    -5.1985     0.0000    24.0000 </r>
       <r>    -5.1151     0.0000    24.0000 </r>
       <r>    -5.0317     0.0000    24.0000 </r>
       <r>    -4.9483     0.0000    24.0000 </r>
       <r>    -4.8648     0.0003    24.0000 </r>
       <r>    -4.7814     0.0025    24.0002 </r>
       <r>    -4.6980    -0.0105    23.9994 </r>
       <r>    -4.6146     0.0214    24.0011 </r>
       <r>    -4.5311     0.6978    24.0594 </r>
       <r>    -4.4477     1.0406    24.1462 </r>
       <r>    -4.3643     1.7429    24.2916 </r>
       <r>    -4.2809     2.1035    24.4671 </r>
       <r>    -4.1974     1.7973    24.6170 </r>
       <r>    -4.1140     3.5002    24.9090 </r>
       <r>    -4.0306     2.8582    25.1474 </r>
       <r>    -3.9472     3.9929    25.4806 </r>
       <r>    -3.8637     4.9624    25.8945 </r>
       <r>    -3.7803     8.1807    26.5770 </r>
       <r>    -3.6969     9.2685    27.3503 </r>
       <r>    -3.6135     9.4985    28.1427 </r>
       <r>    -3.5300     9.9921    28.9763 </r>
       <r>    -3.4466     8.7387    29.7053 </r>
       <r>    -3.3632     7.5099    30.3318 </r>
       <r>    -3.2798     7.4972    30.9573 </r>
       <r>    -3.1963     7.1921    31.5573 </r>
       <r>    -3.1129     5.4424    32.0113 </r>
       <r>    -3.0295     8.7222    32.7390 </r>
       <r>    -2.9461    11.0584    33.6615 </r>
       <r>    -2.8626    11.3394    34.6075 </r>
       <r>    -2.7792    11.0560    35.5299 </r>
       <r>    -2.6958    12.8733    36.6038 </r>
       <r>    -2.6124    10.9006    37.5132 </r>
       <r>    -2.5289     9.5494    38.3099 </r>
       <r>    -2.4455    11.0002    39.2276 </r>
       <r>    -2.3621     9.5619    40.0253 </r>
       <r>    -2.2786     5.9258    40.5196 </r>
       <r>    -2.1952     3.7172    40.8298 </r>
       <r>    -2.1118     1.2120    40.9309 </r>
       <r>    -2.0284     3.4522    41.2189 </r>
       <r>    -1.9449     3.8694    41.5417 </r>
       <r>    -1.8615     2.0908    41.7161 </r>
       <r>    -1.7781     5.0732    42.1393 </r>
       <r>    -1.6947     9.5512    42.9362 </r>
       <r>    -1.6112     8.5819    43.6521 </r>
       <r>    -1.5278     3.2531    43.9235 </r>
       <r>    -1.4444     5.5139    44.3835 </r>
       <r>    -1.3610     9.1643    45.1480 </r>
       <r>    -1.2775    12.9723    46.2303 </r>
       <r>    -1.1941    13.8736    47.3877 </r>
       <r>    -1.1107     7.3156    47.9980 </r>
       <r>    -1.0273     6.9177    48.5751 </r>
       <r>    -0.9438     7.7568    49.2222 </r>
       <r>    -0.8604     6.5308    49.7670 </r>
       <r>    -0.7770     7.7577    50.4142 </r>
       <r>    -0.6936    10.9542    51.3281 </r>
       <r>    -0.6101    10.2276    52.1813 </r>
       <r>    -0.5267     8.9365    52.9269 </r>
       <r>    -0.4433     8.0824    53.6011 </r>
       <r>    -0.3599     8.7843    54.3340 </r>
       <r>    -0.2764     9.0715    55.0908 </r>
       <r>    -0.1930    11.5484    56.0542 </r>
       <r>    -0.1096    11.5738    57.0198 </r>
       <r>    -0.0262    11.3278    57.9648 </r>
       <r>     0.0573    13.9554    59.1290 </r>
       <r>     0.1407    17.9442    60.6260 </r>
       <r>     0.2241    13.7974    61.7771 </r>
       <r>     0.3075    10.4320    62.6474 </r>
       <r>     0.3910    14.7811    63.8805 </r>
       <r>     0.4744    14.2982    65.0733 </r>
       <r>     0.5578    12.3802    66.1062 </r>
       <r>     0.6412    11.3851    67.0560 </r>
       <r>     0.7247    15.5468    68.3530 </r>
       <r>     0.8081    20.5671    70.0688 </r>
       <r>     0.8915    15.3937    71.3530 </r>
       <r>     0.9749    13.0354    72.4405 </r>
       <r>     1.0584    12.3883    73.4740 </r>
       <r>     1.1418    12.5736    74.5230 </r>
       <r>     1.2252     9.6837    75.3308 </r>
       <r>     1.3086    11.6841    76.3056 </r>
       <r>     1.3921    10.9802    77.2216 </r>
       <r>     1.4755    11.1596    78.1526 </r>
       <r>     1.5589    13.1807    79.2522 </r>
       <r>     1.6424    11.2711    80.1925 </r>
       <r>     1.7258     8.9070    80.9356 </r>
       <r>     1.8092    10.0072    81.7704 </r>
       <r>     1.8926     9.3010    82.5464 </r>
       <r>     1.9761    11.2272    83.4830 </r>
       <r>     2.0595    11.1732    84.4152 </r>
       <r>     2.1429    10.5035    85.2914 </r>
       <r>     2.2263     6.2241    85.8107 </r>
       <r>     2.3098     8.1291    86.4888 </r>
       <r>     2.3932    11.1314    87.4175 </r>
       <r>     2.4766    10.0583    88.2566 </r>
       <r>     2.5600     9.7636    89.0711 </r>
       <r>     2.6435    14.2982    90.2640 </r>
       <r>     2.7269    12.5351    91.3097 </r>
       <r>     2.8103     8.4541    92.0150 </r>
       <r>     2.8937     8.7730    92.7469 </r>
       <r>     2.9772    12.8268    93.8170 </r>
       <r>     3.0606    14.3059    95.0105 </r>
       <r>     3.1440    10.0837    95.8517 </r>
       <r>     3.2274    15.4022    97.1366 </r>
       <r>     3.3109    11.8780    98.1276 </r>
       <r>     3.3943     9.1807    98.8935 </r>
       <r>     3.4777     9.2374    99.6641 </r>
       <r>     3.5611    14.6483   100.8861 </r>
       <r>     3.6446    21.9185   102.7147 </r>
       <r>     3.7280    12.3001   103.7408 </r>
       <r>     3.8114     8.8763   104.4814 </r>
       <r>     3.8948    11.5126   105.4418 </r>
       <r>     3.9783     8.7828   106.1745 </r>
       <r>     4.0617     7.7489   106.8210 </r>
       <r>     4.1451    15.3634   108.1027 </r>
       <r>     4.2285    20.1756   109.7858 </r>
       <r>     4.3120    13.5207   110.9138 </r>
       <r>     4.3954    13.5091   112.0408 </r>
       <r>     4.4788    10.5003   112.9168 </r>
       <r>     4.5622     6.3650   113.4478 </r>
       <r>     4.6457     9.9745   114.2799 </r>
       <r>     4.7291     9.6090   115.0816 </r>
       <r>     4.8125    10.9197   115.9925 </r>
       <r>     4.8959    14.3181   117.1870 </r>
       <r>     4.9794    13.2344   118.2911 </r>
       <r>     5.0628     9.9116   119.1180 </r>
       <r>     5.1462     6.9199   119.6953 </r>
       <r>     5.2296     2.5511   119.9081 </r>
       <r>     5.3131     4.2441   120.2622 </r>
       <r>     5.3965     8.6056   120.9801 </r>
       <r>     5.4799     8.2160   121.6655 </r>
       <r>     5.5634     1.2702   121.7715 </r>
       <r>     5.6468    -0.3004   121.7465 </r>
       <r>     5.7302     0.0373   121.7496 </r>
       <r>     5.8136     0.0052   121.7500 </r>
       <r>     5.8971     0.0001   121.7500 </r>
       <r>     5.9805     0.0011   121.7501 </r>
       <r>     6.0639     0.0157   121.7514 </r>
       <r>     6.1473    -0.0370   121.7483 </r>
       <r>     6.2308     0.0080   121.7490 </r>
       <r>     6.3142     3.1587   122.0125 </r>
       <r>     6.3976     9.5491   122.8091 </r>
       <r>     6.4810    19.8281   124.4633 </r>
       <r>     6.5645    15.7120   125.7741 </r>
       <r>     6.6479     5.3693   126.2220 </r>
       <r>     6.7313     0.4072   126.2560 </r>
       <r>     6.8147    -0.0978   126.2478 </r>
       <r>     6.8982     0.0227   126.2497 </r>
       <r>     6.9816     0.0031   126.2500 </r>
       <r>     7.0650     0.0001   126.2500 </r>
       <r>     7.1484     0.0000   126.2500 </r>
       <r>     7.2319     0.0000   126.2500 </r>
       <r>     7.3153     0.0001   126.2500 </r>
       <r>     7.3987     0.0051   126.2504 </r>
       <r>     7.4821     0.0189   126.2520 </r>
       <r>     7.5656    -0.2802   126.2286 </r>
       <r>     7.6490     1.6664   126.3676 </r>
       <r>     7.7324     4.3436   126.7300 </r>
       <r>     7.8158     0.3608   126.7601 </r>
       <r>     7.8993    -0.1448   126.7480 </r>
       <r>     7.9827     0.0226   126.7499 </r>
       <r>     8.0661     0.0028   126.7501 </r>
       <r>     8.1495    -0.0087   126.7494 </r>
       <r>     8.2330     0.0756   126.7557 </r>
       <r>     8.3164     0.4812   126.7959 </r>
       <r>     8.3998     1.5339   126.9238 </r>
       <r>     8.4832     2.0574   127.0955 </r>
       <r>     8.5667     4.1151   127.4388 </r>
       <r>     8.6501     7.9294   128.1003 </r>
       <r>     8.7335    10.7622   128.9981 </r>
       <r>     8.8169    17.8812   130.4899 </r>
       <r>     8.9004    14.5177   131.7010 </r>
       <r>     8.9838     8.8820   132.4420 </r>
       <r>     9.0672    11.7520   133.4224 </r>
       <r>     9.1507    14.3484   134.6195 </r>
       <r>     9.2341    14.0296   135.7899 </r>
       <r>     9.3175     9.5950   136.5904 </r>
       <r>     9.4009    10.7134   137.4841 </r>
       <r>     9.4844     7.5575   138.1146 </r>
       <r>     9.5678    11.5362   139.0770 </r>
       <r>     9.6512    14.6057   140.2955 </r>
       <r>     9.7346    12.2190   141.3149 </r>
       <r>     9.8181    13.7192   142.4594 </r>
       <r>     9.9015    14.0729   143.6335 </r>
       <r>     9.9849    13.3315   144.7457 </r>
       <r>    10.0683    16.6429   146.1341 </r>
       <r>    10.1518    13.8073   147.2860 </r>
       <r>    10.2352    12.8590   148.3588 </r>
       <r>    10.3186    17.1121   149.7863 </r>
       <r>    10.4020    15.8648   151.1099 </r>
       <r>    10.4855    16.6319   152.4974 </r>
       <r>    10.5689    14.3929   153.6981 </r>
       <r>    10.6523    12.4082   154.7333 </r>
       <r>    10.7357    14.3826   155.9332 </r>
       <r>    10.8192    14.9097   157.1770 </r>
       <r>    10.9026    16.2900   158.5360 </r>
       <r>    10.9860    11.4379   159.4902 </r>
       <r>    11.0694     5.2259   159.9262 </r>
       <r>    11.1529     0.7191   159.9862 </r>
       <r>    11.2363     0.1506   159.9988 </r>
       <r>    11.3197     0.0143   160.0000 </r>
       <r>    11.4031    -0.0007   159.9999 </r>
       <r>    11.4866     0.0011   160.0000 </r>
       <r>    11.5700     0.0001   160.0000 </r>
       <r>    11.6534     0.0000   160.0000 </r>
       <r>    11.7368     0.0000   160.0000 </r>
       <r>    11.8203     0.0000   160.0000 </r>
       <r>    11.9037     0.0000   160.0000 </r>
       <r>    11.9871     0.0000   160.0000 </r>
       <r>    12.0705     0.0000   160.0000 </r>
       <r>    12.1540     0.0000   160.0000 </r>
       <r>    12.2374     0.0000   160.0000 </r>
       <r>    12.3208     0.0000   160.0000 </r>
      </set>
     </set>
    </array>
   </total>
  </dos>
 </calculation>
 <structure name="finalpos" >
  <crystal>
   <varray name="basis" >
    <v>       4.44237722      -7.69442305       0.00000000 </v>
    <v>       4.44237722       7.69442305       0.00000000 </v>
    <v>       0.00000000       0.00000000       5.69290626 </v>
   </varray>
   <i name="volume">    389.18448835 </i>
   <varray name="rec_basis" >
    <v>       0.11255235      -0.06498213       0.00000000 </v>
    <v>       0.11255235       0.06498213       0.00000000 </v>
    <v>       0.00000000       0.00000000       0.17565720 </v>
   </varray>
  </crystal>
  <varray name="positions" >
   <v>       0.00406946       0.64851283       0.22229463 </v>
   <v>       0.64444337       0.99593054       0.22229463 </v>
   <v>       0.91840163       0.32398118       0.99195254 </v>
   <v>       0.64851283       0.00406946       0.72229463 </v>
   <v>       0.08159837       0.40557955       0.49195254 </v>
   <v>       0.32398118       0.91840163       0.49195254 </v>
   <v>       0.35148717       0.35555663       0.22229463 </v>
   <v>       0.59442045       0.67601882       0.49195254 </v>
   <v>       0.99593054       0.64444337       0.72229463 </v>
   <v>       0.35555663       0.35148717       0.72229463 </v>
   <v>       0.67601882       0.59442045       0.99195254 </v>
   <v>       0.40557955       0.08159837       0.99195254 </v>
   <v>       0.21238938       0.30059099       0.47310285 </v>
   <v>       0.08820161       0.78761062       0.47310285 </v>
   <v>       0.30059099       0.21238938       0.97310285 </v>
   <v>       0.69940901       0.91179839       0.47310285 </v>
   <v>      -0.00000000       0.00000000       0.96916341 </v>
   <v>       0.06050272       0.48323336       0.77629149 </v>
   <v>      -0.00000000       0.00000000       0.46916341 </v>
   <v>       0.66666667       0.33333333       0.43603975 </v>
   <v>       0.57726936       0.51676664       0.27629149 </v>
   <v>       0.78761062       0.08820161       0.97310285 </v>
   <v>       0.91179839       0.69940901       0.97310285 </v>
   <v>       0.33333333       0.66666667       0.93603975 </v>
   <v>       0.93949728       0.42273064       0.27629149 </v>
   <v>       0.42273064       0.93949728       0.77629149 </v>
   <v>       0.51676664       0.57726936       0.77629149 </v>
   <v>       0.48323336       0.06050272       0.27629149 </v>
  </varray>
 </structure>
</modeling>
