unknown system                          
           1
     4.442377   -7.694423    0.000000
     4.442377    7.694423    0.000000
     0.000000    0.000000    5.692906
   Si   N 
  12  16
Direct configuration=     1
   0.00847736  0.64712623  0.21326215
   0.63864887  0.99152264  0.21326215
   0.91417805  0.32157747  0.99187268
   0.64712623  0.00847736  0.71326215
   0.08582195  0.40739942  0.49187268
   0.32157747  0.91417805  0.49187268
   0.35287377  0.36135113  0.21326215
   0.59260058  0.67842253  0.49187268
   0.99152264  0.63864887  0.71326215
   0.36135113  0.35287377  0.71326215
   0.67842253  0.59260058  0.99187268
   0.40739942  0.08582195  0.99187268
   0.21311138  0.30040483  0.46674092
   0.08729345  0.78688862  0.46674092
   0.30040483  0.21311138  0.96674092
   0.69959517  0.91270655  0.46674092
   0.00000000  0.00000000  0.95692726
   0.06686359  0.48449764  0.78259872
   0.00000000  0.00000000  0.45692726
   0.66666667  0.33333333  0.47577702
   0.58236595  0.51550236  0.28259872
   0.78688862  0.08729345  0.96674092
   0.91270655  0.69959517  0.96674092
   0.33333333  0.66666667  0.97577702
   0.93313641  0.41763405  0.28259872
   0.41763405  0.93313641  0.78259872
   0.51550236  0.58236595  0.78259872
   0.48449764  0.06686359  0.28259872
Direct configuration=     2
   0.00626534  0.64696057  0.21543767
   0.64069524  0.99373466  0.21543767
   0.91528904  0.32226964  0.99411172
   0.64696057  0.00626534  0.71543767
   0.08471096  0.40698059  0.49411172
   0.32226964  0.91528904  0.49411172
   0.35303943  0.35930476  0.21543767
   0.59301941  0.67773036  0.49411172
   0.99373466  0.64069524  0.71543767
   0.35930476  0.35303943  0.71543767
   0.67773036  0.59301941  0.99411172
   0.40698059  0.08471096  0.99411172
   0.21576417  0.30359711  0.46696702
   0.08783294  0.78423583  0.46696702
   0.30359711  0.21576417  0.96696702
   0.69640289  0.91216706  0.46696702
   0.00000000  0.00000000  0.95751741
   0.06492276  0.48434957  0.78019490
   0.00000000  0.00000000  0.45751741
   0.66666667  0.33333333  0.46847634
   0.58057319  0.51565043  0.28019490
   0.78423583  0.08783294  0.96696702
   0.91216706  0.69640289  0.96696702
   0.33333333  0.66666667  0.96847634
   0.93507724  0.41942681  0.28019490
   0.41942681  0.93507724  0.78019490
   0.51565043  0.58057319  0.78019490
   0.48434957  0.06492276  0.28019490
Direct configuration=     3
   0.00562087  0.64691231  0.21607151
   0.64129144  0.99437913  0.21607151
   0.91561273  0.32247130  0.99476406
   0.64691231  0.00562087  0.71607151
   0.08438727  0.40685857  0.49476406
   0.32247130  0.91561273  0.49476406
   0.35308769  0.35870856  0.21607151
   0.59314143  0.67752870  0.49476406
   0.99437913  0.64129144  0.71607151
   0.35870856  0.35308769  0.71607151
   0.67752870  0.59314143  0.99476406
   0.40685857  0.08438727  0.99476406
   0.21653706  0.30452718  0.46703289
   0.08799013  0.78346294  0.46703289
   0.30452718  0.21653706  0.96703289
   0.69547282  0.91200987  0.46703289
   0.00000000  0.00000000  0.95768935
   0.06435730  0.48430643  0.77949454
   0.00000000  0.00000000  0.45768935
   0.66666667  0.33333333  0.46634929
   0.58005087  0.51569357  0.27949454
   0.78346294  0.08799013  0.96703289
   0.91200987  0.69547282  0.96703289
   0.33333333  0.66666667  0.96634929
   0.93564270  0.41994913  0.27949454
   0.41994913  0.93564270  0.77949454
   0.51569357  0.58005087  0.77949454
   0.48430643  0.06435730  0.27949454
Direct configuration=     4
   0.00377297  0.64562445  0.21792311
   0.64185148  0.99622703  0.21792311
   0.91645711  0.32313570  0.99410370
   0.64562445  0.00377297  0.71792311
   0.08354289  0.40667859  0.49410370
   0.32313570  0.91645711  0.49410370
   0.35437555  0.35814852  0.21792311
   0.59332141  0.67686430  0.49410370
   0.99622703  0.64185148  0.71792311
   0.35814852  0.35437555  0.71792311
   0.67686430  0.59332141  0.99410370
   0.40667859  0.08354289  0.99410370
   0.21523285  0.30425868  0.46861110
   0.08902583  0.78476715  0.46861110
   0.30425868  0.21523285  0.96861110
   0.69574132  0.91097417  0.46861110
   0.00000000  0.00000000  0.95865922
   0.06340872  0.48388743  0.77956189
   0.00000000  0.00000000  0.45865922
   0.66666667  0.33333333  0.45686903
   0.57952129  0.51611257  0.27956189
   0.78476715  0.08902583  0.96861110
   0.91097417  0.69574132  0.96861110
   0.33333333  0.66666667  0.95686903
   0.93659128  0.42047871  0.27956189
   0.42047871  0.93659128  0.77956189
   0.51611257  0.57952129  0.77956189
   0.48388743  0.06340872  0.27956189
Direct configuration=     5
   0.00232611  0.64461608  0.21937289
   0.64228997  0.99767389  0.21937289
   0.91711824  0.32365592  0.99358665
   0.64461608  0.00232611  0.71937289
   0.08288176  0.40653767  0.49358665
   0.32365592  0.91711824  0.49358665
   0.35538392  0.35771003  0.21937289
   0.59346233  0.67634408  0.49358665
   0.99767389  0.64228997  0.71937289
   0.35771003  0.35538392  0.71937289
   0.67634408  0.59346233  0.99358665
   0.40653767  0.08288176  0.99358665
   0.21421168  0.30404845  0.46984682
   0.08983677  0.78578832  0.46984682
   0.30404845  0.21421168  0.96984682
   0.69595155  0.91016323  0.46984682
   0.00000000  0.00000000  0.95941862
   0.06266600  0.48355936  0.77961461
   0.00000000  0.00000000  0.45941862
   0.66666667  0.33333333  0.44944615
   0.57910664  0.51644064  0.27961461
   0.78578832  0.08983677  0.96984682
   0.91016323  0.69595155  0.96984682
   0.33333333  0.66666667  0.94944615
   0.93733400  0.42089336  0.27961461
   0.42089336  0.93733400  0.77961461
   0.51644064  0.57910664  0.77961461
   0.48355936  0.06266600  0.27961461
Direct configuration=     6
   0.00250867  0.64655636  0.22184644
   0.64404768  0.99749133  0.22184644
   0.91760297  0.32400670  0.99268759
   0.64655636  0.00250867  0.72184644
   0.08239703  0.40640374  0.49268759
   0.32400670  0.91760297  0.49268759
   0.35344364  0.35595232  0.22184644
   0.59359626  0.67599330  0.49268759
   0.99749133  0.64404768  0.72184644
   0.35595232  0.35344364  0.72184644
   0.67599330  0.59359626  0.99268759
   0.40640374  0.08239703  0.99268759
   0.21374796  0.30260158  0.47060269
   0.08885362  0.78625204  0.47060269
   0.30260158  0.21374796  0.97060269
   0.69739842  0.91114638  0.47060269
  -0.00000000  0.00000000  0.96095191
   0.06257344  0.48290501  0.77919370
  -0.00000000  0.00000000  0.46095191
   0.66666667  0.33333333  0.44218452
   0.57966844  0.51709499  0.27919370
   0.78625204  0.08885362  0.97060269
   0.91114638  0.69739842  0.97060269
   0.33333333  0.66666667  0.94218452
   0.93742656  0.42033156  0.27919370
   0.42033156  0.93742656  0.77919370
   0.51709499  0.57966844  0.77919370
   0.48290501  0.06257344  0.27919370
Direct configuration=     7
   0.00251243  0.64659628  0.22189733
   0.64408385  0.99748757  0.22189733
   0.91761294  0.32401392  0.99266909
   0.64659628  0.00251243  0.72189733
   0.08238706  0.40640098  0.49266909
   0.32401392  0.91761294  0.49266909
   0.35340372  0.35591615  0.22189733
   0.59359902  0.67598608  0.49266909
   0.99748757  0.64408385  0.72189733
   0.35591615  0.35340372  0.72189733
   0.67598608  0.59359902  0.99266909
   0.40640098  0.08238706  0.99266909
   0.21373842  0.30257181  0.47061824
   0.08883339  0.78626158  0.47061824
   0.30257181  0.21373842  0.97061824
   0.69742819  0.91116661  0.47061824
  -0.00000000  0.00000000  0.96098346
   0.06257154  0.48289154  0.77918504
  -0.00000000  0.00000000  0.46098346
   0.66666667  0.33333333  0.44203512
   0.57968000  0.51710846  0.27918504
   0.78626158  0.08883339  0.97061824
   0.91116661  0.69742819  0.97061824
   0.33333333  0.66666667  0.94203512
   0.93742846  0.42032000  0.27918504
   0.42032000  0.93742846  0.77918504
   0.51710846  0.57968000  0.77918504
   0.48289154  0.06257154  0.27918504
Direct configuration=     8
   0.00252173  0.64729275  0.22246942
   0.64477102  0.99747827  0.22246942
   0.91761165  0.32351735  0.99257795
   0.64729275  0.00252173  0.72246942
   0.08238835  0.40590571  0.49257795
   0.32351735  0.91761165  0.49257795
   0.35270725  0.35522898  0.22246942
   0.59409429  0.67648265  0.49257795
   0.99747827  0.64477102  0.72246942
   0.35522898  0.35270725  0.72246942
   0.67648265  0.59409429  0.99257795
   0.40590571  0.08238835  0.99257795
   0.21318331  0.30113186  0.47218295
   0.08794855  0.78681669  0.47218295
   0.30113186  0.21318331  0.97218295
   0.69886814  0.91205145  0.47218295
  -0.00000000  0.00000000  0.96263952
   0.06178152  0.48307160  0.77747321
  -0.00000000  0.00000000  0.46263952
   0.66666667  0.33333333  0.43937756
   0.57870992  0.51692840  0.27747321
   0.78681669  0.08794855  0.97218295
   0.91205145  0.69886814  0.97218295
   0.33333333  0.66666667  0.93937756
   0.93821848  0.42129008  0.27747321
   0.42129008  0.93821848  0.77747321
   0.51692840  0.57870992  0.77747321
   0.48307160  0.06178152  0.27747321
Direct configuration=     9
   0.00252482  0.64752416  0.22265950
   0.64499934  0.99747518  0.22265950
   0.91761122  0.32335237  0.99254767
   0.64752416  0.00252482  0.72265950
   0.08238878  0.40574115  0.49254767
   0.32335237  0.91761122  0.49254767
   0.35247584  0.35500066  0.22265950
   0.59425885  0.67664763  0.49254767
   0.99747518  0.64499934  0.72265950
   0.35500066  0.35247584  0.72265950
   0.67664763  0.59425885  0.99254767
   0.40574115  0.08238878  0.99254767
   0.21299887  0.30065344  0.47270282
   0.08765456  0.78700113  0.47270282
   0.30065344  0.21299887  0.97270282
   0.69934656  0.91234544  0.47270282
  -0.00000000  0.00000000  0.96318974
   0.06151904  0.48313142  0.77690446
  -0.00000000  0.00000000  0.46318974
   0.66666667  0.33333333  0.43849459
   0.57838761  0.51686858  0.27690446
   0.78700113  0.08765456  0.97270282
   0.91234544  0.69934656  0.97270282
   0.33333333  0.66666667  0.93849459
   0.93848096  0.42161239  0.27690446
   0.42161239  0.93848096  0.77690446
   0.51686858  0.57838761  0.77690446
   0.48313142  0.06151904  0.27690446
Direct configuration=    10
   0.00298336  0.64782289  0.22298035
   0.64483953  0.99701664  0.22298035
   0.91805080  0.32352239  0.99182673
   0.64782289  0.00298336  0.72298035
   0.08194920  0.40547159  0.49182673
   0.32352239  0.91805080  0.49182673
   0.35217711  0.35516047  0.22298035
   0.59452841  0.67647761  0.49182673
   0.99701664  0.64483953  0.72298035
   0.35516047  0.35217711  0.72298035
   0.67647761  0.59452841  0.99182673
   0.40547159  0.08194920  0.99182673
   0.21264410  0.30047300  0.47306819
   0.08782890  0.78735590  0.47306819
   0.30047300  0.21264410  0.97306819
   0.69952700  0.91217110  0.47306819
  -0.00000000  0.00000000  0.96460771
   0.06067167  0.48289830  0.77662318
  -0.00000000  0.00000000  0.46460771
   0.66666667  0.33333333  0.43802463
   0.57777336  0.51710170  0.27662318
   0.78735590  0.08782890  0.97306819
   0.91217110  0.69952700  0.97306819
   0.33333333  0.66666667  0.93802463
   0.93932833  0.42222664  0.27662318
   0.42222664  0.93932833  0.77662318
   0.51710170  0.57777336  0.77662318
   0.48289830  0.06067167  0.27662318
Direct configuration=    11
   0.00300754  0.64783865  0.22299727
   0.64483111  0.99699246  0.22299727
   0.91807399  0.32353136  0.99178871
   0.64783865  0.00300754  0.72299727
   0.08192601  0.40545737  0.49178871
   0.32353136  0.91807399  0.49178871
   0.35216135  0.35516889  0.22299727
   0.59454263  0.67646864  0.49178871
   0.99699246  0.64483111  0.72299727
   0.35516889  0.35216135  0.72299727
   0.67646864  0.59454263  0.99178871
   0.40545737  0.08192601  0.99178871
   0.21262539  0.30046349  0.47308745
   0.08783809  0.78737461  0.47308745
   0.30046349  0.21262539  0.97308745
   0.69953651  0.91216191  0.47308745
  -0.00000000  0.00000000  0.96468249
   0.06062698  0.48288601  0.77660834
  -0.00000000  0.00000000  0.46468249
   0.66666667  0.33333333  0.43799985
   0.57774097  0.51711399  0.27660834
   0.78737461  0.08783809  0.97308745
   0.91216191  0.69953651  0.97308745
   0.33333333  0.66666667  0.93799985
   0.93937302  0.42225903  0.27660834
   0.42225903  0.93937302  0.77660834
   0.51711399  0.57774097  0.77660834
   0.48288601  0.06062698  0.27660834
Direct configuration=    12
   0.00345830  0.64821473  0.22282557
   0.64475643  0.99654170  0.22282557
   0.91826374  0.32370174  0.99184584
   0.64821473  0.00345830  0.72282557
   0.08173626  0.40543800  0.49184584
   0.32370174  0.91826374  0.49184584
   0.35178527  0.35524357  0.22282557
   0.59456200  0.67629826  0.49184584
   0.99654170  0.64475643  0.72282557
   0.35524357  0.35178527  0.72282557
   0.67629826  0.59456200  0.99184584
   0.40543800  0.08173626  0.99184584
   0.21256791  0.30066516  0.47321619
   0.08809725  0.78743209  0.47321619
   0.30066516  0.21256791  0.97321619
   0.69933484  0.91190275  0.47321619
  -0.00000000  0.00000000  0.96605925
   0.06058769  0.48291881  0.77635574
  -0.00000000  0.00000000  0.46605925
   0.66666667  0.33333333  0.43733842
   0.57766888  0.51708119  0.27635574
   0.78743209  0.08809725  0.97321619
   0.91190275  0.69933484  0.97321619
   0.33333333  0.66666667  0.93733842
   0.93941231  0.42233112  0.27635574
   0.42233112  0.93941231  0.77635574
   0.51708119  0.57766888  0.77635574
   0.48291881  0.06058769  0.27635574
Direct configuration=    13
   0.00379873  0.64849875  0.22269589
   0.64470003  0.99620127  0.22269589
   0.91840705  0.32383041  0.99188898
   0.64849875  0.00379873  0.72269589
   0.08159295  0.40542336  0.49188898
   0.32383041  0.91840705  0.49188898
   0.35150125  0.35529997  0.22269589
   0.59457664  0.67616959  0.49188898
   0.99620127  0.64470003  0.72269589
   0.35529997  0.35150125  0.72269589
   0.67616959  0.59457664  0.99188898
   0.40542336  0.08159295  0.99188898
   0.21252449  0.30081747  0.47331342
   0.08829298  0.78747551  0.47331342
   0.30081747  0.21252449  0.97331342
   0.69918253  0.91170702  0.47331342
  -0.00000000  0.00000000  0.96709900
   0.06055801  0.48294358  0.77616498
  -0.00000000  0.00000000  0.46709900
   0.66666667  0.33333333  0.43683889
   0.57761443  0.51705642  0.27616498
   0.78747551  0.08829298  0.97331342
   0.91170702  0.69918253  0.97331342
   0.33333333  0.66666667  0.93683889
   0.93944199  0.42238557  0.27616498
   0.42238557  0.93944199  0.77616498
   0.51705642  0.57761443  0.77616498
   0.48294358  0.06055801  0.27616498
Direct configuration=    14
   0.00408922  0.64850058  0.22240917
   0.64441136  0.99591078  0.22240917
   0.91848999  0.32398593  0.99196759
   0.64850058  0.00408922  0.72240917
   0.08151001  0.40549594  0.49196759
   0.32398593  0.91848999  0.49196759
   0.35149942  0.35558864  0.22240917
   0.59450406  0.67601407  0.49196759
   0.99591078  0.64441136  0.72240917
   0.35558864  0.35149942  0.72240917
   0.67601407  0.59450406  0.99196759
   0.40549594  0.08151001  0.99196759
   0.21241303  0.30071024  0.47331439
   0.08829720  0.78758697  0.47331439
   0.30071024  0.21241303  0.97331439
   0.69928976  0.91170280  0.47331439
  -0.00000000  0.00000000  0.96854969
   0.06062837  0.48329004  0.77612974
  -0.00000000  0.00000000  0.46854969
   0.66666667  0.33333333  0.43611534
   0.57733832  0.51670996  0.27612974
   0.78758697  0.08829720  0.97331439
   0.91170280  0.69928976  0.97331439
   0.33333333  0.66666667  0.93611534
   0.93937163  0.42266168  0.27612974
   0.42266168  0.93937163  0.77612974
   0.51670996  0.57733832  0.77612974
   0.48329004  0.06062837  0.27612974
Direct configuration=    15
   0.00411161  0.64850072  0.22238707
   0.64438911  0.99588839  0.22238707
   0.91849639  0.32399792  0.99197364
   0.64850072  0.00411161  0.72238707
   0.08150361  0.40550153  0.49197364
   0.32399792  0.91849639  0.49197364
   0.35149928  0.35561089  0.22238707
   0.59449847  0.67600208  0.49197364
   0.99588839  0.64438911  0.72238707
   0.35561089  0.35149928  0.72238707
   0.67600208  0.59449847  0.99197364
   0.40550153  0.08150361  0.99197364
   0.21240444  0.30070197  0.47331446
   0.08829753  0.78759556  0.47331446
   0.30070197  0.21240444  0.97331446
   0.69929803  0.91170247  0.47331446
  -0.00000000 -0.00000000  0.96866148
   0.06063379  0.48331674  0.77612703
  -0.00000000 -0.00000000  0.46866148
   0.66666667  0.33333333  0.43605958
   0.57731705  0.51668326  0.27612703
   0.78759556  0.08829753  0.97331446
   0.91170247  0.69929803  0.97331446
   0.33333333  0.66666667  0.93605958
   0.93936621  0.42268295  0.27612703
   0.42268295  0.93936621  0.77612703
   0.51668326  0.57731705  0.77612703
   0.48331674  0.06063379  0.27612703
Direct configuration=    16
   0.00408114  0.64850948  0.22232023
   0.64442834  0.99591886  0.22232023
   0.91842787  0.32398581  0.99195838
   0.64850948  0.00408114  0.72232023
   0.08157213  0.40555795  0.49195838
   0.32398581  0.91842787  0.49195838
   0.35149052  0.35557166  0.22232023
   0.59444205  0.67601419  0.49195838
   0.99591886  0.64442834  0.72232023
   0.35557166  0.35149052  0.72232023
   0.67601419  0.59444205  0.99195838
   0.40555795  0.08157213  0.99195838
   0.21239355  0.30062172  0.47316145
   0.08822817  0.78760645  0.47316145
   0.30062172  0.21239355  0.97316145
   0.69937828  0.91177183  0.47316145
  -0.00000000  0.00000000  0.96902441
   0.06053901  0.48325645  0.77624595
  -0.00000000  0.00000000  0.46902441
   0.66666667  0.33333333  0.43604525
   0.57728257  0.51674355  0.27624595
   0.78760645  0.08822817  0.97316145
   0.91177183  0.69937828  0.97316145
   0.33333333  0.66666667  0.93604525
   0.93946099  0.42271743  0.27624595
   0.42271743  0.93946099  0.77624595
   0.51674355  0.57728257  0.77624595
   0.48325645  0.06053901  0.27624595
Direct configuration=    17
   0.00406946  0.64851283  0.22229463
   0.64444337  0.99593054  0.22229463
   0.91840163  0.32398118  0.99195254
   0.64851283  0.00406946  0.72229463
   0.08159837  0.40557955  0.49195254
   0.32398118  0.91840163  0.49195254
   0.35148717  0.35555663  0.22229463
   0.59442045  0.67601882  0.49195254
   0.99593054  0.64444337  0.72229463
   0.35555663  0.35148717  0.72229463
   0.67601882  0.59442045  0.99195254
   0.40557955  0.08159837  0.99195254
   0.21238938  0.30059099  0.47310285
   0.08820161  0.78761062  0.47310285
   0.30059099  0.21238938  0.97310285
   0.69940901  0.91179839  0.47310285
  -0.00000000  0.00000000  0.96916341
   0.06050272  0.48323336  0.77629149
  -0.00000000  0.00000000  0.46916341
   0.66666667  0.33333333  0.43603975
   0.57726936  0.51676664  0.27629149
   0.78761062  0.08820161  0.97310285
   0.91179839  0.69940901  0.97310285
   0.33333333  0.66666667  0.93603975
   0.93949728  0.42273064  0.27629149
   0.42273064  0.93949728  0.77629149
   0.51676664  0.57726936  0.77629149
   0.48323336  0.06050272  0.27629149
