  56  56   0   0
  0.1127830E+02  0.8579800E-09  0.8579800E-09  0.8579800E-09  0.5000000E-15
  1.000000000000000E-004
  CAR 
 unknown system                          
     14.59198029    -10.57359718  301      9.65478196      1.00000000
    -10.574  0.0000E+00  0.0000E+00
    -10.490  0.0000E+00  0.0000E+00
    -10.406  0.0000E+00  0.0000E+00
    -10.322  0.0000E+00  0.0000E+00
    -10.238  0.5645E-29  0.4735E-30
    -10.154  0.1543E-23  0.1294E-24
    -10.070  0.9889E-19  0.8295E-20
     -9.986  0.1474E-14  0.1237E-15
     -9.903  0.5033E-11  0.4223E-12
     -9.819  0.3877E-08  0.3256E-09
     -9.735  0.6574E-06  0.5547E-07
     -9.651  0.2252E-04  0.1945E-05
     -9.567  0.6650E-04  0.7523E-05
     -9.483 -0.7141E-03 -0.5238E-04
     -9.399  0.5159E-02  0.3803E-03
     -9.315  0.2591E-01  0.2554E-02
     -9.231  0.3390E-01  0.5398E-02
     -9.148  0.6317E-01  0.1070E-01
     -9.064  0.4530E-01  0.1450E-01
     -8.980  0.8327E-01  0.2148E-01
     -8.896  0.8948E-01  0.2899E-01
     -8.812  0.1021E+00  0.3755E-01
     -8.728  0.1259E+00  0.4811E-01
     -8.644  0.1923E+00  0.6424E-01
     -8.560  0.1031E+00  0.7289E-01
     -8.476  0.1750E+00  0.8757E-01
     -8.393  0.3235E+00  0.1147E+00
     -8.309  0.2857E+00  0.1387E+00
     -8.225  0.1836E+00  0.1541E+00
     -8.141  0.7367E-01  0.1603E+00
     -8.057 -0.1766E-01  0.1588E+00
     -7.973  0.1063E+00  0.1677E+00
     -7.889  0.3671E+00  0.1985E+00
     -7.805  0.2862E+00  0.2225E+00
     -7.721  0.1875E+00  0.2382E+00
     -7.638  0.7413E-01  0.2444E+00
     -7.554  0.2865E-01  0.2468E+00
     -7.470  0.8448E-01  0.2539E+00
     -7.386  0.1516E+00  0.2666E+00
     -7.302  0.7021E-01  0.2725E+00
     -7.218  0.5026E-01  0.2767E+00
     -7.134  0.1437E+00  0.2888E+00
     -7.050  0.1239E+00  0.2992E+00
     -6.967  0.5690E-01  0.3040E+00
     -6.883  0.5601E-01  0.3087E+00
     -6.799  0.6809E-01  0.3144E+00
     -6.715  0.2182E-01  0.3162E+00
     -6.631 -0.3465E-01  0.3133E+00
     -6.547  0.6210E+00  0.3654E+00
     -6.463  0.1248E+01  0.4701E+00
     -6.379  0.1566E+00  0.4832E+00
     -6.295 -0.4482E-01  0.4795E+00
     -6.212  0.5960E-02  0.4800E+00
     -6.128  0.5760E-03  0.4800E+00
     -6.044  0.6428E-05  0.4800E+00
     -5.960  0.1401E-07  0.4800E+00
     -5.876  0.6694E-11  0.4800E+00
     -5.792  0.7287E-15  0.4800E+00
     -5.708  0.0000E+00  0.4800E+00
     -5.624  0.0000E+00  0.4800E+00
     -5.540  0.0000E+00  0.4800E+00
     -5.457  0.0000E+00  0.4800E+00
     -5.373  0.0000E+00  0.4800E+00
     -5.289  0.0000E+00  0.4800E+00
     -5.205  0.0000E+00  0.4800E+00
     -5.121  0.0000E+00  0.4800E+00
     -5.037  0.0000E+00  0.4800E+00
     -4.953  0.0000E+00  0.4800E+00
     -4.869  0.0000E+00  0.4800E+00
     -4.786  0.0000E+00  0.4800E+00
     -4.702  0.0000E+00  0.4800E+00
     -4.618  0.0000E+00  0.4800E+00
     -4.534  0.0000E+00  0.4800E+00
     -4.450  0.0000E+00  0.4800E+00
     -4.366  0.0000E+00  0.4800E+00
     -4.282  0.0000E+00  0.4800E+00
     -4.198  0.0000E+00  0.4800E+00
     -4.114  0.0000E+00  0.4800E+00
     -4.031  0.0000E+00  0.4800E+00
     -3.947  0.0000E+00  0.4800E+00
     -3.863  0.0000E+00  0.4800E+00
     -3.779  0.0000E+00  0.4800E+00
     -3.695  0.0000E+00  0.4800E+00
     -3.611  0.0000E+00  0.4800E+00
     -3.527  0.0000E+00  0.4800E+00
     -3.443  0.0000E+00  0.4800E+00
     -3.359  0.0000E+00  0.4800E+00
     -3.276  0.0000E+00  0.4800E+00
     -3.192  0.0000E+00  0.4800E+00
     -3.108  0.0000E+00  0.4800E+00
     -3.024  0.0000E+00  0.4800E+00
     -2.940  0.0000E+00  0.4800E+00
     -2.856  0.0000E+00  0.4800E+00
     -2.772  0.0000E+00  0.4800E+00
     -2.688  0.0000E+00  0.4800E+00
     -2.604  0.0000E+00  0.4800E+00
     -2.521  0.0000E+00  0.4800E+00
     -2.437  0.0000E+00  0.4800E+00
     -2.353  0.0000E+00  0.4800E+00
     -2.269  0.0000E+00  0.4800E+00
     -2.185  0.0000E+00  0.4800E+00
     -2.101  0.0000E+00  0.4800E+00
     -2.017  0.0000E+00  0.4800E+00
     -1.933  0.0000E+00  0.4800E+00
     -1.850  0.3180E-28  0.4800E+00
     -1.766  0.9947E-23  0.4800E+00
     -1.682  0.7370E-18  0.4800E+00
     -1.598  0.1283E-13  0.4800E+00
     -1.514  0.5158E-10  0.4800E+00
     -1.430  0.4643E-07  0.4800E+00
     -1.346  0.8740E-05  0.4800E+00
     -1.262  0.2765E-03  0.4800E+00
     -1.178 -0.1823E-03  0.4800E+00
     -1.095 -0.3929E-02  0.4797E+00
     -1.011  0.5881E-01  0.4846E+00
     -0.927  0.1781E+00  0.4996E+00
     -0.843  0.3383E+00  0.5279E+00
     -0.759  0.3025E+00  0.5533E+00
     -0.675  0.4132E+00  0.5880E+00
     -0.591  0.4082E+00  0.6222E+00
     -0.507  0.3299E+00  0.6499E+00
     -0.423  0.2889E+00  0.6741E+00
     -0.340  0.2562E+00  0.6956E+00
     -0.256  0.2005E+00  0.7124E+00
     -0.172  0.1222E+00  0.7227E+00
     -0.088  0.2299E+00  0.7420E+00
     -0.004  0.1921E+00  0.7581E+00
      0.080  0.2681E+00  0.7806E+00
      0.164  0.1999E+00  0.7973E+00
      0.248  0.1314E+00  0.8084E+00
      0.331  0.2050E+00  0.8256E+00
      0.415  0.1460E+00  0.8378E+00
      0.499  0.5511E-01  0.8424E+00
      0.583  0.1490E+00  0.8549E+00
      0.667  0.2372E+00  0.8748E+00
      0.751  0.3269E+00  0.9023E+00
      0.835  0.2902E+00  0.9266E+00
      0.919  0.2642E+00  0.9488E+00
      1.003  0.1587E+00  0.9621E+00
      1.086  0.1874E+00  0.9778E+00
      1.170  0.1833E+00  0.9932E+00
      1.254  0.2016E+00  0.1010E+01
      1.338  0.1827E+00  0.1025E+01
      1.422  0.1607E+00  0.1039E+01
      1.506  0.1492E+00  0.1051E+01
      1.590  0.7603E-01  0.1058E+01
      1.674  0.6638E-01  0.1063E+01
      1.758  0.4827E-01  0.1067E+01
      1.841  0.1302E+00  0.1078E+01
      1.925  0.2420E+00  0.1099E+01
      2.009  0.1252E+00  0.1109E+01
      2.093  0.6488E-01  0.1115E+01
      2.177  0.9346E-01  0.1122E+01
      2.261  0.2359E+00  0.1142E+01
      2.345  0.3984E+00  0.1176E+01
      2.429  0.1890E+00  0.1191E+01
      2.513  0.2665E+00  0.1214E+01
      2.596  0.2847E+00  0.1238E+01
      2.680  0.3729E+00  0.1269E+01
      2.764  0.4213E+00  0.1304E+01
      2.848  0.2787E+00  0.1328E+01
      2.932  0.2527E+00  0.1349E+01
      3.016  0.4454E+00  0.1386E+01
      3.100  0.2938E+00  0.1411E+01
      3.184  0.3105E+00  0.1437E+01
      3.267  0.2170E+00  0.1455E+01
      3.351  0.2473E+00  0.1476E+01
      3.435  0.2061E+00  0.1493E+01
      3.519  0.3460E+00  0.1522E+01
      3.603  0.5230E+00  0.1566E+01
      3.687  0.3691E+00  0.1597E+01
      3.771  0.2111E+00  0.1615E+01
      3.855  0.2586E+00  0.1636E+01
      3.939  0.2592E+00  0.1658E+01
      4.022  0.1006E+00  0.1667E+01
      4.106  0.9246E-01  0.1674E+01
      4.190  0.1706E+00  0.1689E+01
      4.274  0.1119E+00  0.1698E+01
      4.358  0.1439E+00  0.1710E+01
      4.442  0.1473E+00  0.1723E+01
      4.526  0.1061E+00  0.1731E+01
      4.610  0.5840E-01  0.1736E+01
      4.694  0.1488E+00  0.1749E+01
      4.777  0.1375E+00  0.1760E+01
      4.861  0.6127E-01  0.1765E+01
      4.945  0.1607E+00  0.1779E+01
      5.029  0.1365E+00  0.1790E+01
      5.113  0.6493E-01  0.1796E+01
      5.197  0.5652E-01  0.1801E+01
      5.281  0.2309E+00  0.1820E+01
      5.365  0.2052E+00  0.1837E+01
      5.448  0.2780E+00  0.1860E+01
      5.532  0.3070E+00  0.1886E+01
      5.616  0.1759E+00  0.1901E+01
      5.700  0.1415E+00  0.1913E+01
      5.784  0.4855E-01  0.1917E+01
      5.868  0.3657E-01  0.1920E+01
      5.952  0.1545E-02  0.1920E+01
      6.036  0.4568E-02  0.1921E+01
      6.120  0.6664E-02  0.1921E+01
      6.203  0.1487E-02  0.1921E+01
      6.287  0.3925E-01  0.1924E+01
      6.371  0.3950E-01  0.1928E+01
      6.455  0.1587E-01  0.1929E+01
      6.539  0.1558E-04  0.1929E+01
      6.623  0.4129E-01  0.1933E+01
      6.707  0.9323E-01  0.1940E+01
      6.791  0.5984E-01  0.1945E+01
      6.875  0.8565E-01  0.1953E+01
      6.958  0.8006E-01  0.1959E+01
      7.042  0.1161E+00  0.1969E+01
      7.126  0.5164E-01  0.1973E+01
      7.210  0.6522E-01  0.1979E+01
      7.294  0.1280E+00  0.1990E+01
      7.378  0.1129E+00  0.1999E+01
      7.462  0.9848E-01  0.2007E+01
      7.546  0.8490E-01  0.2014E+01
      7.630  0.5137E-01  0.2019E+01
      7.713  0.1428E+00  0.2031E+01
      7.797  0.2251E+00  0.2050E+01
      7.881  0.1876E+00  0.2065E+01
      7.965  0.1662E+00  0.2079E+01
      8.049  0.1583E+00  0.2093E+01
      8.133  0.1569E+00  0.2106E+01
      8.217  0.3159E+00  0.2132E+01
      8.301  0.2854E+00  0.2156E+01
      8.384  0.1744E+00  0.2171E+01
      8.468  0.2179E+00  0.2189E+01
      8.552  0.2873E+00  0.2213E+01
      8.636  0.2165E+00  0.2231E+01
      8.720  0.2176E+00  0.2250E+01
      8.804  0.2426E+00  0.2270E+01
      8.888  0.1681E+00  0.2284E+01
      8.972  0.1788E+00  0.2299E+01
      9.056  0.2256E+00  0.2318E+01
      9.139  0.3035E+00  0.2343E+01
      9.223  0.2784E+00  0.2367E+01
      9.307  0.1678E+00  0.2381E+01
      9.391  0.2290E+00  0.2400E+01
      9.475  0.2055E+00  0.2417E+01
      9.559  0.4514E+00  0.2455E+01
      9.643  0.2840E+00  0.2479E+01
      9.727  0.3103E-01  0.2482E+01
      9.811  0.5774E-01  0.2487E+01
      9.894  0.6437E-01  0.2492E+01
      9.978  0.6885E-01  0.2498E+01
     10.062  0.1648E+00  0.2512E+01
     10.146  0.8672E-01  0.2519E+01
     10.230  0.4186E-01  0.2522E+01
     10.314  0.1803E+00  0.2537E+01
     10.398  0.2793E+00  0.2561E+01
     10.482  0.2926E+00  0.2585E+01
     10.565  0.2489E+00  0.2606E+01
     10.649  0.1448E+00  0.2618E+01
     10.733  0.1974E+00  0.2635E+01
     10.817  0.1934E+00  0.2651E+01
     10.901  0.2481E+00  0.2672E+01
     10.985  0.3045E+00  0.2698E+01
     11.069  0.2475E+00  0.2718E+01
     11.153  0.3144E+00  0.2745E+01
     11.237  0.3480E+00  0.2774E+01
     11.320  0.3542E+00  0.2804E+01
     11.404  0.2678E+00  0.2826E+01
     11.488  0.2156E+00  0.2844E+01
     11.572  0.1655E+00  0.2858E+01
     11.656  0.3763E+00  0.2890E+01
     11.740  0.4473E+00  0.2927E+01
     11.824  0.2512E+00  0.2948E+01
     11.908  0.1256E+00  0.2959E+01
     11.992  0.1764E+00  0.2974E+01
     12.075  0.2198E+00  0.2992E+01
     12.159  0.1175E+00  0.3002E+01
     12.243  0.1915E+00  0.3018E+01
     12.327  0.3329E+00  0.3046E+01
     12.411  0.1194E+00  0.3056E+01
     12.495  0.8966E-01  0.3063E+01
     12.579  0.1789E+00  0.3078E+01
     12.663  0.1748E+00  0.3093E+01
     12.747  0.9058E-01  0.3101E+01
     12.830  0.7708E-01  0.3107E+01
     12.914  0.5152E-01  0.3111E+01
     12.998  0.2728E-01  0.3114E+01
     13.082  0.2359E-01  0.3116E+01
     13.166  0.2561E-01  0.3118E+01
     13.250  0.1512E-01  0.3119E+01
     13.334  0.7891E-02  0.3120E+01
     13.418  0.1597E-03  0.3120E+01
     13.501  0.2876E-02  0.3120E+01
     13.585  0.2452E-03  0.3120E+01
     13.669 -0.9173E-04  0.3120E+01
     13.753  0.1459E-04  0.3120E+01
     13.837  0.8355E-06  0.3120E+01
     13.921  0.6050E-08  0.3120E+01
     14.005  0.8411E-11  0.3120E+01
     14.089  0.2505E-14  0.3120E+01
     14.173  0.0000E+00  0.3120E+01
     14.256  0.0000E+00  0.3120E+01
     14.340  0.0000E+00  0.3120E+01
     14.424  0.0000E+00  0.3120E+01
     14.508  0.0000E+00  0.3120E+01
     14.592  0.0000E+00  0.3120E+01
