       N       E                     dE             d eps       ncg     rms          rms(c)
DAV:   1     0.871527641680E+03    0.87153E+03   -0.98627E+04  3120   0.117E+03
DAV:   2    -0.248138827482E+03   -0.11197E+04   -0.10743E+04  3896   0.238E+02
DAV:   3    -0.353277941635E+03   -0.10514E+03   -0.10098E+03  3920   0.694E+01
DAV:   4    -0.357067608583E+03   -0.37897E+01   -0.36723E+01  3984   0.122E+01
DAV:   5    -0.357177517657E+03   -0.10991E+00   -0.10891E+00  3888   0.187E+00    0.364E+01
RMM:   6    -0.331123376470E+03    0.26054E+02   -0.15208E+02  3124   0.206E+01    0.164E+01
RMM:   7    -0.330469935556E+03    0.65344E+00   -0.42057E+00  3302   0.305E+00    0.947E+00
RMM:   8    -0.330376938843E+03    0.92997E-01   -0.27250E+00  3120   0.333E+00    0.230E+00
RMM:   9    -0.330202087110E+03    0.17485E+00   -0.28026E-01  3155   0.910E-01    0.828E-01
RMM:  10    -0.330194856963E+03    0.72301E-02   -0.11946E-01  3327   0.508E-01    0.265E-01
RMM:  11    -0.330196072586E+03   -0.12156E-02   -0.52862E-03  3290   0.130E-01    0.105E-01
RMM:  12    -0.330195941712E+03    0.13087E-03   -0.38141E-03  3351   0.866E-02    0.516E-02
RMM:  13    -0.330195881949E+03    0.59763E-04   -0.17937E-04  2001   0.202E-02
   1 F= -.33019588E+03 E0= -.33020053E+03  d E =-.330196E+03
       N       E                     dE             d eps       ncg     rms          rms(c)
DAV:   1    -0.330196412560E+03   -0.47085E-03   -0.75101E-02  3712   0.733E-01    0.122E-01
RMM:   2    -0.330197318911E+03   -0.90635E-03   -0.11934E-02  3149   0.249E-01    0.136E-01
RMM:   3    -0.330197203492E+03    0.11542E-03   -0.63563E-04  2386   0.396E-02    0.113E-01
RMM:   4    -0.330197162701E+03    0.40791E-04   -0.72136E-04  2835   0.483E-02
   2 F= -.33019716E+03 E0= -.33020165E+03  d E =-.128075E-02
       N       E                     dE             d eps       ncg     rms          rms(c)
DAV:   1    -0.330197959810E+03   -0.75632E-03   -0.10325E-02  3448   0.269E-01    0.472E-02
RMM:   2    -0.330198019098E+03   -0.59288E-04   -0.11915E-03  2927   0.851E-02    0.456E-02
RMM:   3    -0.330197994857E+03    0.24240E-04   -0.72150E-05  1686   0.175E-02
   3 F= -.33019799E+03 E0= -.33020254E+03  d E =-.211291E-02
