 vasp.5.4.4.18Apr17-6-g9f103f2a35 (build Nov 01 2019 12:17:22) complex          
  
 executed on             LinuxIFC date 2023.05.19  18:21:56
 running on   16 total cores
 distrk:  each k-point on   16 cores,    1 groups
 distr:  one band on NCORES_PER_BAND=   4 cores,    4 groups


--------------------------------------------------------------------------------------------------------


 INCAR:
 POTCAR:    PAW_PBE N 08Apr2002                   
 POTCAR:    PAW_PBE Si 05Jan2001                  
 POTCAR:    PAW_PBE N 08Apr2002                   
   VRHFIN =N: s2p3                                                              
   LEXCH  = PE                                                                  
   EATOM  =   264.5486 eV,   19.4438 Ry                                         
                                                                                
   TITEL  = PAW_PBE N 08Apr2002                                                 
   LULTRA =        F    use ultrasoft PP ?                                      
   IUNSCR =        1    unscreen: 0-lin 1-nonlin 2-no                           
   RPACOR =    1.200    partial core radius                                     
   POMASS =   14.001; ZVAL   =    5.000    mass and valenz                      
   RCORE  =    1.500    outmost cutoff radius                                   
   RWIGS  =    1.400; RWIGS  =    0.741    wigner-seitz radius (au A)           
   ENMAX  =  400.000; ENMIN  =  300.000 eV                                      
   ICORE  =        2    local potential                                         
   LCOR   =        T    correct aug charges                                     
   LPAW   =        T    paw PP                                                  
   EAUG   =  627.112                                                            
   DEXC   =    0.000                                                            
   RMAX   =    1.529    core radius for proj-oper                               
   RAUG   =    1.300    factor for augmentation sphere                          
   RDEP   =    1.514    radius for radial grids                                 
   RDEPT  =    1.338    core radius for aug-charge                              
                                                                                
   Atomic configuration                                                         
    4 entries                                                                   
     n  l   j            E        occ.                                          
     1  0  0.50      -384.7179   2.0000                                         
     2  0  0.50       -18.5828   2.0000                                         
     2  1  0.50        -7.0898   3.0000                                         
     3  2  1.50        -6.8029   0.0000                                         
   Description                                                                  
     l       E           TYP  RCUT    TYP  RCUT                                 
     0    -18.5828119     23  1.200                                             
     0    -13.5018863     23  1.200                                             
     1     -7.0897853     23  1.500                                             
     1      9.5240782     23  1.500                                             
     2     -6.8029130      7  1.500                                             
  local pseudopotential read in
  partial core-charges read in
  partial kinetic energy density read in
  atomic valenz-charges read in
  non local Contribution for L=           0  read in
    real space projection operators read in
  non local Contribution for L=           0  read in
    real space projection operators read in
  non local Contribution for L=           1  read in
    real space projection operators read in
  non local Contribution for L=           1  read in
    real space projection operators read in
    PAW grid and wavefunctions read in
 
   number of l-projection  operators is LMAX  =           4
   number of lm-projection operators is LMMAX =           8
 
 POTCAR:    PAW_PBE Si 05Jan2001                  
   VRHFIN =Si: s2p2                                                             
   LEXCH  = PE                                                                  
   EATOM  =   103.0669 eV,    7.5752 Ry                                         
                                                                                
   TITEL  = PAW_PBE Si 05Jan2001                                                
   LULTRA =        F    use ultrasoft PP ?                                      
   IUNSCR =        1    unscreen: 0-lin 1-nonlin 2-no                           
   RPACOR =    1.500    partial core radius                                     
   POMASS =   28.085; ZVAL   =    4.000    mass and valenz                      
   RCORE  =    1.900    outmost cutoff radius                                   
   RWIGS  =    2.480; RWIGS  =    1.312    wigner-seitz radius (au A)           
   ENMAX  =  245.345; ENMIN  =  184.009 eV                                      
   ICORE  =        2    local potential                                         
   LCOR   =        T    correct aug charges                                     
   LPAW   =        T    paw PP                                                  
   EAUG   =  322.069                                                            
   DEXC   =    0.000                                                            
   RMAX   =    1.950    core radius for proj-oper                               
   RAUG   =    1.300    factor for augmentation sphere                          
   RDEP   =    1.993    radius for radial grids                                 
   RDEPT  =    1.837    core radius for aug-charge                              
                                                                                
   Atomic configuration                                                         
    6 entries                                                                   
     n  l   j            E        occ.                                          
     1  0  0.50     -1785.8828   2.0000                                         
     2  0  0.50      -139.4969   2.0000                                         
     2  1  1.50       -95.5546   6.0000                                         
     3  0  0.50       -10.8127   2.0000                                         
     3  1  0.50        -4.0811   2.0000                                         
     3  2  1.50        -4.0817   0.0000                                         
   Description                                                                  
     l       E           TYP  RCUT    TYP  RCUT                                 
     0    -10.8127223     23  1.900                                             
     0     -7.6451159     23  1.900                                             
     1     -4.0811372     23  1.900                                             
     1      2.4879257     23  1.900                                             
     2     -4.0817478      7  1.900                                             
  local pseudopotential read in
  partial core-charges read in
  partial kinetic energy density read in
  atomic valenz-charges read in
  non local Contribution for L=           0  read in
    real space projection operators read in
  non local Contribution for L=           0  read in
    real space projection operators read in
  non local Contribution for L=           1  read in
    real space projection operators read in
  non local Contribution for L=           1  read in
    real space projection operators read in
    PAW grid and wavefunctions read in
 
   number of l-projection  operators is LMAX  =           4
   number of lm-projection operators is LMMAX =           8
 
 Optimization of the real space projectors (new method)

 maximal supplied QI-value         = 25.13
 optimisation between [QCUT,QGAM] = [ 10.05, 20.36] = [ 28.30,116.06] Ry 
 Optimized for a Real-space Cutoff    1.70 Angstroem

   l    n(q)    QCUT    max X(q) W(low)/X(q) W(high)/X(q)  e(spline) 
   0     10    10.053    79.467    0.61E-04    0.98E-04    0.61E-06
   0     10    10.053    66.151    0.60E-04    0.98E-04    0.61E-06
   1     10    10.053     8.350    0.17E-03    0.71E-03    0.45E-05
   1     10    10.053     5.531    0.18E-03    0.77E-03    0.49E-05
 Optimization of the real space projectors (new method)

 maximal supplied QI-value         = 19.84
 optimisation between [QCUT,QGAM] = [ 10.12, 20.44] = [ 28.68,116.96] Ry 
 Optimized for a Real-space Cutoff    1.38 Angstroem

   l    n(q)    QCUT    max X(q) W(low)/X(q) W(high)/X(q)  e(spline) 
   0      8    10.119   159.560    0.58E-04    0.11E-03    0.54E-07
   0      8    10.119   115.863    0.56E-04    0.11E-03    0.54E-07
   1      8    10.119    88.339    0.22E-03    0.17E-03    0.19E-06
   1      8    10.119    48.592    0.22E-03    0.17E-03    0.18E-06
  PAW_PBE N 08Apr2002                   :
 energy of atom  1       EATOM= -264.5486
 kinetic energy error for atom=    0.0736 (will be added to EATOM!!)
  PAW_PBE Si 05Jan2001                  :
 energy of atom  2       EATOM= -103.0669
 kinetic energy error for atom=    0.0012 (will be added to EATOM!!)
 
 
 POSCAR: Si24 N32                                
  positions in direct lattice
  No initial velocities read in
 exchange correlation table for  LEXCH =        8
   RHO(1)=    0.500       N(1)  =     2000
   RHO(2)=  100.500       N(2)  =     4000
 


--------------------------------------------------------------------------------------------------------


 ion  position               nearest neighbor table
   1  0.875  0.875  0.125-  26 2.16  28 2.16  47 2.16  49 2.16  54 2.16  56 2.16
   2  0.375  0.125  0.375-  25 2.16  27 2.16  29 2.16  31 2.16  32 2.16  42 2.16
   3  0.625  0.875  0.375-  27 2.16  31 2.16  44 2.16  49 2.16  53 2.16  54 2.16
   4  0.125  0.125  0.125-  26 2.16  28 2.16  29 2.16  30 2.16  32 2.16  43 2.16
   5  0.250  0.750  0.250-  28 1.84  50 1.84  51 1.84  31 1.84
   6  0.000  0.000  0.500-  29 1.84  38 1.84  48 1.84  49 1.84
   7  0.875  0.375  0.625-  34 2.16  36 2.16  41 2.16  46 2.16  48 2.16  55 2.16
   8  0.375  0.625  0.875-  33 2.16  35 2.16  37 2.16  39 2.16  40 2.16  50 2.16
   9  0.625  0.375  0.875-  35 2.16  39 2.16  41 2.16  45 2.16  46 2.16  52 2.16
  10  0.125  0.625  0.625-  34 2.16  36 2.16  37 2.16  38 2.16  40 2.16  51 2.16
  11  0.250  0.250  0.750-  36 1.84  42 1.84  43 1.84  39 1.84
  12  0.000  0.500  0.000-  30 1.84  37 1.84  56 1.84  41 1.84
  13  0.375  0.875  0.625-  31 2.16  33 2.16  38 2.16  40 2.16  42 2.16  44 2.16
  14  0.875  0.125  0.875-  26 2.16  41 2.16  43 2.16  45 2.16  47 2.16  48 2.16
  15  0.125  0.875  0.875-  28 2.16  33 2.16  37 2.16  38 2.16  43 2.16  47 2.16
  16  0.625  0.125  0.625-  27 2.16  42 2.16  44 2.16  45 2.16  46 2.16  48 2.16
  17  0.750  0.750  0.750-  34 1.84  35 1.84  44 1.84  47 1.84
  18  0.500  0.000  0.000-  32 1.84  45 1.84  54 1.84  33 1.84
  19  0.375  0.375  0.125-  25 2.16  30 2.16  32 2.16  39 2.16  50 2.16  52 2.16
  20  0.875  0.625  0.375-  34 2.16  49 2.16  51 2.16  53 2.16  55 2.16  56 2.16
  21  0.125  0.375  0.375-  25 2.16  29 2.16  30 2.16  36 2.16  51 2.16  55 2.16
  22  0.625  0.625  0.125-  35 2.16  50 2.16  52 2.16  53 2.16  54 2.16  56 2.16
  23  0.750  0.250  0.250-  26 1.84  27 1.84  52 1.84  55 1.84
  24  0.500  0.500  0.500-  40 1.84  46 1.84  53 1.84  25 1.84
  25  0.376  0.376  0.376-  24 1.84  19 2.16  21 2.16   2 2.16  40 3.00  46 3.00  53 3.00  51 3.03
                            27 3.03  50 3.03  42 3.03  52 3.03  36 3.03  32 3.07  29 3.07  30 3.07
  26  0.874  0.126  0.126-  23 1.84   4 2.16  14 2.16   1 2.16  27 3.00  52 3.00  55 3.00  45 3.03
                            49 3.03  29 3.03  41 3.03  54 3.03  30 3.03  43 3.07  28 3.07  47 3.07
  27  0.626  0.126  0.374-  23 1.84   3 2.16  16 2.16   2 2.16  26 3.00  52 3.00  55 3.00  25 3.03
                            49 3.03  32 3.03  46 3.03  54 3.03  48 3.03  42 3.07  44 3.07  31 3.07
  28  0.126  0.874  0.126-   5 1.84   4 2.16   1 2.16  15 2.16  31 3.00  50 3.00  51 3.00  37 3.03
                            49 3.03  29 3.03  33 3.03  32 3.03  56 3.03  26 3.07  43 3.07  47 3.07
  29  0.124  0.124  0.376-   6 1.84   4 2.16   2 2.16  21 2.16  38 3.00  48 3.00  49 3.00  31 3.03
                            55 3.03  42 3.03  26 3.03  36 3.03  28 3.03  30 3.07  32 3.07  25 3.07
  30  0.124  0.376  0.124-  12 1.84   4 2.16  19 2.16  21 2.16  37 3.00  41 3.00  56 3.00  43 3.03
                            51 3.03  55 3.03  39 3.03  50 3.03  26 3.03  29 3.07  32 3.07  25 3.07
  31  0.374  0.874  0.374-   5 1.84   3 2.16   2 2.16  13 2.16  28 3.00  50 3.00  51 3.00  29 3.03
                            53 3.03  32 3.03  38 3.03  40 3.03  54 3.03  42 3.07  44 3.07  27 3.07
  32  0.376  0.124  0.124-  18 1.84   4 2.16   2 2.16  19 2.16  33 3.00  45 3.00  54 3.00  39 3.03
                            43 3.03  31 3.03  27 3.03  52 3.03  28 3.03  30 3.07  29 3.07  25 3.07
  33  0.376  0.876  0.876-  18 1.84  13 2.16  15 2.16   8 2.16  32 3.00  45 3.00  54 3.00  35 3.03
                            43 3.03  44 3.03  42 3.03  50 3.03  28 3.03  37 3.07  38 3.07  40 3.07
  34  0.874  0.626  0.626-  17 1.84  10 2.16   7 2.16  20 2.16  35 3.00  44 3.00  47 3.00  37 3.03
                            41 3.03  49 3.03  53 3.03  46 3.03  38 3.03  51 3.07  36 3.07  55 3.07
  35  0.626  0.626  0.874-  17 1.84   9 2.16   8 2.16  22 2.16  34 3.00  44 3.00  47 3.00  33 3.03
                            41 3.03  46 3.03  40 3.03  54 3.03  56 3.03  50 3.07  52 3.07  39 3.07
  36  0.126  0.374  0.626-  11 1.84  10 2.16   7 2.16  21 2.16  39 3.00  42 3.00  43 3.00  25 3.03
                            41 3.03  29 3.03  37 3.03  40 3.03  48 3.03  34 3.07  51 3.07  55 3.07
  37  0.124  0.624  0.876-  12 1.84  10 2.16   8 2.16  15 2.16  30 3.00  41 3.00  56 3.00  47 3.03
                            39 3.03  34 3.03  36 3.03  50 3.03  28 3.03  38 3.07  40 3.07  33 3.07
  38  0.124  0.876  0.624-   6 1.84  10 2.16  13 2.16  15 2.16  29 3.00  48 3.00  49 3.00  47 3.03
                            31 3.03  43 3.03  51 3.03  42 3.03  34 3.03  37 3.07  40 3.07  33 3.07
  39  0.374  0.374  0.874-  11 1.84   9 2.16   8 2.16  19 2.16  36 3.00  42 3.00  43 3.00  37 3.03
                            45 3.03  30 3.03  32 3.03  40 3.03  46 3.03  35 3.07  50 3.07  52 3.07
  40  0.376  0.624  0.624-  24 1.84  10 2.16  13 2.16   8 2.16  25 3.00  46 3.00  53 3.00  39 3.03
                            31 3.03  51 3.03  35 3.03  44 3.03  36 3.03  38 3.07  37 3.07  33 3.07
  41  0.876  0.376  0.876-  12 1.84   9 2.16   7 2.16  14 2.16  30 3.00  37 3.00  56 3.00  43 3.03
                            35 3.03  34 3.03  26 3.03  52 3.03  36 3.03  48 3.07  45 3.07  46 3.07
  42  0.374  0.126  0.626-  11 1.84   2 2.16  13 2.16  16 2.16  36 3.00  39 3.00  43 3.00  25 3.03
                            29 3.03  33 3.03  45 3.03  38 3.03  46 3.03  27 3.07  44 3.07  31 3.07
  43  0.126  0.126  0.874-  11 1.84   4 2.16  14 2.16  15 2.16  36 3.00  39 3.00  42 3.00  41 3.03
                            33 3.03  30 3.03  32 3.03  38 3.03  48 3.03  28 3.07  26 3.07  47 3.07
  44  0.626  0.874  0.626-  17 1.84  13 2.16  16 2.16   3 2.16  34 3.00  35 3.00  47 3.00  45 3.03
                            33 3.03  49 3.03  53 3.03  40 3.03  48 3.03  42 3.07  27 3.07  31 3.07
  45  0.624  0.124  0.876-  18 1.84  14 2.16  16 2.16   9 2.16  32 3.00  33 3.00  54 3.00  47 3.03
                            39 3.03  44 3.03  26 3.03  52 3.03  42 3.03  46 3.07  48 3.07  41 3.07
  46  0.624  0.376  0.624-  24 1.84   9 2.16  16 2.16   7 2.16  25 3.00  40 3.00  53 3.00  39 3.03
                            27 3.03  35 3.03  55 3.03  34 3.03  42 3.03  45 3.07  48 3.07  41 3.07
  47  0.874  0.874  0.874-  17 1.84  14 2.16  15 2.16   1 2.16  34 3.00  35 3.00  44 3.00  37 3.03
                            45 3.03  38 3.03  48 3.03  54 3.03  56 3.03  43 3.07  26 3.07  28 3.07
  48  0.876  0.124  0.624-   6 1.84   7 2.16  14 2.16  16 2.16  29 3.00  38 3.00  49 3.00  43 3.03
                            47 3.03  27 3.03  55 3.03  44 3.03  36 3.03  46 3.07  45 3.07  41 3.07
  49  0.876  0.876  0.376-   6 1.84   3 2.16   1 2.16  20 2.16  29 3.00  38 3.00  48 3.00  27 3.03
                            51 3.03  28 3.03  44 3.03  26 3.03  34 3.03  53 3.07  54 3.07  56 3.07
  50  0.374  0.626  0.126-   5 1.84   8 2.16  19 2.16  22 2.16  28 3.00  31 3.00  51 3.00  33 3.03
                            37 3.03  25 3.03  53 3.03  30 3.03  54 3.03  35 3.07  52 3.07  39 3.07
  51  0.126  0.626  0.374-   5 1.84  10 2.16  20 2.16  21 2.16  28 3.00  31 3.00  50 3.00  49 3.03
                            25 3.03  40 3.03  30 3.03  38 3.03  56 3.03  36 3.07  34 3.07  55 3.07
  52  0.626  0.374  0.126-  23 1.84  19 2.16  22 2.16   9 2.16  26 3.00  27 3.00  55 3.00  41 3.03
                            45 3.03  53 3.03  25 3.03  32 3.03  56 3.03  50 3.07  35 3.07  39 3.07
  53  0.624  0.624  0.376-  24 1.84  20 2.16  22 2.16   3 2.16  25 3.00  40 3.00  46 3.00  31 3.03
                            55 3.03  34 3.03  50 3.03  52 3.03  44 3.03  54 3.07  56 3.07  49 3.07
  54  0.624  0.876  0.124-  18 1.84   3 2.16   1 2.16  22 2.16  32 3.00  33 3.00  45 3.00  31 3.03
                            35 3.03  27 3.03  47 3.03  26 3.03  50 3.03  53 3.07  56 3.07  49 3.07
  55  0.874  0.374  0.374-  23 1.84  20 2.16  21 2.16   7 2.16  26 3.00  27 3.00  52 3.00  29 3.03
                            53 3.03  48 3.03  30 3.03  46 3.03  56 3.03  34 3.07  36 3.07  51 3.07
  56  0.876  0.624  0.124-  12 1.84   1 2.16  20 2.16  22 2.16  30 3.00  37 3.00  41 3.00  35 3.03
                            47 3.03  51 3.03  55 3.03  52 3.03  28 3.03  54 3.07  53 3.07  49 3.07
 
  LATTYP: Found a simple cubic cell.
 ALAT       =     8.5798003204
  
  Lattice vectors:
  
 A1 = (   8.5798003204,   0.0000000000,   0.0000000000)
 A2 = (   0.0000000000,   8.5798003204,   0.0000000000)
 A3 = (   0.0000000000,   0.0000000000,   8.5798003204)


Analysis of symmetry for initial positions (statically):
=====================================================================
 Subroutine PRICEL returns following result:
 
  LATTYP: Found a face centered cubic cell.
 ALAT       =     8.5798003204
  
  Lattice vectors:
  
 A1 = (   4.2899001602,   4.2899001602,   0.0000000000)
 A2 = (   4.2899001602,   0.0000000000,  -4.2899001602)
 A3 = (   0.0000000000,   4.2899001602,  -4.2899001602)
 
   4 primitive cells build up your supercell.
 

 Routine SETGRP: Setting up the symmetry group for a 
 simple cubic supercell.


 Subroutine GETGRP returns: Found 48 space group operations
 (whereof 24 operations were pure point group operations)
 out of a pool of 48 trial point group operations.


The static configuration has the point symmetry T_d .
 The point group associated with its full space group is O_h .


Analysis of symmetry for dynamics (positions and initial velocities):
=====================================================================
 Subroutine PRICEL returns following result:
 
  LATTYP: Found a face centered cubic cell.
 ALAT       =     8.5798003204
  
  Lattice vectors:
  
 A1 = (   4.2899001602,   4.2899001602,   0.0000000000)
 A2 = (   4.2899001602,   0.0000000000,  -4.2899001602)
 A3 = (   0.0000000000,   4.2899001602,  -4.2899001602)
 
   4 primitive cells build up your supercell.
 

 Routine SETGRP: Setting up the symmetry group for a 
 simple cubic supercell.


 Subroutine GETGRP returns: Found 48 space group operations
 (whereof 24 operations were pure point group operations)
 out of a pool of 48 trial point group operations.


The dynamic configuration has the point symmetry T_d .
 The point group associated with its full space group is O_h .


 Subroutine INISYM returns: Found 48 space group operations
 (whereof 24 operations are pure point group operations),
 and found     4 'primitive' translations

 
 
 KPOINTS: Automatic mesh                          

Automatic generation of k-mesh.
 generate k-points for:    5    5    5
Space group operators:
 irot       det(A)        alpha          n_x          n_y          n_z        tau_x        tau_y        tau_z
    1     1.000000     0.000001     1.000000     0.000000     0.000000     0.000000     0.000000    -0.000000
    2     1.000000   120.000000    -0.577350    -0.577350    -0.577350     0.000000     0.000000    -0.000000
    3     1.000000   120.000000     0.577350     0.577350     0.577350     0.000000     0.000000    -0.000000
    4    -1.000000    90.000000     0.000000     0.000000    -1.000000     0.000000     0.000000    -0.000000
    5    -1.000000   180.000000     0.000000    -0.707107    -0.707107     0.000000     0.000000    -0.000000
    6    -1.000000    90.000000     0.000000     1.000000     0.000000     0.000000     0.000000    -0.000000
    7     1.000000   180.000000    -0.000000    -0.000000     1.000000     0.000000     0.000000    -0.000000
    8     1.000000   120.000000    -0.577350     0.577350     0.577350     0.000000     0.000000    -0.000000
    9     1.000000   120.000000    -0.577350     0.577350    -0.577350     0.000000     0.000000    -0.000000
   10    -1.000000    90.000000    -0.000000    -0.000000     1.000000     0.000000     0.000000    -0.000000
   11    -1.000000    90.000000    -1.000000     0.000000    -0.000000     0.000000     0.000000    -0.000000
   12    -1.000000   180.000000    -0.707107     0.000000    -0.707107     0.000000     0.000000    -0.000000
   13     1.000000   120.000000     0.577350    -0.577350     0.577350     0.000000     0.000000    -0.000000
   14     1.000000   120.000000    -0.577350    -0.577350     0.577350     0.000000     0.000000    -0.000000
   15     1.000000   180.000000     1.000000     0.000000     0.000000     0.000000     0.000000    -0.000000
   16    -1.000000    90.000000    -0.000000    -1.000000     0.000000     0.000000     0.000000    -0.000000
   17    -1.000000   180.000000     0.707107     0.707107     0.000000     0.000000     0.000000    -0.000000
   18    -1.000000    90.000000     1.000000    -0.000000    -0.000000     0.000000     0.000000    -0.000000
   19     1.000000   120.000000     0.577350    -0.577350    -0.577350     0.000000     0.000000    -0.000000
   20     1.000000   180.000000    -0.000000     1.000000     0.000000     0.000000     0.000000    -0.000000
   21     1.000000   120.000000     0.577350     0.577350    -0.577350     0.000000     0.000000    -0.000000
   22    -1.000000   179.999999    -0.000000    -0.707107     0.707107     0.000000     0.000000    -0.000000
   23    -1.000000   180.000000     0.707107    -0.707107     0.000000     0.000000     0.000000    -0.000000
   24    -1.000000   179.999999     0.707107    -0.000000    -0.707107     0.000000     0.000000    -0.000000
   25    -1.000000     0.000001     1.000000     0.000000     0.000000     0.750000     0.750000    -0.750000
   26    -1.000000   120.000000    -0.577350    -0.577350    -0.577350     0.750000     0.750000    -0.750000
   27    -1.000000   120.000000     0.577350     0.577350     0.577350     0.750000     0.750000    -0.750000
   28     1.000000    90.000000     0.000000     0.000000    -1.000000     0.750000     0.750000    -0.750000
   29     1.000000   180.000000     0.000000    -0.707107    -0.707107     0.750000     0.750000    -0.750000
   30     1.000000    90.000000     0.000000     1.000000     0.000000     0.750000     0.750000    -0.750000
   31    -1.000000   180.000000    -0.000000    -0.000000     1.000000     0.750000     0.750000    -0.750000
   32    -1.000000   120.000000    -0.577350     0.577350     0.577350     0.750000     0.750000    -0.750000
   33    -1.000000   120.000000    -0.577350     0.577350    -0.577350     0.750000     0.750000    -0.750000
   34     1.000000    90.000000    -0.000000    -0.000000     1.000000     0.750000     0.750000    -0.750000
   35     1.000000    90.000000    -1.000000     0.000000    -0.000000     0.750000     0.750000    -0.750000
   36     1.000000   180.000000    -0.707107     0.000000    -0.707107     0.750000     0.750000    -0.750000
   37    -1.000000   120.000000     0.577350    -0.577350     0.577350     0.750000     0.750000    -0.750000
   38    -1.000000   120.000000    -0.577350    -0.577350     0.577350     0.750000     0.750000    -0.750000
   39    -1.000000   180.000000     1.000000     0.000000     0.000000     0.750000     0.750000    -0.750000
   40     1.000000    90.000000    -0.000000    -1.000000     0.000000     0.750000     0.750000    -0.750000
   41     1.000000   180.000000     0.707107     0.707107     0.000000     0.750000     0.750000    -0.750000
   42     1.000000    90.000000     1.000000    -0.000000    -0.000000     0.750000     0.750000    -0.750000
   43    -1.000000   120.000000     0.577350    -0.577350    -0.577350     0.750000     0.750000    -0.750000
   44    -1.000000   180.000000    -0.000000     1.000000     0.000000     0.750000     0.750000    -0.750000
   45    -1.000000   120.000000     0.577350     0.577350    -0.577350     0.750000     0.750000    -0.750000
   46     1.000000   179.999999    -0.000000    -0.707107     0.707107     0.750000     0.750000    -0.750000
   47     1.000000   180.000000     0.707107    -0.707107     0.000000     0.750000     0.750000    -0.750000
   48     1.000000   179.999999     0.707107    -0.000000    -0.707107     0.750000     0.750000    -0.750000
 
 Subroutine IBZKPT returns following result:
 ===========================================
 
 Found     10 irreducible k-points:
 
 Following reciprocal coordinates:
            Coordinates               Weight
  0.000000  0.000000  0.000000      1.000000
  0.200000  0.000000  0.000000      6.000000
  0.400000  0.000000  0.000000      6.000000
  0.200000  0.200000  0.000000     12.000000
  0.400000  0.200000  0.000000     24.000000
  0.400000  0.400000  0.000000     12.000000
  0.200000  0.200000  0.200000      8.000000
  0.400000  0.200000  0.200000     24.000000
  0.400000  0.400000  0.200000     24.000000
  0.400000  0.400000  0.400000      8.000000
 
 Following cartesian coordinates:
            Coordinates               Weight
  0.000000  0.000000  0.000000      1.000000
  0.023311  0.000000  0.000000      6.000000
  0.046621  0.000000  0.000000      6.000000
  0.023311  0.023311  0.000000     12.000000
  0.046621  0.023311  0.000000     24.000000
  0.046621  0.046621  0.000000     12.000000
  0.023311  0.023311  0.023311      8.000000
  0.046621  0.023311  0.023311     24.000000
  0.046621  0.046621  0.023311     24.000000
  0.046621  0.046621  0.046621      8.000000
 


--------------------------------------------------------------------------------------------------------




 Dimension of arrays:
   k-points           NKPTS =     10   k-points in BZ     NKDIM =     10   number of bands    NBANDS=    156
   number of dos      NEDOS =    301   number of ions     NIONS =     56
   non local maximal  LDIM  =      4   non local SUM 2l+1 LMDIM =      8
   total plane-waves  NPLWV = 175616
   max r-space proj   IRMAX =   5750   max aug-charges    IRDMAX=   9495
   dimension x,y,z NGX =    56 NGY =   56 NGZ =   56
   dimension x,y,z NGXF=   112 NGYF=  112 NGZF=  112
   support grid    NGXF=   112 NGYF=  112 NGZF=  112
   ions per type =              24  32
   NGX,Y,Z   is equivalent  to a cutoff of  10.85, 10.85, 10.85 a.u.
   NGXF,Y,Z  is equivalent  to a cutoff of  21.70, 21.70, 21.70 a.u.

 SYSTEM =  unknown system                          
 POSCAR =  Si24 N32                                

 Startparameter for this run:
   NWRITE =      2    write-flag & timer
   PREC   = accura    normal or accurate (medium, high low for compatibility)
   ISTART =      0    job   : 0-new  1-cont  2-samecut
   ICHARG =      2    charge: 1-file 2-atom 10-const
   ISPIN  =      1    spin polarized calculation?
   LNONCOLLINEAR =      F non collinear calculations
   LSORBIT =      F    spin-orbit coupling
   INIWAV =      1    electr: 0-lowe 1-rand  2-diag
   LASPH  =      F    aspherical Exc in radial PAW
   METAGGA=      F    non-selfconsistent MetaGGA calc.

 Electronic Relaxation 1
   ENCUT  =  400.0 eV  29.40 Ry    5.42 a.u.  13.99 13.99 13.99*2*pi/ulx,y,z
   ENINI  =  400.0     initial cutoff
   ENAUG  =  627.1 eV  augmentation charge cutoff
   NELM   =     60;   NELMIN=  2; NELMDL= -5     # of ELM steps 
   EDIFF  = 0.1E-03   stopping-criterion for ELM
   LREAL  =      T    real-space projection
   NLSPLINE    = F    spline interpolate recip. space projectors
   LCOMPAT=      F    compatible to vasp.4.4
   GGA_COMPAT  = T    GGA compatible to vasp.4.4-vasp.4.6
   LMAXPAW     = -100 max onsite density
   LMAXMIX     =    2 max onsite mixed and CHGCAR
   VOSKOWN=      0    Vosko Wilk Nusair interpolation
   ROPT   =   -0.00025  -0.00025
 Ionic relaxation
   EDIFFG = 0.1E-02   stopping-criterion for IOM
   NSW    =    100    number of steps for IOM
   NBLOCK =      1;   KBLOCK =    100    inner block; outer block 
   IBRION =      2    ionic relax: 0-MD 1-quasi-New 2-CG
   NFREE  =      1    steps in history (QN), initial steepest desc. (CG)
   ISIF   =      2    stress and relaxation
   IWAVPR =     11    prediction:  0-non 1-charg 2-wave 3-comb
   ISYM   =      2    0-nonsym 1-usesym 2-fastsym
   LCORR  =      T    Harris-Foulkes like correction to forces

   POTIM  = 0.5000    time-step for ionic-motion
   TEIN   =    0.0    initial temperature
   TEBEG  =    0.0;   TEEND  =   0.0 temperature during run
   SMASS  =  -3.00    Nose mass-parameter (am)
   estimated Nose-frequenzy (Omega)   =  0.10E-29 period in steps =****** mass=  -0.168E-26a.u.
   SCALEE = 1.0000    scale energy and forces
   NPACO  =    256;   APACO  = 16.0  distance and # of slots for P.C.
   PSTRESS=    0.0 pullay stress

  Mass of Ions in am
   POMASS =  14.00 28.09
  Ionic Valenz
   ZVAL   =   5.00  4.00
  Atomic Wigner-Seitz radii
   RWIGS  =  -1.00 -1.00
  virtual crystal weights 
   VCA    =   1.00  1.00
   NELECT =     248.0000    total number of electrons
   NUPDOWN=      -1.0000    fix difference up-down

 DOS related values:
   EMIN   =  10.00;   EMAX   =-10.00  energy-range for DOS
   EFERMI =   0.00
   ISMEAR =     2;   SIGMA  =   0.10  broadening in eV -4-tet -1-fermi 0-gaus

 Electronic relaxation 2 (details)
   IALGO  =     68    algorithm
   LDIAG  =      T    sub-space diagonalisation (order eigenvalues)
   LSUBROT=      F    optimize rotation matrix (better conditioning)
   TURBO    =      0    0=normal 1=particle mesh
   IRESTART =      0    0=no restart 2=restart with 2 vectors
   NREBOOT  =      0    no. of reboots
   NMIN     =      0    reboot dimension
   EREF     =   0.00    reference energy to select bands
   IMIX   =      4    mixing-type and parameters
     AMIX     =   0.40;   BMIX     =  1.00
     AMIX_MAG =   1.60;   BMIX_MAG =  1.00
     AMIN     =   0.10
     WC   =   100.;   INIMIX=   1;  MIXPRE=   1;  MAXMIX= -45

 Intra band minimization:
   WEIMIN = 0.0010     energy-eigenvalue tresh-hold
   EBREAK =  0.16E-06  absolut break condition
   DEPER  =   0.30     relativ break condition  

   TIME   =   0.40     timestep for ELM

  volume/ion in A,a.u.               =      11.28        76.11
  Fermi-wavevector in a.u.,A,eV,Ry     =   1.198804  2.265411 19.553357  1.437131
  Thomas-Fermi vector in A             =   2.334683
 
 Write flags
   LWAVE        =      F    write WAVECAR
   LDOWNSAMPLE  =      F    k-point downsampling of WAVECAR
   LCHARG       =      F    write CHGCAR
   LVTOT        =      F    write LOCPOT, total local potential
   LVHAR        =      F    write LOCPOT, Hartree potential only
   LELF         =      F    write electronic localiz. function (ELF)
   LORBIT       =      0    0 simple, 1 ext, 2 COOP (PROOUT), +10 PAW based schemes


 Dipole corrections
   LMONO  =      F    monopole corrections only (constant potential shift)
   LDIPOL =      F    correct potential (dipole corrections)
   IDIPOL =      0    1-x, 2-y, 3-z, 4-all directions 
   EPSILON=  1.0000000 bulk dielectric constant

 Exchange correlation treatment:
   GGA     =    --    GGA type
   LEXCH   =     8    internal setting for exchange type
   VOSKOWN=      0    Vosko Wilk Nusair interpolation
   LHFCALC =     F    Hartree Fock is set to
   LHFONE  =     F    Hartree Fock one center treatment
   AEXX    =    0.0000 exact exchange contribution

 Linear response parameters
   LEPSILON=     F    determine dielectric tensor
   LRPA    =     F    only Hartree local field effects (RPA)
   LNABLA  =     F    use nabla operator in PAW spheres
   LVEL    =     F    velocity operator in full k-point grid
   LINTERFAST=   F  fast interpolation
   KINTER  =     0    interpolate to denser k-point grid
   CSHIFT  =0.1000    complex shift for real part using Kramers Kronig
   OMEGAMAX=  -1.0    maximum frequency
   DEG_THRESHOLD= 0.2000000E-02 threshold for treating states as degnerate
   RTIME   =   -0.100 relaxation time in fs
  (WPLASMAI=    0.000 imaginary part of plasma frequency in eV, 0.658/RTIME)
   DFIELD  = 0.0000000 0.0000000 0.0000000 field for delta impulse in time
 
 Orbital magnetization related:
   ORBITALMAG=     F  switch on orbital magnetization
   LCHIMAG   =     F  perturbation theory with respect to B field
   DQ        =  0.001000  dq finite difference perturbation B field
   LLRAUG    =     F  two centre corrections for induced B field



--------------------------------------------------------------------------------------------------------


 conjugate gradient relaxation of ions
 charge density and potential will be updated during run
 non-spin polarized calculation
 RMM-DIIS sequential band-by-band and
  variant of blocked Davidson during initial phase
 perform sub-space diagonalisation
    before iterative eigenvector-optimisation
 modified Broyden-mixing scheme, WC =      100.0
 initial mixing is a Kerker type mixing with AMIX =  0.4000 and BMIX =      1.0000
 Hartree-type preconditioning will be used
 using additional bands           32
 real space projection scheme for non local part
 use partial core corrections
 calculate Harris-corrections to forces 
   (improved forces if not selfconsistent)
 use gradient corrections 
 use of overlap-Matrix (Vanderbilt PP)
 Methfessel and Paxton  Order N= 2 SIGMA  =   0.10


--------------------------------------------------------------------------------------------------------


  energy-cutoff  :      400.00
  volume of cell :      631.58
      direct lattice vectors                 reciprocal lattice vectors
     8.579800320  0.000000000  0.000000000     0.116552829 -0.000000000  0.000000000
     0.000000000  8.579800320  0.000000000    -0.000000000  0.116552829  0.000000000
     0.000000000  0.000000000  8.579800320    -0.000000000 -0.000000000  0.116552829

  length of vectors
     8.579800320  8.579800320  8.579800320     0.116552829  0.116552829  0.116552829


 
 k-points in units of 2pi/SCALE and weight: Automatic mesh                          
   0.00000000  0.00000000  0.00000000       0.008
   0.02331057  0.00000000  0.00000000       0.048
   0.04662113  0.00000000  0.00000000       0.048
   0.02331057  0.02331057  0.00000000       0.096
   0.04662113  0.02331057  0.00000000       0.192
   0.04662113  0.04662113  0.00000000       0.096
   0.02331057  0.02331057  0.02331057       0.064
   0.04662113  0.02331057  0.02331057       0.192
   0.04662113  0.04662113  0.02331057       0.192
   0.04662113  0.04662113  0.04662113       0.064
 
 k-points in reciprocal lattice and weights: Automatic mesh                          
   0.00000000  0.00000000  0.00000000       0.008
   0.20000000  0.00000000  0.00000000       0.048
   0.40000000  0.00000000  0.00000000       0.048
   0.20000000  0.20000000  0.00000000       0.096
   0.40000000  0.20000000  0.00000000       0.192
   0.40000000  0.40000000  0.00000000       0.096
   0.20000000  0.20000000  0.20000000       0.064
   0.40000000  0.20000000  0.20000000       0.192
   0.40000000  0.40000000  0.20000000       0.192
   0.40000000  0.40000000  0.40000000       0.064
 
 position of ions in fractional coordinates (direct lattice) 
   0.87500000  0.87500000  0.12500000
   0.37500000  0.12500000  0.37500000
   0.62500000  0.87500000  0.37500000
   0.12500000  0.12500000  0.12500000
   0.25000000  0.75000000  0.25000000
   0.00000000  0.00000000  0.50000000
   0.87500000  0.37500000  0.62500000
   0.37500000  0.62500000  0.87500000
   0.62500000  0.37500000  0.87500000
   0.12500000  0.62500000  0.62500000
   0.25000000  0.25000000  0.75000000
   0.00000000  0.50000000  0.00000000
   0.37500000  0.87500000  0.62500000
   0.87500000  0.12500000  0.87500000
   0.12500000  0.87500000  0.87500000
   0.62500000  0.12500000  0.62500000
   0.75000000  0.75000000  0.75000000
   0.50000000  0.00000000  0.00000000
   0.37500000  0.37500000  0.12500000
   0.87500000  0.62500000  0.37500000
   0.12500000  0.37500000  0.37500000
   0.62500000  0.62500000  0.12500000
   0.75000000  0.25000000  0.25000000
   0.50000000  0.50000000  0.50000000
   0.37630293  0.37630293  0.37630293
   0.87369707  0.12630293  0.12630293
   0.62630293  0.12630293  0.37369707
   0.12630293  0.87369707  0.12630293
   0.12369707  0.12369707  0.37630293
   0.12369707  0.37630293  0.12369707
   0.37369707  0.87369707  0.37369707
   0.37630293  0.12369707  0.12369707
   0.37630293  0.87630293  0.87630293
   0.87369707  0.62630293  0.62630293
   0.62630293  0.62630293  0.87369707
   0.12630293  0.37369707  0.62630293
   0.12369707  0.62369707  0.87630293
   0.12369707  0.87630293  0.62369707
   0.37369707  0.37369707  0.87369707
   0.37630293  0.62369707  0.62369707
   0.87630293  0.37630293  0.87630293
   0.37369707  0.12630293  0.62630293
   0.12630293  0.12630293  0.87369707
   0.62630293  0.87369707  0.62630293
   0.62369707  0.12369707  0.87630293
   0.62369707  0.37630293  0.62369707
   0.87369707  0.87369707  0.87369707
   0.87630293  0.12369707  0.62369707
   0.87630293  0.87630293  0.37630293
   0.37369707  0.62630293  0.12630293
   0.12630293  0.62630293  0.37369707
   0.62630293  0.37369707  0.12630293
   0.62369707  0.62369707  0.37630293
   0.62369707  0.87630293  0.12369707
   0.87369707  0.37369707  0.37369707
   0.87630293  0.62369707  0.12369707
 
 position of ions in cartesian coordinates  (Angst):
   7.50732528  7.50732528  1.07247504
   3.21742512  1.07247504  3.21742512
   5.36237520  7.50732528  3.21742512
   1.07247504  1.07247504  1.07247504
   2.14495008  6.43485024  2.14495008
   0.00000000  0.00000000  4.28990016
   7.50732528  3.21742512  5.36237520
   3.21742512  5.36237520  7.50732528
   5.36237520  3.21742512  7.50732528
   1.07247504  5.36237520  5.36237520
   2.14495008  2.14495008  6.43485024
   0.00000000  4.28990016  0.00000000
   3.21742512  7.50732528  5.36237520
   7.50732528  1.07247504  7.50732528
   1.07247504  7.50732528  7.50732528
   5.36237520  1.07247504  5.36237520
   6.43485024  6.43485024  6.43485024
   4.28990016  0.00000000  0.00000000
   3.21742512  3.21742512  1.07247504
   7.50732528  5.36237520  3.21742512
   1.07247504  3.21742512  3.21742512
   5.36237520  5.36237520  1.07247504
   6.43485024  2.14495008  2.14495008
   4.28990016  4.28990016  4.28990016
   3.22860403  3.22860403  3.22860403
   7.49614637  1.08365395  1.08365395
   5.37355411  1.08365395  3.20624621
   1.08365395  7.49614637  1.08365395
   1.06129613  1.06129613  3.22860403
   1.06129613  3.22860403  1.06129613
   3.20624621  7.49614637  3.20624621
   3.22860403  1.06129613  1.06129613
   3.22860403  7.51850419  7.51850419
   7.49614637  5.37355411  5.37355411
   5.37355411  5.37355411  7.49614637
   1.08365395  3.20624621  5.37355411
   1.06129613  5.35119629  7.51850419
   1.06129613  7.51850419  5.35119629
   3.20624621  3.20624621  7.49614637
   3.22860403  5.35119629  5.35119629
   7.51850419  3.22860403  7.51850419
   3.20624621  1.08365395  5.37355411
   1.08365395  1.08365395  7.49614637
   5.37355411  7.49614637  5.37355411
   5.35119629  1.06129613  7.51850419
   5.35119629  3.22860403  5.35119629
   7.49614637  7.49614637  7.49614637
   7.51850419  1.06129613  5.35119629
   7.51850419  7.51850419  3.22860403
   3.20624621  5.37355411  1.08365395
   1.08365395  5.37355411  3.20624621
   5.37355411  3.20624621  1.08365395
   5.35119629  5.35119629  3.22860403
   5.35119629  7.51850419  1.06129613
   7.49614637  3.20624621  3.20624621
   7.51850419  5.35119629  1.06129613
 


--------------------------------------------------------------------------------------------------------


 k-point  1 :   0.0000 0.0000 0.0000  plane waves:   11459
 k-point  2 :   0.2000 0.0000 0.0000  plane waves:   11440
 k-point  3 :   0.4000 0.0000 0.0000  plane waves:   11476
 k-point  4 :   0.2000 0.2000 0.0000  plane waves:   11446
 k-point  5 :   0.4000 0.2000 0.0000  plane waves:   11453
 k-point  6 :   0.4000 0.4000 0.0000  plane waves:   11484
 k-point  7 :   0.2000 0.2000 0.2000  plane waves:   11482
 k-point  8 :   0.4000 0.2000 0.2000  plane waves:   11486
 k-point  9 :   0.4000 0.4000 0.2000  plane waves:   11494
 k-point 10 :   0.4000 0.4000 0.4000  plane waves:   11479

 maximum and minimum number of plane-waves per node :      2894     2828

 maximum number of plane-waves:     11494
 maximum index in each direction: 
   IXMAX=   13   IYMAX=   13   IZMAX=   13
   IXMIN=  -14   IYMIN=  -14   IZMIN=  -14


 real space projection operators:
  total allocation   :      14183.50 KBytes
  max/ min on nodes  :       3565.00       3526.75


 parallel 3D FFT for wavefunctions:
    minimum data exchange during FFTs selected (reduces bandwidth)
 parallel 3D FFT for charge:
    minimum data exchange during FFTs selected (reduces bandwidth)


 total amount of memory used by VASP MPI-rank0    69491. kBytes
=======================================================================

   base      :      30000. kBytes
   nonlr-proj:       9750. kBytes
   fftplans  :       4305. kBytes
   grid      :       6748. kBytes
   one-center:         43. kBytes
   wavefun   :      18645. kBytes
 
     INWAV:  cpu time    0.0001: real time    0.0004
 Broyden mixing: mesh for mixing (old mesh)
   NGX = 27   NGY = 27   NGZ = 27
  (NGX  =112   NGY  =112   NGZ  =112)
  gives a total of  19683 points

 initial charge density was supplied:
 charge density of overlapping atoms calculated
 number of electron     248.0000000 magnetization 
 keeping initial charge density in first step


--------------------------------------------------------------------------------------------------------


 Maximum index for non-local projection operator         1393
 Maximum index for augmentation-charges          626 (set IRDMAX)


--------------------------------------------------------------------------------------------------------


 First call to EWALD:  gamma=   0.207
 Maximum number of real-space cells 3x 3x 3
 Maximum number of reciprocal cells 3x 3x 3

    FEWALD:  cpu time    0.0028: real time    0.0028


--------------------------------------- Iteration      1(   1)  ---------------------------------------


    POTLOK:  cpu time    0.0728: real time    0.3210
    SETDIJ:  cpu time    0.0073: real time    0.0073
     EDDAV:  cpu time    6.7459: real time    6.7656
       DOS:  cpu time    0.0016: real time    0.0016
    --------------------------------------------
      LOOP:  cpu time    6.8276: real time    7.0956

 eigenvalue-minimisations  :  3120
 total energy-change (2. order) : 0.8715276E+03  (-0.9862724E+04)
 number of electron     248.0000000 magnetization 
 augmentation part      248.0000000 magnetization 

 Free energy of the ion-electron system (eV)
  ---------------------------------------------------
  alpha Z        PSCENC =       308.82396720
  Ewald energy   TEWEN  =     -9694.94724655
  -Hartree energ DENC   =     -1517.94840913
  -exchange      EXHF   =         0.00000000
  -V(xc)+E(xc)   XCENC  =       195.14231063
  PAW double counting   =      7738.34714636    -7203.94574617
  entropy T*S    EENTRO =        -0.00340972
  eigenvalues    EBANDS =      1400.55509182
  atomic energy  EATOM  =      9645.50393724
  Solvation  Ediel_sol  =         0.00000000
  ---------------------------------------------------
  free energy    TOTEN  =       871.52764168 eV

  energy without entropy =      871.53105140  energy(sigma->0) =      871.52849411


--------------------------------------------------------------------------------------------------------




--------------------------------------- Iteration      1(   2)  ---------------------------------------


     EDDAV:  cpu time    8.0324: real time    8.0380
       DOS:  cpu time    0.0018: real time    0.0018
    --------------------------------------------
      LOOP:  cpu time    8.0342: real time    8.0398

 eigenvalue-minimisations  :  3896
 total energy-change (2. order) :-0.1119666E+04  (-0.1074250E+04)
 number of electron     248.0000000 magnetization 
 augmentation part      248.0000000 magnetization 

 Free energy of the ion-electron system (eV)
  ---------------------------------------------------
  alpha Z        PSCENC =       308.82396720
  Ewald energy   TEWEN  =     -9694.94724655
  -Hartree energ DENC   =     -1517.94840913
  -exchange      EXHF   =         0.00000000
  -V(xc)+E(xc)   XCENC  =       195.14231063
  PAW double counting   =      7738.34714636    -7203.94574617
  entropy T*S    EENTRO =        -0.01416616
  eigenvalues    EBANDS =       280.89937910
  atomic energy  EATOM  =      9645.50393724
  Solvation  Ediel_sol  =         0.00000000
  ---------------------------------------------------
  free energy    TOTEN  =      -248.13882748 eV

  energy without entropy =     -248.12466132  energy(sigma->0) =     -248.13528594


--------------------------------------------------------------------------------------------------------




--------------------------------------- Iteration      1(   3)  ---------------------------------------


     EDDAV:  cpu time    8.0646: real time    8.0843
       DOS:  cpu time    0.0017: real time    0.0017
    --------------------------------------------
      LOOP:  cpu time    8.0663: real time    8.0860

 eigenvalue-minimisations  :  3920
 total energy-change (2. order) :-0.1051391E+03  (-0.1009800E+03)
 number of electron     248.0000000 magnetization 
 augmentation part      248.0000000 magnetization 

 Free energy of the ion-electron system (eV)
  ---------------------------------------------------
  alpha Z        PSCENC =       308.82396720
  Ewald energy   TEWEN  =     -9694.94724655
  -Hartree energ DENC   =     -1517.94840913
  -exchange      EXHF   =         0.00000000
  -V(xc)+E(xc)   XCENC  =       195.14231063
  PAW double counting   =      7738.34714636    -7203.94574617
  entropy T*S    EENTRO =        -0.00193305
  eigenvalues    EBANDS =       175.74803183
  atomic energy  EATOM  =      9645.50393724
  Solvation  Ediel_sol  =         0.00000000
  ---------------------------------------------------
  free energy    TOTEN  =      -353.27794163 eV

  energy without entropy =     -353.27600859  energy(sigma->0) =     -353.27745837


--------------------------------------------------------------------------------------------------------




--------------------------------------- Iteration      1(   4)  ---------------------------------------


     EDDAV:  cpu time    8.1696: real time    8.1715
       DOS:  cpu time    0.0018: real time    0.0018
    --------------------------------------------
      LOOP:  cpu time    8.1714: real time    8.1734

 eigenvalue-minimisations  :  3984
 total energy-change (2. order) :-0.3789667E+01  (-0.3672282E+01)
 number of electron     248.0000000 magnetization 
 augmentation part      248.0000000 magnetization 

 Free energy of the ion-electron system (eV)
  ---------------------------------------------------
  alpha Z        PSCENC =       308.82396720
  Ewald energy   TEWEN  =     -9694.94724655
  -Hartree energ DENC   =     -1517.94840913
  -exchange      EXHF   =         0.00000000
  -V(xc)+E(xc)   XCENC  =       195.14231063
  PAW double counting   =      7738.34714636    -7203.94574617
  entropy T*S    EENTRO =        -0.00686619
  eigenvalues    EBANDS =       171.96329803
  atomic energy  EATOM  =      9645.50393724
  Solvation  Ediel_sol  =         0.00000000
  ---------------------------------------------------
  free energy    TOTEN  =      -357.06760858 eV

  energy without entropy =     -357.06074239  energy(sigma->0) =     -357.06589203


--------------------------------------------------------------------------------------------------------




--------------------------------------- Iteration      1(   5)  ---------------------------------------


     EDDAV:  cpu time    7.9898: real time    7.9915
       DOS:  cpu time    0.0017: real time    0.0017
    CHARGE:  cpu time    0.2842: real time    0.2842
    MIXING:  cpu time    0.0067: real time    0.0197
    --------------------------------------------
      LOOP:  cpu time    8.2826: real time    8.2972

 eigenvalue-minimisations  :  3888
 total energy-change (2. order) :-0.1099091E+00  (-0.1089128E+00)
 number of electron     248.0000237 magnetization 
 augmentation part       -1.2138177 magnetization 

 Broyden mixing:
  rms(total) = 0.36382E+01    rms(broyden)= 0.36373E+01
  rms(prec ) = 0.49959E+01
  weight for this iteration     100.00

 Free energy of the ion-electron system (eV)
  ---------------------------------------------------
  alpha Z        PSCENC =       308.82396720
  Ewald energy   TEWEN  =     -9694.94724655
  -Hartree energ DENC   =     -1517.94840913
  -exchange      EXHF   =         0.00000000
  -V(xc)+E(xc)   XCENC  =       195.14231063
  PAW double counting   =      7738.34714636    -7203.94574617
  entropy T*S    EENTRO =        -0.00691957
  eigenvalues    EBANDS =       171.85344233
  atomic energy  EATOM  =      9645.50393724
  Solvation  Ediel_sol  =         0.00000000
  ---------------------------------------------------
  free energy    TOTEN  =      -357.17751766 eV

  energy without entropy =     -357.17059809  energy(sigma->0) =     -357.17578777


--------------------------------------------------------------------------------------------------------




--------------------------------------- Iteration      1(   6)  ---------------------------------------


    POTLOK:  cpu time    0.0652: real time    0.0671
    SETDIJ:  cpu time    0.0072: real time    0.0072
    EDDIAG:  cpu time    0.7875: real time    0.7875
  RMM-DIIS:  cpu time    4.2536: real time    4.2535
    ORTHCH:  cpu time    0.1116: real time    0.1116
       DOS:  cpu time    0.0018: real time    0.0018
    CHARGE:  cpu time    0.2843: real time    0.2843
    MIXING:  cpu time    0.0018: real time    0.0018
    --------------------------------------------
      LOOP:  cpu time    5.5129: real time    5.5147

 eigenvalue-minimisations  :  3124
 total energy-change (2. order) : 0.2605414E+02  (-0.1520837E+02)
 number of electron     248.0000159 magnetization 
 augmentation part       -3.9273058 magnetization 

 Broyden mixing:
  rms(total) = 0.16447E+01    rms(broyden)= 0.16435E+01
  rms(prec ) = 0.17474E+01
  weight for this iteration     100.00

 eigenvalues of (default mixing * dielectric matrix)
  average eigenvalue GAMMA=   0.9581
  0.9581

 Free energy of the ion-electron system (eV)
  ---------------------------------------------------
  alpha Z        PSCENC =       308.82396720
  Ewald energy   TEWEN  =     -9694.94724655
  -Hartree energ DENC   =     -1784.04342229
  -exchange      EXHF   =         0.00000000
  -V(xc)+E(xc)   XCENC  =       212.73566161
  PAW double counting   =     12757.61867590   -12224.67545307
  entropy T*S    EENTRO =         0.01773681
  eigenvalues    EBANDS =       447.84276669
  atomic energy  EATOM  =      9645.50393724
  Solvation  Ediel_sol  =         0.00000000
  ---------------------------------------------------
  free energy    TOTEN  =      -331.12337647 eV

  energy without entropy =     -331.14111328  energy(sigma->0) =     -331.12781067


--------------------------------------------------------------------------------------------------------




--------------------------------------- Iteration      1(   7)  ---------------------------------------


    POTLOK:  cpu time    0.0646: real time    0.0663
    SETDIJ:  cpu time    0.0072: real time    0.0072
    EDDIAG:  cpu time    0.7834: real time    0.7834
  RMM-DIIS:  cpu time    4.4768: real time    4.4770
    ORTHCH:  cpu time    0.1119: real time    0.1119
       DOS:  cpu time    0.0018: real time    0.0018
    CHARGE:  cpu time    0.2888: real time    0.2888
    MIXING:  cpu time    0.0031: real time    0.0031
    --------------------------------------------
      LOOP:  cpu time    5.7376: real time    5.7396

 eigenvalue-minimisations  :  3302
 total energy-change (2. order) : 0.6534409E+00  (-0.4205677E+00)
 number of electron     248.0000157 magnetization 
 augmentation part       -4.0087450 magnetization 

 Broyden mixing:
  rms(total) = 0.94690E+00    rms(broyden)= 0.94681E+00
  rms(prec ) = 0.10196E+01
  weight for this iteration     100.00

 eigenvalues of (default mixing * dielectric matrix)
  average eigenvalue GAMMA=   1.5421
  1.0394  2.0447

 Free energy of the ion-electron system (eV)
  ---------------------------------------------------
  alpha Z        PSCENC =       308.82396720
  Ewald energy   TEWEN  =     -9694.94724655
  -Hartree energ DENC   =     -1764.76631831
  -exchange      EXHF   =         0.00000000
  -V(xc)+E(xc)   XCENC  =       211.77382595
  PAW double counting   =     16243.40929855   -15710.58983804
  entropy T*S    EENTRO =         0.01845564
  eigenvalues    EBANDS =       430.30398277
  atomic energy  EATOM  =      9645.50393724
  Solvation  Ediel_sol  =         0.00000000
  ---------------------------------------------------
  free energy    TOTEN  =      -330.46993556 eV

  energy without entropy =     -330.48839120  energy(sigma->0) =     -330.47454947


--------------------------------------------------------------------------------------------------------




--------------------------------------- Iteration      1(   8)  ---------------------------------------


    POTLOK:  cpu time    0.0696: real time    0.0712
    SETDIJ:  cpu time    0.0080: real time    0.0080
    EDDIAG:  cpu time    0.7822: real time    0.7824
  RMM-DIIS:  cpu time    4.2881: real time    4.2882
    ORTHCH:  cpu time    0.1123: real time    0.1123
       DOS:  cpu time    0.0018: real time    0.0018
    CHARGE:  cpu time    0.2881: real time    0.2882
    MIXING:  cpu time    0.0019: real time    0.0019
    --------------------------------------------
      LOOP:  cpu time    5.5519: real time    5.5539

 eigenvalue-minimisations  :  3120
 total energy-change (2. order) : 0.9299671E-01  (-0.2724964E+00)
 number of electron     248.0000166 magnetization 
 augmentation part       -3.7311363 magnetization 

 Broyden mixing:
  rms(total) = 0.22962E+00    rms(broyden)= 0.22950E+00
  rms(prec ) = 0.34568E+00
  weight for this iteration     100.00

 eigenvalues of (default mixing * dielectric matrix)
  average eigenvalue GAMMA=   1.3801
  2.2862  0.9271  0.9271

 Free energy of the ion-electron system (eV)
  ---------------------------------------------------
  alpha Z        PSCENC =       308.82396720
  Ewald energy   TEWEN  =     -9694.94724655
  -Hartree energ DENC   =     -1733.72723575
  -exchange      EXHF   =         0.00000000
  -V(xc)+E(xc)   XCENC  =       210.26803503
  PAW double counting   =     21064.14957868   -20531.46754757
  entropy T*S    EENTRO =         0.01826365
  eigenvalues    EBANDS =       401.00130923
  atomic energy  EATOM  =      9645.50393724
  Solvation  Ediel_sol  =         0.00000000
  ---------------------------------------------------
  free energy    TOTEN  =      -330.37693884 eV

  energy without entropy =     -330.39520249  energy(sigma->0) =     -330.38150476


--------------------------------------------------------------------------------------------------------




--------------------------------------- Iteration      1(   9)  ---------------------------------------


    POTLOK:  cpu time    0.0665: real time    0.0666
    SETDIJ:  cpu time    0.0071: real time    0.0071
    EDDIAG:  cpu time    0.7717: real time    0.7717
  RMM-DIIS:  cpu time    4.2651: real time    4.2649
    ORTHCH:  cpu time    0.1121: real time    0.1121
       DOS:  cpu time    0.0018: real time    0.0018
    CHARGE:  cpu time    0.2894: real time    0.2894
    MIXING:  cpu time    0.0019: real time    0.0019
    --------------------------------------------
      LOOP:  cpu time    5.5156: real time    5.5156

 eigenvalue-minimisations  :  3155
 total energy-change (2. order) : 0.1748517E+00  (-0.2802557E-01)
 number of electron     248.0000163 magnetization 
 augmentation part       -3.8401175 magnetization 

 Broyden mixing:
  rms(total) = 0.82827E-01    rms(broyden)= 0.82815E-01
  rms(prec ) = 0.11679E+00
  weight for this iteration     100.00

 eigenvalues of (default mixing * dielectric matrix)
  average eigenvalue GAMMA=   1.2801
  2.2771  0.9573  0.9430  0.9430

 Free energy of the ion-electron system (eV)
  ---------------------------------------------------
  alpha Z        PSCENC =       308.82396720
  Ewald energy   TEWEN  =     -9694.94724655
  -Hartree energ DENC   =     -1750.12282925
  -exchange      EXHF   =         0.00000000
  -V(xc)+E(xc)   XCENC  =       211.38579021
  PAW double counting   =     21588.68633633   -21056.10827742
  entropy T*S    EENTRO =         0.01883700
  eigenvalues    EBANDS =       416.55739813
  atomic energy  EATOM  =      9645.50393724
  Solvation  Ediel_sol  =         0.00000000
  ---------------------------------------------------
  free energy    TOTEN  =      -330.20208711 eV

  energy without entropy =     -330.22092411  energy(sigma->0) =     -330.20679636


--------------------------------------------------------------------------------------------------------




--------------------------------------- Iteration      1(  10)  ---------------------------------------


    POTLOK:  cpu time    0.0646: real time    0.0666
    SETDIJ:  cpu time    0.0071: real time    0.0071
    EDDIAG:  cpu time    0.7701: real time    0.7701
  RMM-DIIS:  cpu time    4.5191: real time    4.5194
    ORTHCH:  cpu time    0.1118: real time    0.1118
       DOS:  cpu time    0.0018: real time    0.0018
    CHARGE:  cpu time    0.2895: real time    0.2896
    MIXING:  cpu time    0.0020: real time    0.0020
    --------------------------------------------
      LOOP:  cpu time    5.7660: real time    5.7684

 eigenvalue-minimisations  :  3327
 total energy-change (2. order) : 0.7230147E-02  (-0.1194628E-01)
 number of electron     248.0000161 magnetization 
 augmentation part       -3.9021149 magnetization 

 Broyden mixing:
  rms(total) = 0.26527E-01    rms(broyden)= 0.26450E-01
  rms(prec ) = 0.29444E-01
  weight for this iteration     100.00

 eigenvalues of (default mixing * dielectric matrix)
  average eigenvalue GAMMA=   1.5724
  2.4808  2.4808  0.9140  0.9932  0.9932

 Free energy of the ion-electron system (eV)
  ---------------------------------------------------
  alpha Z        PSCENC =       308.82396720
  Ewald energy   TEWEN  =     -9694.94724655
  -Hartree energ DENC   =     -1755.42592107
  -exchange      EXHF   =         0.00000000
  -V(xc)+E(xc)   XCENC  =       211.75365634
  PAW double counting   =     21641.71328499   -21109.18194339
  entropy T*S    EENTRO =         0.01864770
  eigenvalues    EBANDS =       421.54676059
  atomic energy  EATOM  =      9645.50393724
  Solvation  Ediel_sol  =         0.00000000
  ---------------------------------------------------
  free energy    TOTEN  =      -330.19485696 eV

  energy without entropy =     -330.21350466  energy(sigma->0) =     -330.19951889


--------------------------------------------------------------------------------------------------------




--------------------------------------- Iteration      1(  11)  ---------------------------------------


    POTLOK:  cpu time    0.0654: real time    0.0662
    SETDIJ:  cpu time    0.0072: real time    0.0072
    EDDIAG:  cpu time    0.7643: real time    0.7655
  RMM-DIIS:  cpu time    4.4533: real time    4.4589
    ORTHCH:  cpu time    0.1122: real time    0.1122
       DOS:  cpu time    0.0018: real time    0.0018
    CHARGE:  cpu time    0.2894: real time    0.2896
    MIXING:  cpu time    0.0020: real time    0.0020
    --------------------------------------------
      LOOP:  cpu time    5.6955: real time    5.7034

 eigenvalue-minimisations  :  3290
 total energy-change (2. order) :-0.1215622E-02  (-0.5286195E-03)
 number of electron     248.0000161 magnetization 
 augmentation part       -3.8985258 magnetization 

 Broyden mixing:
  rms(total) = 0.10493E-01    rms(broyden)= 0.10487E-01
  rms(prec ) = 0.15576E-01
  weight for this iteration     100.00

 eigenvalues of (default mixing * dielectric matrix)
  average eigenvalue GAMMA=   1.4528
  2.5839  2.4257  0.9471  0.9471  0.9065  0.9065

 Free energy of the ion-electron system (eV)
  ---------------------------------------------------
  alpha Z        PSCENC =       308.82396720
  Ewald energy   TEWEN  =     -9694.94724655
  -Hartree energ DENC   =     -1754.67625503
  -exchange      EXHF   =         0.00000000
  -V(xc)+E(xc)   XCENC  =       211.75157049
  PAW double counting   =     21566.82115412   -21034.32092949
  entropy T*S    EENTRO =         0.01851895
  eigenvalues    EBANDS =       420.82921048
  atomic energy  EATOM  =      9645.50393724
  Solvation  Ediel_sol  =         0.00000000
  ---------------------------------------------------
  free energy    TOTEN  =      -330.19607259 eV

  energy without entropy =     -330.21459154  energy(sigma->0) =     -330.20070232


--------------------------------------------------------------------------------------------------------




--------------------------------------- Iteration      1(  12)  ---------------------------------------


    POTLOK:  cpu time    0.0661: real time    0.0662
    SETDIJ:  cpu time    0.0071: real time    0.0072
    EDDIAG:  cpu time    0.7685: real time    0.7691
  RMM-DIIS:  cpu time    4.5386: real time    4.5431
    ORTHCH:  cpu time    0.1117: real time    0.1118
       DOS:  cpu time    0.0018: real time    0.0018
    CHARGE:  cpu time    0.2898: real time    0.2900
    MIXING:  cpu time    0.0021: real time    0.0021
    --------------------------------------------
      LOOP:  cpu time    5.7857: real time    5.7912

 eigenvalue-minimisations  :  3351
 total energy-change (2. order) : 0.1308739E-03  (-0.3814104E-03)
 number of electron     248.0000161 magnetization 
 augmentation part       -3.9090760 magnetization 

 Broyden mixing:
  rms(total) = 0.51600E-02    rms(broyden)= 0.51476E-02
  rms(prec ) = 0.70601E-02
  weight for this iteration     100.00

 eigenvalues of (default mixing * dielectric matrix)
  average eigenvalue GAMMA=   1.4369
  2.6322  2.3633  1.0080  1.0835  1.0835  0.9438  0.9438

 Free energy of the ion-electron system (eV)
  ---------------------------------------------------
  alpha Z        PSCENC =       308.82396720
  Ewald energy   TEWEN  =     -9694.94724655
  -Hartree energ DENC   =     -1755.74883790
  -exchange      EXHF   =         0.00000000
  -V(xc)+E(xc)   XCENC  =       211.82223107
  PAW double counting   =     21578.15483771   -21045.65810264
  entropy T*S    EENTRO =         0.01861426
  eigenvalues    EBANDS =       421.83465790
  atomic energy  EATOM  =      9645.50393724
  Solvation  Ediel_sol  =         0.00000000
  ---------------------------------------------------
  free energy    TOTEN  =      -330.19594171 eV

  energy without entropy =     -330.21455597  energy(sigma->0) =     -330.20059528


--------------------------------------------------------------------------------------------------------




--------------------------------------- Iteration      1(  13)  ---------------------------------------


    POTLOK:  cpu time    0.0643: real time    0.0662
    SETDIJ:  cpu time    0.0072: real time    0.0071
    EDDIAG:  cpu time    0.7629: real time    0.7628
  RMM-DIIS:  cpu time    2.8583: real time    2.8582
    ORTHCH:  cpu time    0.1123: real time    0.1123
       DOS:  cpu time    0.0018: real time    0.0018
    --------------------------------------------
      LOOP:  cpu time    3.8067: real time    3.8084

 eigenvalue-minimisations  :  2001
 total energy-change (2. order) : 0.5976267E-04  (-0.1793698E-04)
 number of electron     248.0000161 magnetization 
 augmentation part       -3.9090760 magnetization 

 Free energy of the ion-electron system (eV)
  ---------------------------------------------------
  alpha Z        PSCENC =       308.82396720
  Ewald energy   TEWEN  =     -9694.94724655
  -Hartree energ DENC   =     -1755.49861519
  -exchange      EXHF   =         0.00000000
  -V(xc)+E(xc)   XCENC  =       211.80666400
  PAW double counting   =     21575.17689633   -21042.67688799
  entropy T*S    EENTRO =         0.01860992
  eigenvalues    EBANDS =       421.59679310
  atomic energy  EATOM  =      9645.50393724
  Solvation  Ediel_sol  =         0.00000000
  ---------------------------------------------------
  free energy    TOTEN  =      -330.19588195 eV

  energy without entropy =     -330.21449187  energy(sigma->0) =     -330.20053443


--------------------------------------------------------------------------------------------------------




 average (electrostatic) potential at core
  the test charge radii are     0.7089  0.9892
  (the norm of the test charge is              1.0000)
       1 -61.0059       2 -61.0059       3 -61.0059       4 -61.0059       5 -60.7913
       6 -60.7913       7 -61.0059       8 -61.0059       9 -61.0059      10 -61.0059
      11 -60.7913      12 -60.7913      13 -61.0059      14 -61.0059      15 -61.0059
      16 -61.0059      17 -60.7913      18 -60.7913      19 -61.0059      20 -61.0059
      21 -61.0059      22 -61.0059      23 -60.7913      24 -60.7913      25 -81.0280
      26 -81.0280      27 -81.0280      28 -81.0280      29 -81.0280      30 -81.0280
      31 -81.0280      32 -81.0280      33 -81.0280      34 -81.0280      35 -81.0280
      36 -81.0280      37 -81.0280      38 -81.0280      39 -81.0280      40 -81.0280
      41 -81.0280      42 -81.0280      43 -81.0280      44 -81.0280      45 -81.0280
      46 -81.0280      47 -81.0280      48 -81.0280      49 -81.0280      50 -81.0280
      51 -81.0280      52 -81.0280      53 -81.0280      54 -81.0280      55 -81.0280
      56 -81.0280
 
 
 
 E-fermi :   9.6480     XC(G=0): -11.4165     alpha+bet :-15.4536


 k-point     1 :       0.0000    0.0000    0.0000
  band No.  band energies     occupation 
      1      -9.4367      2.00000
      2      -8.5480      2.00000
      3      -8.5480      2.00000
      4      -8.5480      2.00000
      5      -8.5480      2.00000
      6      -8.5480      2.00000
      7      -8.5480      2.00000
      8      -8.1909      2.00000
      9      -7.6803      2.00000
     10      -7.6591      2.00000
     11      -7.6591      2.00000
     12      -7.6591      2.00000
     13      -7.6591      2.00000
     14      -7.6591      2.00000
     15      -7.6591      2.00000
     16      -6.5825      2.00000
     17      -6.5825      2.00000
     18      -6.5825      2.00000
     19      -6.5825      2.00000
     20      -6.5825      2.00000
     21      -6.5825      2.00000
     22      -6.4593      2.00000
     23      -6.4593      2.00000
     24      -6.4593      2.00000
     25      -1.0179      2.00000
     26      -1.0179      2.00000
     27      -1.0179      2.00000
     28      -0.8216      2.00000
     29      -0.6157      2.00000
     30      -0.6157      2.00000
     31      -0.6157      2.00000
     32      -0.6157      2.00000
     33      -0.6157      2.00000
     34      -0.6157      2.00000
     35       0.1716      2.00000
     36       0.1716      2.00000
     37       0.1716      2.00000
     38       0.1716      2.00000
     39       0.1716      2.00000
     40       0.1716      2.00000
     41       0.5706      2.00000
     42       0.5706      2.00000
     43       0.5706      2.00000
     44       0.8924      2.00000
     45       0.8924      2.00000
     46       0.8924      2.00000
     47       0.8924      2.00000
     48       0.8924      2.00000
     49       0.8924      2.00000
     50       1.2900      2.00000
     51       1.2900      2.00000
     52       1.2900      2.00000
     53       1.2900      2.00000
     54       1.2900      2.00000
     55       1.2900      2.00000
     56       1.4369      2.00000
     57       1.4369      2.00000
     58       2.7941      2.00000
     59       2.7941      2.00000
     60       2.7941      2.00000
     61       2.7941      2.00000
     62       2.7941      2.00000
     63       2.7941      2.00000
     64       2.8948      2.00000
     65       2.8948      2.00000
     66       2.8948      2.00000
     67       2.8948      2.00000
     68       2.8948      2.00000
     69       2.8948      2.00000
     70       2.9100      2.00000
     71       2.9100      2.00000
     72       2.9100      2.00000
     73       2.9100      2.00000
     74       2.9100      2.00000
     75       2.9100      2.00000
     76       3.0906      2.00000
     77       3.0906      2.00000
     78       3.0906      2.00000
     79       3.5133      2.00000
     80       3.5133      2.00000
     81       3.5133      2.00000
     82       3.5133      2.00000
     83       3.5133      2.00000
     84       3.5133      2.00000
     85       4.7727      2.00000
     86       4.7727      2.00000
     87       4.7727      2.00000
     88       5.0041      2.00000
     89       5.4353      2.00000
     90       5.4353      2.00000
     91       5.4353      2.00000
     92       5.4353      2.00000
     93       5.4353      2.00000
     94       5.4353      2.00000
     95       5.8962      2.00000
     96       5.8962      2.00000
     97       5.8962      2.00000
     98       7.7480      2.00000
     99       7.7480      2.00000
    100       7.7480      2.00000
    101       7.9759      2.00000
    102       7.9759      2.00000
    103       7.9759      2.00000
    104       7.9759      2.00000
    105       7.9759      2.00000
    106       7.9759      2.00000
    107       8.6632      2.00000
    108       8.6632      2.00000
    109       8.6632      2.00000
    110       8.6632      2.00000
    111       8.6632      2.00000
    112       8.6632      2.00000
    113       8.7498      2.00000
    114       8.7498      2.00000
    115       8.7498      2.00000
    116       8.7498      2.00000
    117       8.7498      2.00000
    118       8.7498      2.00000
    119       8.9590      2.00000
    120       8.9590      2.00000
    121       8.9590      2.00000
    122       9.1472      2.00000
    123       9.1472      2.00000
    124       9.1472      2.00000
    125       9.1472      2.00000
    126       9.1472      2.00000
    127       9.1472      2.00000
    128      10.7116      0.00000
    129      10.9135      0.00000
    130      10.9135      0.00000
    131      10.9135      0.00000
    132      10.9135      0.00000
    133      10.9135      0.00000
    134      10.9135      0.00000
    135      11.0897      0.00000
    136      11.0897      0.00000
    137      11.1539      0.00000
    138      11.1539      0.00000
    139      11.1539      0.00000
    140      11.1539      0.00000
    141      11.1539      0.00000
    142      11.1540      0.00000
    143      11.2426      0.00000
    144      11.2426      0.00000
    145      11.2426      0.00000
    146      11.2426      0.00000
    147      11.2426      0.00000
    148      11.2426      0.00000
    149      11.9033      0.00000
    150      12.1140      0.00000
    151      12.1141      0.00000
    152      12.1142      0.00000
    153      12.9867      0.00000
    154      13.0699      0.00000
    155      13.4736      0.00000
    156      13.5074      0.00000

 k-point     2 :       0.2000    0.0000    0.0000
  band No.  band energies     occupation 
      1      -9.3886      2.00000
      2      -8.7781      2.00000
      3      -8.5371      2.00000
      4      -8.5371      2.00000
      5      -8.5371      2.00000
      6      -8.5371      2.00000
      7      -8.3980      2.00000
      8      -8.2058      2.00000
      9      -7.7791      2.00000
     10      -7.6993      2.00000
     11      -7.6909      2.00000
     12      -7.6909      2.00000
     13      -7.6909      2.00000
     14      -7.6909      2.00000
     15      -7.3978      2.00000
     16      -6.5712      2.00000
     17      -6.5712      2.00000
     18      -6.5555      2.00000
     19      -6.5555      2.00000
     20      -6.5555      2.00000
     21      -6.5555      2.00000
     22      -6.5354      2.00000
     23      -6.4713      2.00000
     24      -6.4713      2.00000
     25      -0.9998      2.00000
     26      -0.9998      2.00000
     27      -0.9009      2.00000
     28      -0.7217      2.00000
     29      -0.6805      2.00000
     30      -0.6805      2.00000
     31      -0.5777      2.00000
     32      -0.5777      2.00000
     33      -0.5777      2.00000
     34      -0.5777      2.00000
     35      -0.0789      2.00000
     36       0.0593      2.00000
     37       0.0593      2.00000
     38       0.0593      2.00000
     39       0.0593      2.00000
     40       0.2684      2.00000
     41       0.2717      2.00000
     42       0.5264      2.00000
     43       0.6797      2.00000
     44       0.6797      2.00000
     45       0.8751      2.00000
     46       0.8751      2.00000
     47       0.8751      2.00000
     48       0.8751      2.00000
     49       1.0605      2.00000
     50       1.3242      2.00000
     51       1.3242      2.00000
     52       1.3510      2.00000
     53       1.3510      2.00000
     54       1.3510      2.00000
     55       1.3510      2.00000
     56       1.4953      2.00000
     57       1.9051      2.00000
     58       2.3308      2.00000
     59       2.4979      2.00000
     60       2.4979      2.00000
     61       2.4979      2.00000
     62       2.4979      2.00000
     63       2.7419      2.00000
     64       2.7419      2.00000
     65       2.7874      2.00000
     66       2.9296      2.00000
     67       2.9296      2.00000
     68       2.9296      2.00000
     69       2.9296      2.00000
     70       3.0345      2.00000
     71       3.0345      2.00000
     72       3.0998      2.00000
     73       3.1549      2.00000
     74       3.3106      2.00000
     75       3.3205      2.00000
     76       3.3205      2.00000
     77       3.3205      2.00000
     78       3.3205      2.00000
     79       3.5471      2.00000
     80       3.5471      2.00000
     81       3.5471      2.00000
     82       3.5471      2.00000
     83       3.6966      2.00000
     84       3.6966      2.00000
     85       4.5991      2.00000
     86       4.5991      2.00000
     87       4.6489      2.00000
     88       4.9388      2.00000
     89       5.2710      2.00000
     90       5.2710      2.00000
     91       5.2710      2.00000
     92       5.2710      2.00000
     93       5.4622      2.00000
     94       5.4622      2.00000
     95       5.8073      2.00000
     96       5.8073      2.00000
     97       6.0548      2.00000
     98       7.4154      2.00000
     99       7.8025      2.00000
    100       7.8469      2.00000
    101       7.9927      2.00000
    102       7.9927      2.00000
    103       7.9927      2.00000
    104       7.9927      2.00000
    105       8.0926      2.00000
    106       8.0926      2.00000
    107       8.3017      2.00000
    108       8.3017      2.00000
    109       8.3017      2.00000
    110       8.3017      2.00000
    111       8.4830      2.00000
    112       8.5190      2.00000
    113       8.6226      2.00000
    114       8.6226      2.00000
    115       8.7912      2.00000
    116       8.7912      2.00000
    117       8.7912      2.00000
    118       8.7912      2.00000
    119       8.9380      2.00000
    120       8.9380      2.00000
    121       9.3888      1.99691
    122       9.3888      1.99691
    123       9.4823      2.00356
    124       9.5899      1.95815
    125       9.5899      1.95815
    126       9.5899      1.95815
    127       9.5899      1.95815
    128      10.5307      0.00000
    129      10.5307      0.00000
    130      10.5307      0.00000
    131      10.5307      0.00000
    132      10.8498      0.00000
    133      10.8763      0.00000
    134      10.9679      0.00000
    135      10.9974      0.00000
    136      10.9978      0.00000
    137      11.0508      0.00000
    138      11.0898      0.00000
    139      11.1430      0.00000
    140      11.2273      0.00000
    141      11.2273      0.00000
    142      11.2274      0.00000
    143      11.2274      0.00000
    144      11.5616      0.00000
    145      11.5617      0.00000
    146      11.5618      0.00000
    147      11.5618      0.00000
    148      11.7921      0.00000
    149      12.0075      0.00000
    150      12.0672      0.00000
    151      12.0672      0.00000
    152      12.3018      0.00000
    153      12.5054      0.00000
    154      13.2206      0.00000
    155      13.2724      0.00000
    156      13.3914      0.00000

 k-point     3 :       0.4000    0.0000    0.0000
  band No.  band energies     occupation 
      1      -9.2491      2.00000
      2      -9.0336      2.00000
      3      -8.5181      2.00000
      4      -8.5181      2.00000
      5      -8.5181      2.00000
      6      -8.5181      2.00000
      7      -8.3087      2.00000
      8      -8.2468      2.00000
      9      -7.7876      2.00000
     10      -7.7455      2.00000
     11      -7.7414      2.00000
     12      -7.7414      2.00000
     13      -7.7414      2.00000
     14      -7.7414      2.00000
     15      -7.0625      2.00000
     16      -6.7506      2.00000
     17      -6.5409      2.00000
     18      -6.5409      2.00000
     19      -6.5139      2.00000
     20      -6.5139      2.00000
     21      -6.5139      2.00000
     22      -6.5139      2.00000
     23      -6.5029      2.00000
     24      -6.5029      2.00000
     25      -0.9352      2.00000
     26      -0.9352      2.00000
     27      -0.8164      2.00000
     28      -0.8164      2.00000
     29      -0.5736      2.00000
     30      -0.4803      2.00000
     31      -0.4803      2.00000
     32      -0.4803      2.00000
     33      -0.4803      2.00000
     34      -0.4402      2.00000
     35      -0.1983      2.00000
     36      -0.1438      2.00000
     37      -0.1438      2.00000
     38      -0.1438      2.00000
     39      -0.1438      2.00000
     40      -0.1104      2.00000
     41      -0.0491      2.00000
     42       0.0376      2.00000
     43       0.8506      2.00000
     44       0.8506      2.00000
     45       0.8506      2.00000
     46       0.8506      2.00000
     47       0.9567      2.00000
     48       0.9567      2.00000
     49       1.2444      2.00000
     50       1.2444      2.00000
     51       1.4528      2.00000
     52       1.4528      2.00000
     53       1.4528      2.00000
     54       1.4528      2.00000
     55       1.5291      2.00000
     56       1.6677      2.00000
     57       1.9499      2.00000
     58       2.1662      2.00000
     59       2.2335      2.00000
     60       2.2335      2.00000
[...]
    120       9.4098      1.99519
    121       9.4098      1.99519
    122       9.5093      2.02868
    123       9.5093      2.02868
    124       9.5093      2.02868
    125      10.3103      0.00000
    126      10.3103      0.00000
    127      10.3103      0.00000
    128      10.4106      0.00000
    129      10.4106      0.00000
    130      10.4568      0.00000
    131      10.4568      0.00000
    132      10.4568      0.00000
    133      10.9185      0.00000
    134      10.9185      0.00000
    135      10.9185      0.00000
    136      11.3320      0.00000
    137      11.3320      0.00000
    138      11.3320      0.00000
    139      11.4506      0.00000
    140      11.4884      0.00000
    141      11.4884      0.00000
    142      11.6684      0.00000
    143      11.6684      0.00000
    144      11.6684      0.00000
    145      11.9205      0.00000
    146      11.9205      0.00000
    147      11.9206      0.00000
    148      11.9942      0.00000
    149      11.9943      0.00000
    150      11.9950      0.00000
    151      12.1547      0.00000
    152      12.1553      0.00000
    153      12.2539      0.00000
    154      12.3574      0.00000
    155      12.3626      0.00000
    156      12.4306      0.00000


--------------------------------------------------------------------------------------------------------


 soft charge-density along one line, spin component           1
         0         1         2         3         4         5         6         7         8         9
 total charge-density along one line
 
 pseudopotential strength for first ion, spin component:           1
 12.364  14.819   0.000   0.000   0.000   0.000   0.000   0.000
 14.819  17.761   0.000   0.000   0.000   0.000   0.000   0.000
  0.000   0.000  -5.846  -0.003   0.003  -7.787  -0.005   0.005
  0.000   0.000  -0.003  -5.846  -0.003  -0.005  -7.787  -0.005
  0.000   0.000   0.003  -0.003  -5.846   0.005  -0.005  -7.787
  0.000   0.000  -7.787  -0.005   0.005  -9.655  -0.008   0.008
  0.000   0.000  -0.005  -7.787  -0.005  -0.008  -9.655  -0.008
  0.000   0.000   0.005  -0.005  -7.787   0.008  -0.008  -9.655
 total augmentation occupancy for first ion, spin component:           1
  5.628  -2.621   0.000   0.000   0.000   0.000   0.000  -0.000
 -2.621   1.791  -0.000  -0.000  -0.000   0.000   0.000  -0.000
  0.000  -0.000   1.798  -0.042   0.042  -0.268   0.003  -0.003
  0.000  -0.000  -0.042   1.798  -0.042   0.003  -0.268   0.003
  0.000  -0.000   0.042  -0.042   1.798  -0.003   0.003  -0.268
  0.000   0.000  -0.268   0.003  -0.003   0.051   0.001  -0.001
  0.000   0.000   0.003  -0.268   0.003   0.001   0.051   0.001
 -0.000  -0.000  -0.003   0.003  -0.268  -0.001   0.001   0.051


------------------------ aborting loop because EDIFF is reached ----------------------------------------


    CHARGE:  cpu time    0.2863: real time    0.2863
    FORLOC:  cpu time    0.0262: real time    0.0261
    FORNL :  cpu time    1.9820: real time    1.9824
    STRESS:  cpu time    5.8499: real time    5.8510
    FORCOR:  cpu time    0.0896: real time    0.0896
    FORHAR:  cpu time    0.0393: real time    0.0393
    MIXING:  cpu time    0.0020: real time    0.0020
    OFIELD:  cpu time    0.0000: real time    0.0000

  FORCE on cell =-STRESS in cart. coord.  units (eV):
  Direction    XX          YY          ZZ          XY          YZ          ZX
  --------------------------------------------------------------------------------------
  Alpha Z   308.82397   308.82397   308.82397
  Ewald   -3231.55501 -3231.55501 -3231.55501    -0.00000    -0.00000     0.00000
  Hartree   585.30204   585.30204   585.30204    -0.00000    -0.00000    -0.00000
  E(xc)    -920.01217  -920.01217  -920.01217     0.00000     0.00000     0.00000
  Local    -779.23743  -779.23743  -779.23743    -0.00000    -0.00000     0.00000
  n-local   970.86068   971.96169   972.85695     0.34615     1.55810     0.48883
  augment  -180.50636  -180.50636  -180.50636     0.00000    -0.00000     0.00000
  Kinetic  3241.40828  3253.09226  3264.40954    -3.07421    -3.67961    -1.63016
  Fock        0.00000     0.00000     0.00000     0.00000     0.00000     0.00000
  -------------------------------------------------------------------------------------
  Total       7.67816     7.67816     7.67816     0.00000     0.00000     0.00000
  in kB      19.47764    19.47764    19.47764     0.00000     0.00000     0.00000
  external pressure =       19.48 kB  Pullay stress =        0.00 kB


 VOLUME and BASIS-vectors are now :
 -----------------------------------------------------------------------------
  energy-cutoff  :      400.00
  volume of cell :      631.58
      direct lattice vectors                 reciprocal lattice vectors
     8.579800320  0.000000000  0.000000000     0.116552829 -0.000000000  0.000000000
     0.000000000  8.579800320  0.000000000    -0.000000000  0.116552829  0.000000000
     0.000000000  0.000000000  8.579800320    -0.000000000 -0.000000000  0.116552829

  length of vectors
     8.579800320  8.579800320  8.579800320     0.116552829  0.116552829  0.116552829


 FORCES acting on ions
    electron-ion (+dipol)            ewald-force                    non-local-force                 convergence-correction
 -----------------------------------------------------------------------------------------------
   -.826E-12 0.181E-11 0.110E-13   0.516E-13 0.497E-13 -.921E-14   -.460E-21 0.266E-21 0.256E-21   0.265E-13 0.892E-12 -.223E-11
   -.671E-12 0.662E-12 -.135E-11   0.540E-13 0.438E-13 0.933E-14   0.415E-21 0.404E-21 0.474E-21   -.241E-12 0.917E-12 -.173E-11
   -.114E-11 0.790E-12 0.808E-12   0.639E-13 0.266E-13 0.284E-13   -.954E-21 -.600E-21 -.361E-21   0.902E-13 0.143E-11 0.238E-11
   -.962E-13 -.513E-12 0.111E-11   0.204E-13 0.197E-13 0.238E-13   0.863E-22 0.290E-21 0.287E-21   0.233E-12 0.261E-11 0.984E-12
   0.146E-12 -.148E-12 0.350E-12   0.355E-14 0.799E-14 0.275E-13   -.340E-17 0.142E-17 -.154E-17   -.262E-12 -.307E-12 0.451E-12
   -.106E-12 -.168E-14 0.179E-12   0.311E-14 -.711E-14 -.453E-13   0.601E-18 0.239E-18 0.336E-17   -.207E-11 -.150E-11 0.610E-12
   0.109E-11 -.518E-12 0.668E-12   0.487E-13 0.480E-13 -.708E-14   -.452E-22 0.422E-21 0.443E-21   0.286E-12 0.177E-11 -.665E-12
   0.365E-12 0.551E-12 -.264E-12   0.595E-13 0.306E-13 0.151E-13   -.532E-21 -.603E-21 -.192E-21   0.779E-13 0.125E-11 -.108E-11
   -.598E-12 0.406E-12 0.742E-12   0.444E-13 0.124E-13 -.888E-14   -.293E-21 -.597E-21 -.142E-21   0.764E-13 0.115E-11 0.306E-11
   -.107E-12 -.452E-12 0.121E-11   0.258E-13 0.534E-13 0.497E-13   -.671E-21 -.211E-21 0.448E-21   -.279E-12 0.241E-11 0.104E-11
   0.159E-12 -.116E-12 0.307E-12   0.711E-14 0.888E-15 0.253E-13   -.345E-17 -.171E-17 -.454E-17   -.179E-12 -.347E-12 0.886E-12
   -.795E-13 0.153E-12 0.786E-14   0.711E-14 0.000E+00 -.711E-14   -.164E-18 0.310E-18 0.252E-17   -.218E-11 -.151E-11 0.714E-12
   0.180E-13 0.401E-12 -.983E-12   0.520E-13 0.351E-13 -.229E-13   -.761E-22 0.306E-21 0.160E-21   -.192E-12 -.128E-11 0.131E-11
   -.780E-12 0.319E-12 0.134E-11   0.256E-13 0.994E-14 -.622E-14   0.587E-21 0.247E-21 0.326E-21   -.145E-12 -.163E-11 0.191E-11
   -.427E-13 -.385E-12 0.167E-11   0.373E-13 -.888E-14 -.888E-14   -.946E-21 -.475E-21 -.116E-22   -.284E-13 -.117E-11 -.215E-11
   -.115E-11 0.194E-12 -.486E-12   0.138E-13 0.140E-13 -.114E-13   -.852E-21 -.254E-21 -.760E-22   0.448E-13 -.270E-11 -.615E-12
   0.278E-12 0.248E-11 0.936E-12   0.240E-13 -.355E-14 0.195E-13   -.425E-18 -.219E-17 -.305E-17   0.290E-12 0.894E-12 -.773E-12
   0.929E-13 -.972E-14 0.398E-11   0.115E-13 -.444E-14 -.191E-13   0.462E-17 -.135E-18 0.250E-17   0.173E-11 0.531E-12 -.443E-12
   -.604E-12 0.438E-12 -.221E-11   0.256E-13 0.453E-13 -.374E-13   0.128E-21 0.432E-21 0.253E-21   0.721E-13 -.151E-11 0.782E-12
   0.954E-12 0.939E-12 -.663E-12   0.391E-13 0.933E-14 0.355E-13   -.185E-21 0.184E-21 -.320E-21   0.386E-12 -.107E-11 0.215E-11
   -.453E-13 -.216E-12 0.145E-11   0.195E-13 -.124E-13 -.231E-13   -.114E-20 -.118E-21 0.591E-21   0.475E-13 -.118E-11 -.267E-11
   -.570E-12 -.877E-12 0.137E-12   0.213E-13 0.128E-13 0.872E-14   -.356E-21 0.564E-21 0.242E-21   0.677E-13 -.241E-11 -.185E-11
   0.305E-12 -.102E-11 -.306E-11   0.124E-13 0.533E-14 0.266E-13   -.122E-17 -.193E-17 -.262E-17   0.433E-12 0.149E-11 -.215E-11
   0.664E-13 0.240E-13 0.129E-12   0.444E-14 -.977E-14 -.302E-13   0.364E-17 0.228E-17 0.449E-17   0.114E-11 0.942E-12 -.198E-12
   -.224E+01 -.224E+01 -.224E+01   0.317E+01 0.317E+01 0.317E+01   -.933E+00 -.933E+00 -.933E+00   0.103E-02 0.103E-02 0.103E-02
   0.224E+01 -.224E+01 -.224E+01   -.317E+01 0.317E+01 0.317E+01   0.933E+00 -.933E+00 -.933E+00   -.103E-02 0.103E-02 0.103E-02
   -.224E+01 -.224E+01 0.224E+01   0.317E+01 0.317E+01 -.317E+01   -.933E+00 -.933E+00 0.933E+00   0.103E-02 0.103E-02 -.103E-02
   -.224E+01 0.224E+01 -.224E+01   0.317E+01 -.317E+01 0.317E+01   -.933E+00 0.933E+00 -.933E+00   0.103E-02 -.103E-02 0.103E-02
   0.224E+01 0.224E+01 -.224E+01   -.317E+01 -.317E+01 0.317E+01   0.933E+00 0.933E+00 -.933E+00   -.103E-02 -.103E-02 0.103E-02
   0.224E+01 -.224E+01 0.224E+01   -.317E+01 0.317E+01 -.317E+01   0.933E+00 -.933E+00 0.933E+00   -.103E-02 0.103E-02 -.103E-02
   0.224E+01 0.224E+01 0.224E+01   -.317E+01 -.317E+01 -.317E+01   0.933E+00 0.933E+00 0.933E+00   -.103E-02 -.103E-02 -.103E-02
   -.224E+01 0.224E+01 0.224E+01   0.317E+01 -.317E+01 -.317E+01   -.933E+00 0.933E+00 0.933E+00   0.103E-02 -.103E-02 -.103E-02
   -.224E+01 -.224E+01 -.224E+01   0.317E+01 0.317E+01 0.317E+01   -.933E+00 -.933E+00 -.933E+00   0.103E-02 0.103E-02 0.103E-02
   0.224E+01 -.224E+01 -.224E+01   -.317E+01 0.317E+01 0.317E+01   0.933E+00 -.933E+00 -.933E+00   -.103E-02 0.103E-02 0.103E-02
   -.224E+01 -.224E+01 0.224E+01   0.317E+01 0.317E+01 -.317E+01   -.933E+00 -.933E+00 0.933E+00   0.103E-02 0.103E-02 -.103E-02
   -.224E+01 0.224E+01 -.224E+01   0.317E+01 -.317E+01 0.317E+01   -.933E+00 0.933E+00 -.933E+00   0.103E-02 -.103E-02 0.103E-02
   0.224E+01 0.224E+01 -.224E+01   -.317E+01 -.317E+01 0.317E+01   0.933E+00 0.933E+00 -.933E+00   -.103E-02 -.103E-02 0.103E-02
   0.224E+01 -.224E+01 0.224E+01   -.317E+01 0.317E+01 -.317E+01   0.933E+00 -.933E+00 0.933E+00   -.103E-02 0.103E-02 -.103E-02
   0.224E+01 0.224E+01 0.224E+01   -.317E+01 -.317E+01 -.317E+01   0.933E+00 0.933E+00 0.933E+00   -.103E-02 -.103E-02 -.103E-02
   -.224E+01 0.224E+01 0.224E+01   0.317E+01 -.317E+01 -.317E+01   -.933E+00 0.933E+00 0.933E+00   0.103E-02 -.103E-02 -.103E-02
   -.224E+01 -.224E+01 -.224E+01   0.317E+01 0.317E+01 0.317E+01   -.933E+00 -.933E+00 -.933E+00   0.103E-02 0.103E-02 0.103E-02
   0.224E+01 -.224E+01 -.224E+01   -.317E+01 0.317E+01 0.317E+01   0.933E+00 -.933E+00 -.933E+00   -.103E-02 0.103E-02 0.103E-02
   -.224E+01 -.224E+01 0.224E+01   0.317E+01 0.317E+01 -.317E+01   -.933E+00 -.933E+00 0.933E+00   0.103E-02 0.103E-02 -.103E-02
   -.224E+01 0.224E+01 -.224E+01   0.317E+01 -.317E+01 0.317E+01   -.933E+00 0.933E+00 -.933E+00   0.103E-02 -.103E-02 0.103E-02
   0.224E+01 0.224E+01 -.224E+01   -.317E+01 -.317E+01 0.317E+01   0.933E+00 0.933E+00 -.933E+00   -.103E-02 -.103E-02 0.103E-02
   0.224E+01 -.224E+01 0.224E+01   -.317E+01 0.317E+01 -.317E+01   0.933E+00 -.933E+00 0.933E+00   -.103E-02 0.103E-02 -.103E-02
   0.224E+01 0.224E+01 0.224E+01   -.317E+01 -.317E+01 -.317E+01   0.933E+00 0.933E+00 0.933E+00   -.103E-02 -.103E-02 -.103E-02
   -.224E+01 0.224E+01 0.224E+01   0.317E+01 -.317E+01 -.317E+01   -.933E+00 0.933E+00 0.933E+00   0.103E-02 -.103E-02 -.103E-02
   -.224E+01 -.224E+01 -.224E+01   0.317E+01 0.317E+01 0.317E+01   -.933E+00 -.933E+00 -.933E+00   0.103E-02 0.103E-02 0.103E-02
   0.224E+01 -.224E+01 -.224E+01   -.317E+01 0.317E+01 0.317E+01   0.933E+00 -.933E+00 -.933E+00   -.103E-02 0.103E-02 0.103E-02
   -.224E+01 -.224E+01 0.224E+01   0.317E+01 0.317E+01 -.317E+01   -.933E+00 -.933E+00 0.933E+00   0.103E-02 0.103E-02 -.103E-02
   -.224E+01 0.224E+01 -.224E+01   0.317E+01 -.317E+01 0.317E+01   -.933E+00 0.933E+00 -.933E+00   0.103E-02 -.103E-02 0.103E-02
   0.224E+01 0.224E+01 -.224E+01   -.317E+01 -.317E+01 0.317E+01   0.933E+00 0.933E+00 -.933E+00   -.103E-02 -.103E-02 0.103E-02
   0.224E+01 -.224E+01 0.224E+01   -.317E+01 0.317E+01 -.317E+01   0.933E+00 -.933E+00 0.933E+00   -.103E-02 0.103E-02 -.103E-02
   0.224E+01 0.224E+01 0.224E+01   -.317E+01 -.317E+01 -.317E+01   0.933E+00 0.933E+00 0.933E+00   -.103E-02 -.103E-02 -.103E-02
   -.224E+01 0.224E+01 0.224E+01   0.317E+01 -.317E+01 -.317E+01   -.933E+00 0.933E+00 0.933E+00   0.103E-02 -.103E-02 -.103E-02
 -----------------------------------------------------------------------------------------------
   -.267E-11 0.739E-11 0.623E-11   -.804E-13 0.142E-13 -.675E-13   -.333E-15 0.333E-15 0.333E-15   -.587E-12 -.172E-12 -.373E-12
 
 
 POSITION                                       TOTAL-FORCE (eV/Angst)
 -----------------------------------------------------------------------------------
      7.50733      7.50733      1.07248        -0.000000     -0.000000     -0.000000
      3.21743      1.07248      3.21743        -0.000000     -0.000000     -0.000000
      5.36238      7.50733      3.21743        -0.000000     -0.000000     -0.000000
      1.07248      1.07248      1.07248        -0.000000     -0.000000     -0.000000
      2.14495      6.43485      2.14495        -0.000000     -0.000000     -0.000000
      0.00000     -0.00000      4.28990        -0.000000     -0.000000     -0.000000
      7.50733      3.21743      5.36238        -0.000000     -0.000000     -0.000000
      3.21743      5.36238      7.50733        -0.000000     -0.000000     -0.000000
      5.36238      3.21743      7.50733        -0.000000     -0.000000     -0.000000
      1.07248      5.36238      5.36238        -0.000000     -0.000000     -0.000000
      2.14495      2.14495      6.43485        -0.000000     -0.000000     -0.000000
      0.00000      4.28990      0.00000        -0.000000     -0.000000     -0.000000
      3.21743      7.50733      5.36238        -0.000000     -0.000000     -0.000000
      7.50733      1.07248      7.50733        -0.000000     -0.000000     -0.000000
      1.07248      7.50733      7.50733        -0.000000     -0.000000     -0.000000
      5.36238      1.07248      5.36238        -0.000000     -0.000000     -0.000000
      6.43485      6.43485      6.43485        -0.000000     -0.000000     -0.000000
      4.28990      0.00000      0.00000        -0.000000     -0.000000     -0.000000
      3.21743      3.21743      1.07248        -0.000000     -0.000000     -0.000000
      7.50733      5.36238      3.21743        -0.000000     -0.000000     -0.000000
      1.07248      3.21743      3.21743        -0.000000     -0.000000     -0.000000
      5.36238      5.36238      1.07248        -0.000000     -0.000000     -0.000000
      6.43485      2.14495      2.14495        -0.000000     -0.000000     -0.000000
      4.28990      4.28990      4.28990        -0.000000     -0.000000     -0.000000
      3.22745      3.22745      3.22745         0.000414      0.000414      0.000414
      7.49730      1.08250      1.08250        -0.000414      0.000414      0.000414
      5.37240      1.08250      3.20740         0.000414      0.000414     -0.000414
      1.08250      7.49730      1.08250         0.000414     -0.000414      0.000414
      1.06245      1.06245      3.22745        -0.000414     -0.000414      0.000414
      1.06245      3.22745      1.06245        -0.000414      0.000414     -0.000414
      3.20740      7.49730      3.20740        -0.000414     -0.000414     -0.000414
      3.22745      1.06245      1.06245         0.000414     -0.000414     -0.000414
      3.22745      7.51735      7.51735         0.000414      0.000414      0.000414
      7.49730      5.37240      5.37240        -0.000414      0.000414      0.000414
      5.37240      5.37240      7.49730         0.000414      0.000414     -0.000414
      1.08250      3.20740      5.37240         0.000414     -0.000414      0.000414
      1.06245      5.35235      7.51735        -0.000414     -0.000414      0.000414
      1.06245      7.51735      5.35235        -0.000414      0.000414     -0.000414
      3.20740      3.20740      7.49730        -0.000414     -0.000414     -0.000414
      3.22745      5.35235      5.35235         0.000414     -0.000414     -0.000414
      7.51735      3.22745      7.51735         0.000414      0.000414      0.000414
      3.20740      1.08250      5.37240        -0.000414      0.000414      0.000414
      1.08250      1.08250      7.49730         0.000414      0.000414     -0.000414
      5.37240      7.49730      5.37240         0.000414     -0.000414      0.000414
      5.35235      1.06245      7.51735        -0.000414     -0.000414      0.000414
      5.35235      3.22745      5.35235        -0.000414      0.000414     -0.000414
      7.49730      7.49730      7.49730        -0.000414     -0.000414     -0.000414
      7.51735      1.06245      5.35235         0.000414     -0.000414     -0.000414
      7.51735      7.51735      3.22745         0.000414      0.000414      0.000414
      3.20740      5.37240      1.08250        -0.000414      0.000414      0.000414
      1.08250      5.37240      3.20740         0.000414      0.000414     -0.000414
      5.37240      3.20740      1.08250         0.000414     -0.000414      0.000414
      5.35235      5.35235      3.22745        -0.000414     -0.000414      0.000414
      5.35235      7.51735      1.06245        -0.000414      0.000414     -0.000414
      7.49730      3.20740      3.20740        -0.000414     -0.000414     -0.000414
      7.51735      5.35235      1.06245         0.000414     -0.000414     -0.000414
 -----------------------------------------------------------------------------------
    total drift:                               -0.000000      0.000000      0.000000


--------------------------------------------------------------------------------------------------------



  FREE ENERGIE OF THE ION-ELECTRON SYSTEM (eV)
  ---------------------------------------------------
  free  energy   TOTEN  =      -330.19799486 eV

  energy  without entropy=     -330.21617426  energy(sigma->0) =     -330.20253971
 
 d Force = 0.8375730E-03[ 0.284E-04, 0.165E-02]  d Energy = 0.8321567E-03 0.542E-05
 d Force = 0.2238702E+00[ 0.217E+00, 0.230E+00]  d Ewald  = 0.2238714E+00-0.116E-05


--------------------------------------------------------------------------------------------------------


    POTLOK:  cpu time    0.0720: real time    0.0720


--------------------------------------------------------------------------------------------------------




--------------------------------------------------------------------------------------------------------


  
 reached required accuracy - stopping structural energy minimisation
     LOOP+:  cpu time   24.6494: real time   24.6613
    4ORBIT:  cpu time    0.0000: real time    0.0000

 total amount of memory used by VASP MPI-rank0    69491. kBytes
=======================================================================

   base      :      30000. kBytes
   nonlr-proj:       9750. kBytes
   fftplans  :       4305. kBytes
   grid      :       6748. kBytes
   one-center:         43. kBytes
   wavefun   :      18645. kBytes
 
  
  
 General timing and accounting informations for this job:
 ========================================================
  
                  Total CPU time used (sec):      151.697
                            User time (sec):      150.964
                          System time (sec):        0.733
                         Elapsed time (sec):      152.669
  
                   Maximum memory used (kb):       90004.
                   Average memory used (kb):           0.
  
                          Minor page faults:        99247
                          Major page faults:            6
                 Voluntary context switches:         4415
