<?xml version="1.0" encoding="ISO-8859-1"?>
<modeling>
 <generator>
  <i name="program" type="string">vasp </i>
  <i name="version" type="string">5.4.4.18Apr17-6-g9f103f2a35  </i>
  <i name="subversion" type="string">(build Nov 01 2019 12:17:22) complex            parallel </i>
  <i name="platform" type="string">LinuxIFC </i>
  <i name="date" type="string">2023 05 19 </i>
  <i name="time" type="string">18:21:56 </i>
 </generator>
 <incar>
  <i type="string" name="PREC">accurate</i>
  <i type="string" name="ALGO"> Fast</i>
  <i type="int" name="IBRION">     2</i>
  <i type="int" name="NSW">   100</i>
  <i type="int" name="ISIF">     2</i>
  <i type="string" name="LREAL"> Auto</i>
  <i type="int" name="ISMEAR">     2</i>
  <i name="SIGMA">      0.10000000</i>
  <i type="logical" name="LWAVE"> F  </i>
  <i type="logical" name="LCHARG"> F  </i>
  <v type="int" name="KPOINT_BSE">    -1     0     0     0</v>
 </incar>
 <structure name="primitive_cell" >
  <crystal>
   <varray name="basis" >
    <v>       4.28990016       4.28990016       0.00000000 </v>
    <v>       4.28990016       0.00000000      -4.28990016 </v>
    <v>       0.00000000       4.28990016      -4.28990016 </v>
   </varray>
   <i name="volume">    157.89615349 </i>
   <varray name="rec_basis" >
    <v>       0.11655283       0.11655283       0.11655283 </v>
    <v>       0.11655283      -0.11655283      -0.11655283 </v>
    <v>      -0.11655283       0.11655283      -0.11655283 </v>
   </varray>
  </crystal>
  <varray name="positions" >
   <v>      -0.12500000      -0.12500000      -0.12500000 </v>
   <v>       0.12630293      -0.37890880       0.12630293 </v>
   <v>       0.12630293       0.12630293      -0.37890880 </v>
   <v>      -0.37890880       0.12630293       0.12630293 </v>
   <v>       0.12890880      -0.37630293      -0.37630293 </v>
   <v>      -0.37630293      -0.37630293       0.12890880 </v>
   <v>      -0.37630293       0.12890880      -0.37630293 </v>
   <v>      -0.12500000       0.37500000      -0.12500000 </v>
   <v>      -0.12500000      -0.12500000       0.37500000 </v>
   <v>       0.37500000      -0.12500000      -0.12500000 </v>
   <v>       0.25000000       0.25000000       0.25000000 </v>
   <v>      -0.50000000      -0.50000000      -0.50000000 </v>
   <v>       0.12630293       0.12630293       0.12630293 </v>
   <v>      -0.37630293      -0.37630293      -0.37630293 </v>
  </varray>
 </structure>
 <varray name="primitive_index" >
  <v type="int" >        1 </v>
  <v type="int" >       26 </v>
  <v type="int" >       28 </v>
  <v type="int" >       47 </v>
  <v type="int" >       49 </v>
  <v type="int" >       54 </v>
  <v type="int" >       56 </v>
  <v type="int" >        3 </v>
  <v type="int" >       14 </v>
  <v type="int" >        4 </v>
  <v type="int" >        5 </v>
  <v type="int" >        6 </v>
  <v type="int" >       27 </v>
  <v type="int" >       37 </v>
 </varray>
 <kpoints>
  <generation param="Auto">
   <i name="subdivisionlength">     45.00000000 </i>
   <v type="int" name="divisions">       5        5        5 </v>
   <v name="usershift">      0.00000000       0.00000000       0.00000000 </v>
   <v name="genvec1">      0.20000000       0.00000000       0.00000000 </v>
   <v name="genvec2">     -0.00000000       0.20000000       0.00000000 </v>
   <v name="genvec3">     -0.00000000      -0.00000000       0.20000000 </v>
   <v name="shift">      0.00000000       0.00000000       0.00000000 </v>
  </generation>
  <varray name="kpointlist" >
   <v>       0.00000000       0.00000000       0.00000000 </v>
   <v>       0.20000000       0.00000000       0.00000000 </v>
   <v>       0.40000000       0.00000000       0.00000000 </v>
   <v>       0.20000000       0.20000000       0.00000000 </v>
   <v>       0.40000000       0.20000000       0.00000000 </v>
   <v>       0.40000000       0.40000000       0.00000000 </v>
   <v>       0.20000000       0.20000000       0.20000000 </v>
   <v>       0.40000000       0.20000000       0.20000000 </v>
   <v>       0.40000000       0.40000000       0.20000000 </v>
   <v>       0.40000000       0.40000000       0.40000000 </v>
  </varray>
  <varray name="weights" >
   <v>       0.00800000 </v>
   <v>       0.04800000 </v>
   <v>       0.04800000 </v>
   <v>       0.09600000 </v>
   <v>       0.19200000 </v>
   <v>       0.09600000 </v>
   <v>       0.06400000 </v>
   <v>       0.19200000 </v>
   <v>       0.19200000 </v>
   <v>       0.06400000 </v>
  </varray>
 </kpoints>
 <parameters>
  <separator name="general" >
   <i type="string" name="SYSTEM">unknown system</i>
   <i type="logical" name="LCOMPAT"> F  </i>
  </separator>
  <separator name="electronic" >
   <i type="string" name="PREC">accura</i>
   <i name="ENMAX">    400.00000000</i>
   <i name="ENAUG">    627.11200000</i>
   <i name="EDIFF">      0.00010000</i>
   <i type="int" name="IALGO">    68</i>
   <i type="int" name="IWAVPR">    11</i>
   <i type="int" name="NBANDS">   156</i>
   <i name="NELECT">    248.00000000</i>
   <i type="int" name="TURBO">     0</i>
   <i type="int" name="IRESTART">     0</i>
   <i type="int" name="NREBOOT">     0</i>
   <i type="int" name="NMIN">     0</i>
   <i name="EREF">      0.00000000</i>
   <separator name="electronic smearing" >
    <i type="int" name="ISMEAR">     2</i>
    <i name="SIGMA">      0.10000000</i>
    <i name="KSPACING">      0.50000000</i>
    <i type="logical" name="KGAMMA"> T  </i>
   </separator>
   <separator name="electronic projectors" >
    <i type="logical" name="LREAL"> T  </i>
    <v name="ROPT">     -0.00025000     -0.00025000</v>
    <i type="int" name="LMAXPAW">  -100</i>
    <i type="int" name="LMAXMIX">     2</i>
    <i type="logical" name="NLSPLINE"> F  </i>
   </separator>
   <separator name="electronic startup" >
    <i type="int" name="ISTART">     0</i>
    <i type="int" name="ICHARG">     2</i>
    <i type="int" name="INIWAV">     1</i>
   </separator>
   <separator name="electronic spin" >
    <i type="int" name="ISPIN">     1</i>
    <i type="logical" name="LNONCOLLINEAR"> F  </i>
    <v name="MAGMOM">      1.00000000      1.00000000      1.00000000      1.00000000      1.00000000      1.00000000      1.00000000      1.00000000      1.00000000      1.00000000      1.00000000      1.00000000      1.00000000      1.00000000      1.00000000      1.00000000      1.00000000      1.00000000      1.00000000      1.00000000
      1.00000000      1.00000000      1.00000000      1.00000000      1.00000000      1.00000000      1.00000000      1.00000000      1.00000000      1.00000000      1.00000000      1.00000000      1.00000000      1.00000000      1.00000000      1.00000000      1.00000000      1.00000000      1.00000000      1.00000000
      1.00000000      1.00000000      1.00000000      1.00000000      1.00000000      1.00000000      1.00000000      1.00000000      1.00000000      1.00000000      1.00000000      1.00000000      1.00000000      1.00000000      1.00000000      1.00000000</v>
    <i name="NUPDOWN">     -1.00000000</i>
    <i type="logical" name="LSORBIT"> F  </i>
    <v name="SAXIS">      0.00000000      0.00000000      1.00000000</v>
    <i type="logical" name="LSPIRAL"> F  </i>
    <v name="QSPIRAL">      0.00000000      0.00000000      0.00000000</v>
    <i type="logical" name="LZEROZ"> F  </i>
   </separator>
   <separator name="electronic exchange-correlation" >
    <i type="logical" name="LASPH"> F  </i>
    <i type="logical" name="LMETAGGA"> F  </i>
   </separator>
   <separator name="electronic convergence" >
    <i type="int" name="NELM">    60</i>
    <i type="int" name="NELMDL">    -5</i>
    <i type="int" name="NELMIN">     2</i>
    <i name="ENINI">    400.00000000</i>
    <separator name="electronic convergence detail" >
     <i type="logical" name="LDIAG"> T  </i>
     <i type="logical" name="LSUBROT"> F  </i>
     <i name="WEIMIN">      0.00100000</i>
     <i name="EBREAK">      0.00000016</i>
     <i name="DEPER">      0.30000000</i>
     <i type="int" name="NRMM">     4</i>
     <i name="TIME">      0.40000000</i>
    </separator>
   </separator>
   <separator name="electronic mixer" >
    <i name="AMIX">      0.40000000</i>
    <i name="BMIX">      1.00000000</i>
    <i name="AMIN">      0.10000000</i>
    <i name="AMIX_MAG">      1.60000000</i>
    <i name="BMIX_MAG">      1.00000000</i>
    <separator name="electronic mixer details" >
     <i type="int" name="IMIX">     4</i>
     <i type="logical" name="MIXFIRST"> F  </i>
     <i type="int" name="MAXMIX">   -45</i>
     <i name="WC">    100.00000000</i>
     <i type="int" name="INIMIX">     1</i>
     <i type="int" name="MIXPRE">     1</i>
     <i type="int" name="MREMOVE">     5</i>
    </separator>
   </separator>
   <separator name="electronic dipolcorrection" >
    <i type="logical" name="LDIPOL"> F  </i>
    <i type="logical" name="LMONO"> F  </i>
    <i type="int" name="IDIPOL">     0</i>
    <i name="EPSILON">      1.00000000</i>
    <v name="DIPOL">   -100.00000000   -100.00000000   -100.00000000</v>
    <i name="EFIELD">      0.00000000</i>
   </separator>
  </separator>
  <separator name="grids" >
   <i type="int" name="NGX">    56</i>
   <i type="int" name="NGY">    56</i>
   <i type="int" name="NGZ">    56</i>
   <i type="int" name="NGXF">   112</i>
   <i type="int" name="NGYF">   112</i>
   <i type="int" name="NGZF">   112</i>
   <i type="logical" name="ADDGRID"> F  </i>
  </separator>
  <separator name="ionic" >
   <i type="int" name="NSW">   100</i>
   <i type="int" name="IBRION">     2</i>
   <i type="int" name="MDALGO">     0</i>
   <i type="int" name="ISIF">     2</i>
   <i name="PSTRESS">      0.00000000</i>
   <i name="EDIFFG">      0.00100000</i>
   <i type="int" name="NFREE">     1</i>
   <i name="POTIM">      0.50000000</i>
   <i name="SMASS">     -3.00000000</i>
   <i name="SCALEE">      1.00000000</i>
  </separator>
  <separator name="ionic md" >
   <i name="TEBEG">      0.00010000</i>
   <i name="TEEND">      0.00010000</i>
   <i type="int" name="NBLOCK">     1</i>
   <i type="int" name="KBLOCK">   100</i>
   <i type="int" name="NPACO">   256</i>
   <i name="APACO">     16.00000000</i>
  </separator>
  <separator name="symmetry" >
   <i type="int" name="ISYM">     2</i>
   <i name="SYMPREC">      0.00001000</i>
  </separator>
  <separator name="dos" >
   <i type="int" name="LORBIT">     0</i>
   <v name="RWIGS">     -1.00000000     -1.00000000</v>
   <i type="int" name="NEDOS">   301</i>
   <i name="EMIN">     10.00000000</i>
   <i name="EMAX">    -10.00000000</i>
   <i name="EFERMI">      0.00000000</i>
  </separator>
  <separator name="writing" >
   <i type="int" name="NWRITE">     2</i>
   <i type="logical" name="LWAVE"> F  </i>
   <i type="logical" name="LDOWNSAMPLE"> F  </i>
   <i type="logical" name="LCHARG"> F  </i>
   <i type="logical" name="LPARD"> F  </i>
   <i type="logical" name="LVTOT"> F  </i>
   <i type="logical" name="LVHAR"> F  </i>
   <i type="logical" name="LELF"> F  </i>
   <i type="logical" name="LOPTICS"> F  </i>
   <v name="STM">      0.00000000      0.00000000      0.00000000      0.00000000      0.00000000      0.00000000      0.00000000</v>
  </separator>
  <separator name="performance" >
   <i type="int" name="NPAR">     4</i>
   <i type="int" name="NSIM">     4</i>
   <i type="int" name="NBLK">    -1</i>
   <i type="logical" name="LPLANE"> T  </i>
   <i type="logical" name="LSCALAPACK"> F  </i>
   <i type="logical" name="LSCAAWARE"> F  </i>
   <i type="logical" name="LSCALU"> F  </i>
   <i type="logical" name="LASYNC"> F  </i>
   <i type="logical" name="LORBITALREAL"> F  </i>
  </separator>
  <separator name="miscellaneous" >
   <i type="int" name="IDIOT">     3</i>
   <i type="int" name="ISPECIAL">     0</i>
   <i type="logical" name="LMUSIC"> F  </i>
   <v name="POMASS">     14.00100000     28.08500000</v>
   <v name="DARWINR">      0.00000000      0.00000000</v>
   <v name="DARWINV">      1.00000000      1.00000000</v>
   <i type="logical" name="LCORR"> T  </i>
  </separator>
  <i type="logical" name="GGA_COMPAT"> T  </i>
  <i type="logical" name="LBERRY"> F  </i>
  <i type="int" name="ICORELEVEL">     0</i>
  <i type="logical" name="LDAU"> F  </i>
  <i type="int" name="I_CONSTRAINED_M">     0</i>
  <separator name="electronic exchange-correlation" >
   <i type="string" name="GGA">--</i>
   <i type="int" name="VOSKOWN">     0</i>
   <i type="logical" name="LHFCALC"> F  </i>
   <i type="string" name="PRECFOCK"></i>
   <i type="logical" name="LSYMGRAD"> F  </i>
   <i type="logical" name="LHFONE"> F  </i>
   <i type="logical" name="LRHFCALC"> F  </i>
   <i type="logical" name="LTHOMAS"> F  </i>
   <i type="logical" name="LMODELHF"> F  </i>
   <i name="ENCUT4O">     -1.00000000</i>
   <i type="int" name="EXXOEP">     0</i>
   <i type="int" name="FOURORBIT">     0</i>
   <i name="AEXX">      0.00000000</i>
   <i name="HFALPHA">      0.00000000</i>
   <i name="MCALPHA">      0.00000000</i>
   <i name="ALDAX">      1.00000000</i>
   <i name="AGGAX">      1.00000000</i>
   <i name="ALDAC">      1.00000000</i>
   <i name="AGGAC">      1.00000000</i>
   <i type="int" name="NKREDX">     1</i>
   <i type="int" name="NKREDY">     1</i>
   <i type="int" name="NKREDZ">     1</i>
   <i type="logical" name="SHIFTRED"> F  </i>
   <i type="logical" name="ODDONLY"> F  </i>
   <i type="logical" name="EVENONLY"> F  </i>
   <i type="int" name="LMAXFOCK">     0</i>
   <i type="int" name="NMAXFOCKAE">     0</i>
   <i type="logical" name="LFOCKAEDFT"> F  </i>
   <i name="HFSCREEN">      0.00000000</i>
   <i name="HFSCREENC">      0.00000000</i>
   <i type="int" name="NBANDSGWLOW">     0</i>
  </separator>
  <separator name="vdW DFT" >
   <i type="logical" name="LUSE_VDW"> F  </i>
   <i name="Zab_VDW">     -0.84910000</i>
   <i name="PARAM1">      0.12340000</i>
   <i name="PARAM2">      1.00000000</i>
   <i name="PARAM3">      0.00000000</i>
  </separator>
  <separator name="model GW" >
   <i type="int" name="MODEL_GW">     0</i>
   <i name="MODEL_EPS0">      6.76697801</i>
   <i name="MODEL_ALPHA">      1.00000000</i>
  </separator>
  <separator name="linear response parameters" >
   <i type="logical" name="LEPSILON"> F  </i>
   <i type="logical" name="LRPA"> F  </i>
   <i type="logical" name="LNABLA"> F  </i>
   <i type="logical" name="LVEL"> F  </i>
   <i type="int" name="KINTER">     0</i>
   <i name="CSHIFT">      0.10000000</i>
   <i name="OMEGAMAX">     -1.00000000</i>
   <i name="DEG_THRESHOLD">      0.00200000</i>
   <i name="RTIME">     -0.10000000</i>
   <i name="WPLASMAI">      0.00000000</i>
   <v name="DFIELD">      0.00000000      0.00000000      0.00000000</v>
   <v name="WPLASMA">      0.00000000      0.00000000      0.00000000      0.00000000      0.00000000      0.00000000      0.00000000      0.00000000      0.00000000</v>
  </separator>
  <separator name="orbital magnetization" >
   <i type="logical" name="NUCIND"> F  </i>
   <v name="MAGPOS">      0.00000000      0.00000000      0.00000000</v>
   <i type="logical" name="LNICSALL"> T  </i>
   <i type="logical" name="ORBITALMAG"> F  </i>
   <i type="logical" name="LMAGBLOCH"> F  </i>
   <i type="logical" name="LCHIMAG"> F  </i>
   <i type="logical" name="LGAUGE"> T  </i>
   <i type="int" name="MAGATOM">     0</i>
   <v name="MAGDIPOL">      0.00000000      0.00000000      0.00000000</v>
   <v name="AVECCONST">      0.00000000      0.00000000      0.00000000</v>
  </separator>
  <separator name="response functions" >
   <i type="logical" name="LADDER"> F  </i>
   <i type="logical" name="LRPAFORCE"> F  </i>
   <i type="logical" name="LFXC"> F  </i>
   <i type="logical" name="LHARTREE"> T  </i>
   <i type="int" name="IBSE">     0</i>
   <v type="int" name="KPOINT">    -1     0     0     0</v>
   <i type="logical" name="LTCTE"> F  </i>
   <i type="logical" name="LTETE"> F  </i>
   <i type="logical" name="LTRIPLET"> F  </i>
   <i type="logical" name="LFXCEPS"> F  </i>
   <i type="logical" name="LFXHEG"> F  </i>
   <i type="int" name="NATURALO">     2</i>
   <i type="logical" name="L2ORDER"> F  </i>
   <i type="logical" name="LMP2LT"> F  </i>
   <i type="logical" name="LUSEW"> F  </i>
   <i name="ENCUTGW">     -2.00000000</i>
   <i name="ENCUTGWSOFT">     -2.00000000</i>
   <i name="ENCUTLF">     -1.00000000</i>
   <i type="int" name="LMAXMP2">    -1</i>
   <i name="SCISSOR">      0.00000000</i>
   <i type="int" name="NOMEGA">     0</i>
   <i type="int" name="NOMEGAR">     0</i>
   <i type="int" name="NBANDSGW">    -1</i>
   <i type="int" name="NBANDSO">    -1</i>
   <i type="int" name="NBANDSV">    -1</i>
   <i type="int" name="NELM">     1</i>
   <i type="int" name="NELMHF">     1</i>
   <i type="int" name="DIM">     3</i>
   <i type="int" name="ANTIRES">     0</i>
   <i name="OMEGAMAX">    -30.00000000</i>
   <i name="OMEGAMIN">    -30.00000000</i>
   <i name="OMEGATL">   -200.00000000</i>
   <i type="int" name="OMEGAGRID">   140</i>
   <i name="CSHIFT">     -0.10000000</i>
   <i type="logical" name="SELFENERGY"> F  </i>
   <i type="logical" name="LSPECTRAL"> F  </i>
   <i type="logical" name="LSPECTRALGW"> F  </i>
   <i type="logical" name="LSINGLES"> F  </i>
   <i type="logical" name="LFERMIGW"> F  </i>
   <i type="logical" name="ODDONLYGW"> F  </i>
   <i type="logical" name="EVENONLYGW"> F  </i>
   <i type="int" name="NKREDLFX">     1</i>
   <i type="int" name="NKREDLFY">     1</i>
   <i type="int" name="NKREDLFZ">     1</i>
   <i type="int" name="MAXMEM">  2800</i>
   <i type="int" name="TELESCOPE">     0</i>
   <i type="int" name="TAUPAR">     1</i>
   <i type="int" name="OMEGAPAR">    -1</i>
   <i name="LAMBDA">      1.00000000</i>
  </separator>
  <separator name="External order field" >
   <i name="OFIELD_KAPPA">      0.00000000</i>
   <v name="OFIELD_K">      0.00000000      0.00000000      0.00000000</v>
   <i name="OFIELD_Q6_NEAR">      0.00000000</i>
   <i name="OFIELD_Q6_FAR">      0.00000000</i>
   <i name="OFIELD_A">      0.00000000</i>
  </separator>
 </parameters>
 <atominfo>
  <atoms>      56 </atoms>
  <types>       2 </types>
  <array name="atoms" >
   <dimension dim="1">ion</dimension>
   <field type="string">element</field>
   <field type="int">atomtype</field>
   <set>
    <rc><c>N </c><c>   1</c></rc>
    <rc><c>N </c><c>   1</c></rc>
    <rc><c>N </c><c>   1</c></rc>
    <rc><c>N </c><c>   1</c></rc>
    <rc><c>N </c><c>   1</c></rc>
    <rc><c>N </c><c>   1</c></rc>
    <rc><c>N </c><c>   1</c></rc>
    <rc><c>N </c><c>   1</c></rc>
    <rc><c>N </c><c>   1</c></rc>
    <rc><c>N </c><c>   1</c></rc>
    <rc><c>N </c><c>   1</c></rc>
    <rc><c>N </c><c>   1</c></rc>
    <rc><c>N </c><c>   1</c></rc>
    <rc><c>N </c><c>   1</c></rc>
    <rc><c>N </c><c>   1</c></rc>
    <rc><c>N </c><c>   1</c></rc>
    <rc><c>N </c><c>   1</c></rc>
    <rc><c>N </c><c>   1</c></rc>
    <rc><c>N </c><c>   1</c></rc>
    <rc><c>N </c><c>   1</c></rc>
    <rc><c>N </c><c>   1</c></rc>
    <rc><c>N </c><c>   1</c></rc>
    <rc><c>N </c><c>   1</c></rc>
    <rc><c>N </c><c>   1</c></rc>
    <rc><c>Si</c><c>   2</c></rc>
    <rc><c>Si</c><c>   2</c></rc>
    <rc><c>Si</c><c>   2</c></rc>
    <rc><c>Si</c><c>   2</c></rc>
    <rc><c>Si</c><c>   2</c></rc>
    <rc><c>Si</c><c>   2</c></rc>
    <rc><c>Si</c><c>   2</c></rc>
    <rc><c>Si</c><c>   2</c></rc>
    <rc><c>Si</c><c>   2</c></rc>
    <rc><c>Si</c><c>   2</c></rc>
    <rc><c>Si</c><c>   2</c></rc>
    <rc><c>Si</c><c>   2</c></rc>
    <rc><c>Si</c><c>   2</c></rc>
    <rc><c>Si</c><c>   2</c></rc>
    <rc><c>Si</c><c>   2</c></rc>
    <rc><c>Si</c><c>   2</c></rc>
    <rc><c>Si</c><c>   2</c></rc>
    <rc><c>Si</c><c>   2</c></rc>
    <rc><c>Si</c><c>   2</c></rc>
    <rc><c>Si</c><c>   2</c></rc>
    <rc><c>Si</c><c>   2</c></rc>
    <rc><c>Si</c><c>   2</c></rc>
    <rc><c>Si</c><c>   2</c></rc>
    <rc><c>Si</c><c>   2</c></rc>
    <rc><c>Si</c><c>   2</c></rc>
    <rc><c>Si</c><c>   2</c></rc>
    <rc><c>Si</c><c>   2</c></rc>
    <rc><c>Si</c><c>   2</c></rc>
    <rc><c>Si</c><c>   2</c></rc>
    <rc><c>Si</c><c>   2</c></rc>
    <rc><c>Si</c><c>   2</c></rc>
    <rc><c>Si</c><c>   2</c></rc>
   </set>
  </array>
  <array name="atomtypes" >
   <dimension dim="1">type</dimension>
   <field type="int">atomspertype</field>
   <field type="string">element</field>
   <field>mass</field>
   <field>valence</field>
   <field type="string">pseudopotential</field>
   <set>
    <rc><c>  24</c><c>N </c><c>     14.00100000</c><c>      5.00000000</c><c>  PAW_PBE N 08Apr2002                   </c></rc>
    <rc><c>  32</c><c>Si</c><c>     28.08500000</c><c>      4.00000000</c><c>  PAW_PBE Si 05Jan2001                  </c></rc>
   </set>
  </array>
 </atominfo>
 <structure name="initialpos" >
  <crystal>
   <varray name="basis" >
    <v>       8.57980032       0.00000000       0.00000000 </v>
    <v>       0.00000000       8.57980032       0.00000000 </v>
    <v>       0.00000000       0.00000000       8.57980032 </v>
   </varray>
   <i name="volume">    631.58461394 </i>
   <varray name="rec_basis" >
    <v>       0.11655283      -0.00000000       0.00000000 </v>
    <v>      -0.00000000       0.11655283       0.00000000 </v>
    <v>      -0.00000000      -0.00000000       0.11655283 </v>
   </varray>
  </crystal>
  <varray name="positions" >
   <v>       0.87500000       0.87500000       0.12500000 </v>
   <v>       0.37500000       0.12500000       0.37500000 </v>
   <v>       0.62500000       0.87500000       0.37500000 </v>
   <v>       0.12500000       0.12500000       0.12500000 </v>
   <v>       0.25000000       0.75000000       0.25000000 </v>
   <v>       0.00000000       0.00000000       0.50000000 </v>
   <v>       0.87500000       0.37500000       0.62500000 </v>
   <v>       0.37500000       0.62500000       0.87500000 </v>
   <v>       0.62500000       0.37500000       0.87500000 </v>
   <v>       0.12500000       0.62500000       0.62500000 </v>
   <v>       0.25000000       0.25000000       0.75000000 </v>
   <v>       0.00000000       0.50000000       0.00000000 </v>
   <v>       0.37500000       0.87500000       0.62500000 </v>
   <v>       0.87500000       0.12500000       0.87500000 </v>
   <v>       0.12500000       0.87500000       0.87500000 </v>
   <v>       0.62500000       0.12500000       0.62500000 </v>
   <v>       0.75000000       0.75000000       0.75000000 </v>
   <v>       0.50000000       0.00000000       0.00000000 </v>
   <v>       0.37500000       0.37500000       0.12500000 </v>
   <v>       0.87500000       0.62500000       0.37500000 </v>
   <v>       0.12500000       0.37500000       0.37500000 </v>
   <v>       0.62500000       0.62500000       0.12500000 </v>
   <v>       0.75000000       0.25000000       0.25000000 </v>
   <v>       0.50000000       0.50000000       0.50000000 </v>
   <v>       0.37630293       0.37630293       0.37630293 </v>
   <v>       0.87369707       0.12630293       0.12630293 </v>
   <v>       0.62630293       0.12630293       0.37369707 </v>
   <v>       0.12630293       0.87369707       0.12630293 </v>
   <v>       0.12369707       0.12369707       0.37630293 </v>
   <v>       0.12369707       0.37630293       0.12369707 </v>
   <v>       0.37369707       0.87369707       0.37369707 </v>
   <v>       0.37630293       0.12369707       0.12369707 </v>
   <v>       0.37630293       0.87630293       0.87630293 </v>
   <v>       0.87369707       0.62630293       0.62630293 </v>
   <v>       0.62630293       0.62630293       0.87369707 </v>
   <v>       0.12630293       0.37369707       0.62630293 </v>
   <v>       0.12369707       0.62369707       0.87630293 </v>
   <v>       0.12369707       0.87630293       0.62369707 </v>
   <v>       0.37369707       0.37369707       0.87369707 </v>
   <v>       0.37630293       0.62369707       0.62369707 </v>
   <v>       0.87630293       0.37630293       0.87630293 </v>
   <v>       0.37369707       0.12630293       0.62630293 </v>
   <v>       0.12630293       0.12630293       0.87369707 </v>
   <v>       0.62630293       0.87369707       0.62630293 </v>
   <v>       0.62369707       0.12369707       0.87630293 </v>
   <v>       0.62369707       0.37630293       0.62369707 </v>
   <v>       0.87369707       0.87369707       0.87369707 </v>
   <v>       0.87630293       0.12369707       0.62369707 </v>
   <v>       0.87630293       0.87630293       0.37630293 </v>
   <v>       0.37369707       0.62630293       0.12630293 </v>
   <v>       0.12630293       0.62630293       0.37369707 </v>
   <v>       0.62630293       0.37369707       0.12630293 </v>
   <v>       0.62369707       0.62369707       0.37630293 </v>
   <v>       0.62369707       0.87630293       0.12369707 </v>
   <v>       0.87369707       0.37369707       0.37369707 </v>
   <v>       0.87630293       0.62369707       0.12369707 </v>
  </varray>
 </structure>
 <calculation>
  <scstep>
   <time name="dav">    6.75    6.77</time>
   <time name="total">    6.83    7.10</time>
   <energy>
    <i name="alphaZ">    308.82396720 </i>
    <i name="ewald">  -9694.94724655 </i>
    <i name="hartreedc">  -1517.94840913 </i>
    <i name="XCdc">    195.14231063 </i>
    <i name="pawpsdc">   7738.34714636 </i>
    <i name="pawaedc">  -7203.94574617 </i>
    <i name="eentropy">     -0.00340972 </i>
    <i name="bandstr">   1400.55509182 </i>
    <i name="atom">   9645.50393724 </i>
    <i name="e_fr_energy">    871.52764168 </i>
    <i name="e_wo_entrp">    871.53105140 </i>
    <i name="e_0_energy">    871.52849411 </i>
   </energy>
  </scstep>
  <scstep>
   <time name="dav">    8.03    8.04</time>
   <time name="total">    8.03    8.04</time>
   <energy>
    <i name="e_fr_energy">   -248.13882748 </i>
    <i name="e_wo_entrp">   -248.12466132 </i>
    <i name="e_0_energy">   -248.13528594 </i>
   </energy>
  </scstep>
  <scstep>
   <time name="dav">    8.06    8.08</time>
   <time name="total">    8.07    8.09</time>
   <energy>
    <i name="e_fr_energy">   -353.27794163 </i>
    <i name="e_wo_entrp">   -353.27600859 </i>
    <i name="e_0_energy">   -353.27745837 </i>
   </energy>
  </scstep>
  <scstep>
   <time name="dav">    8.17    8.17</time>
   <time name="total">    8.17    8.17</time>
   <energy>
    <i name="e_fr_energy">   -357.06760858 </i>
    <i name="e_wo_entrp">   -357.06074239 </i>
    <i name="e_0_energy">   -357.06589203 </i>
   </energy>
  </scstep>
  <scstep>
   <time name="dav">    7.99    7.99</time>
   <time name="total">    8.28    8.30</time>
   <energy>
    <i name="e_fr_energy">   -357.17751766 </i>
    <i name="e_wo_entrp">   -357.17059809 </i>
    <i name="e_0_energy">   -357.17578777 </i>
   </energy>
  </scstep>
  <scstep>
   <time name="diag">    0.79    0.79</time>
   <time name="diis">    4.25    4.25</time>
   <time name="orth">    0.11    0.11</time>
   <time name="total">    5.51    5.51</time>
   <energy>
    <i name="e_fr_energy">   -331.12337647 </i>
    <i name="e_wo_entrp">   -331.14111328 </i>
    <i name="e_0_energy">   -331.12781067 </i>
   </energy>
  </scstep>
  <scstep>
   <time name="diag">    0.78    0.78</time>
   <time name="diis">    4.48    4.48</time>
   <time name="orth">    0.11    0.11</time>
   <time name="total">    5.74    5.74</time>
   <energy>
    <i name="e_fr_energy">   -330.46993556 </i>
    <i name="e_wo_entrp">   -330.48839120 </i>
    <i name="e_0_energy">   -330.47454947 </i>
   </energy>
  </scstep>
  <scstep>
   <time name="diag">    0.78    0.78</time>
   <time name="diis">    4.29    4.29</time>
   <time name="orth">    0.11    0.11</time>
   <time name="total">    5.55    5.55</time>
   <energy>
    <i name="e_fr_energy">   -330.37693884 </i>
    <i name="e_wo_entrp">   -330.39520249 </i>
    <i name="e_0_energy">   -330.38150476 </i>
   </energy>
  </scstep>
  <scstep>
   <time name="diag">    0.77    0.77</time>
   <time name="diis">    4.27    4.26</time>
   <time name="orth">    0.11    0.11</time>
   <time name="total">    5.52    5.52</time>
   <energy>
    <i name="e_fr_energy">   -330.20208711 </i>
    <i name="e_wo_entrp">   -330.22092411 </i>
    <i name="e_0_energy">   -330.20679636 </i>
   </energy>
  </scstep>
  <scstep>
   <time name="diag">    0.77    0.77</time>
   <time name="diis">    4.52    4.52</time>
   <time name="orth">    0.11    0.11</time>
   <time name="total">    5.77    5.77</time>
   <energy>
    <i name="e_fr_energy">   -330.19485696 </i>
    <i name="e_wo_entrp">   -330.21350466 </i>
    <i name="e_0_energy">   -330.19951889 </i>
   </energy>
  </scstep>
  <scstep>
   <time name="diag">    0.76    0.77</time>
   <time name="diis">    4.45    4.46</time>
   <time name="orth">    0.11    0.11</time>
   <time name="total">    5.70    5.70</time>
   <energy>
    <i name="e_fr_energy">   -330.19607259 </i>
    <i name="e_wo_entrp">   -330.21459154 </i>
    <i name="e_0_energy">   -330.20070232 </i>
   </energy>
  </scstep>
  <scstep>
   <time name="diag">    0.77    0.77</time>
   <time name="diis">    4.54    4.54</time>
   <time name="orth">    0.11    0.11</time>
   <time name="total">    5.79    5.79</time>
   <energy>
    <i name="e_fr_energy">   -330.19594171 </i>
    <i name="e_wo_entrp">   -330.21455597 </i>
    <i name="e_0_energy">   -330.20059528 </i>
   </energy>
  </scstep>
  <scstep>
   <time name="diag">    0.76    0.76</time>
   <time name="diis">    2.86    2.86</time>
   <time name="orth">    0.11    0.11</time>
   <time name="total">    3.81    3.81</time>
   <energy>
    <i name="alphaZ">    308.82396720 </i>
    <i name="ewald">  -9694.94724655 </i>
    <i name="hartreedc">  -1755.49861519 </i>
    <i name="XCdc">    211.80666400 </i>
    <i name="pawpsdc">  21575.17689633 </i>
    <i name="pawaedc"> -21042.67688799 </i>
    <i name="eentropy">      0.01860992 </i>
    <i name="bandstr">    421.59679310 </i>
    <i name="atom">   9645.50393724 </i>
    <i name="e_fr_energy">   -330.19588195 </i>
    <i name="e_wo_entrp">   -330.21449187 </i>
    <i name="e_0_energy">   -330.20053443 </i>
   </energy>
  </scstep>
  <structure>
   <crystal>
    <varray name="basis" >
     <v>       8.57980032       0.00000000       0.00000000 </v>
     <v>       0.00000000       8.57980032       0.00000000 </v>
     <v>       0.00000000       0.00000000       8.57980032 </v>
    </varray>
    <i name="volume">    631.58461394 </i>
    <varray name="rec_basis" >
     <v>       0.11655283      -0.00000000       0.00000000 </v>
     <v>      -0.00000000       0.11655283       0.00000000 </v>
     <v>      -0.00000000      -0.00000000       0.11655283 </v>
    </varray>
   </crystal>
   <varray name="positions" >
    <v>       0.87500000       0.87500000       0.12500000 </v>
    <v>       0.37500000       0.12500000       0.37500000 </v>
    <v>       0.62500000       0.87500000       0.37500000 </v>
    <v>       0.12500000       0.12500000       0.12500000 </v>
    <v>       0.25000000       0.75000000       0.25000000 </v>
    <v>       0.00000000       0.00000000       0.50000000 </v>
    <v>       0.87500000       0.37500000       0.62500000 </v>
    <v>       0.37500000       0.62500000       0.87500000 </v>
    <v>       0.62500000       0.37500000       0.87500000 </v>
    <v>       0.12500000       0.62500000       0.62500000 </v>
    <v>       0.25000000       0.25000000       0.75000000 </v>
    <v>       0.00000000       0.50000000       0.00000000 </v>
    <v>       0.37500000       0.87500000       0.62500000 </v>
    <v>       0.87500000       0.12500000       0.87500000 </v>
    <v>       0.12500000       0.87500000       0.87500000 </v>
    <v>       0.62500000       0.12500000       0.62500000 </v>
    <v>       0.75000000       0.75000000       0.75000000 </v>
    <v>       0.50000000       0.00000000       0.00000000 </v>
    <v>       0.37500000       0.37500000       0.12500000 </v>
    <v>       0.87500000       0.62500000       0.37500000 </v>
    <v>       0.12500000       0.37500000       0.37500000 </v>
    <v>       0.62500000       0.62500000       0.12500000 </v>
    <v>       0.75000000       0.25000000       0.25000000 </v>
    <v>       0.50000000       0.50000000       0.50000000 </v>
    <v>       0.37630293       0.37630293       0.37630293 </v>
    <v>       0.87369707       0.12630293       0.12630293 </v>
    <v>       0.62630293       0.12630293       0.37369707 </v>
    <v>       0.12630293       0.87369707       0.12630293 </v>
    <v>       0.12369707       0.12369707       0.37630293 </v>
    <v>       0.12369707       0.37630293       0.12369707 </v>
    <v>       0.37369707       0.87369707       0.37369707 </v>
    <v>       0.37630293       0.12369707       0.12369707 </v>
    <v>       0.37630293       0.87630293       0.87630293 </v>
    <v>       0.87369707       0.62630293       0.62630293 </v>
    <v>       0.62630293       0.62630293       0.87369707 </v>
    <v>       0.12630293       0.37369707       0.62630293 </v>
    <v>       0.12369707       0.62369707       0.87630293 </v>
    <v>       0.12369707       0.87630293       0.62369707 </v>
    <v>       0.37369707       0.37369707       0.87369707 </v>
    <v>       0.37630293       0.62369707       0.62369707 </v>
    <v>       0.87630293       0.37630293       0.87630293 </v>
    <v>       0.37369707       0.12630293       0.62630293 </v>
    <v>       0.12630293       0.12630293       0.87369707 </v>
    <v>       0.62630293       0.87369707       0.62630293 </v>
    <v>       0.62369707       0.12369707       0.87630293 </v>
    <v>       0.62369707       0.37630293       0.62369707 </v>
    <v>       0.87369707       0.87369707       0.87369707 </v>
    <v>       0.87630293       0.12369707       0.62369707 </v>
    <v>       0.87630293       0.87630293       0.37630293 </v>
    <v>       0.37369707       0.62630293       0.12630293 </v>
    <v>       0.12630293       0.62630293       0.37369707 </v>
    <v>       0.62630293       0.37369707       0.12630293 </v>
    <v>       0.62369707       0.62369707       0.37630293 </v>
    <v>       0.62369707       0.87630293       0.12369707 </v>
    <v>       0.87369707       0.37369707       0.37369707 </v>
    <v>       0.87630293       0.62369707       0.12369707 </v>
   </varray>
  </structure>
  <varray name="forces" >
   <v>       0.00000000      -0.00000000      -0.00000000 </v>
   <v>       0.00000000      -0.00000000      -0.00000000 </v>
   <v>       0.00000000      -0.00000000      -0.00000000 </v>
   <v>       0.00000000      -0.00000000      -0.00000000 </v>
   <v>       0.00000000      -0.00000000      -0.00000000 </v>
   <v>       0.00000000      -0.00000000      -0.00000000 </v>
   <v>       0.00000000      -0.00000000      -0.00000000 </v>
   <v>       0.00000000      -0.00000000      -0.00000000 </v>
   <v>       0.00000000      -0.00000000      -0.00000000 </v>
   <v>       0.00000000      -0.00000000      -0.00000000 </v>
   <v>       0.00000000      -0.00000000      -0.00000000 </v>
   <v>       0.00000000      -0.00000000      -0.00000000 </v>
   <v>       0.00000000      -0.00000000      -0.00000000 </v>
   <v>       0.00000000      -0.00000000      -0.00000000 </v>
   <v>       0.00000000      -0.00000000      -0.00000000 </v>
   <v>       0.00000000      -0.00000000      -0.00000000 </v>
   <v>       0.00000000      -0.00000000      -0.00000000 </v>
   <v>       0.00000000      -0.00000000      -0.00000000 </v>
   <v>       0.00000000      -0.00000000      -0.00000000 </v>
   <v>       0.00000000      -0.00000000      -0.00000000 </v>
   <v>       0.00000000      -0.00000000      -0.00000000 </v>
   <v>       0.00000000      -0.00000000      -0.00000000 </v>
   <v>       0.00000000      -0.00000000      -0.00000000 </v>
   <v>       0.00000000      -0.00000000      -0.00000000 </v>
   <v>      -0.03876495      -0.03876495      -0.03876495 </v>
   <v>       0.03876495      -0.03876495      -0.03876495 </v>
   <v>      -0.03876495      -0.03876495       0.03876495 </v>
   <v>      -0.03876495       0.03876495      -0.03876495 </v>
   <v>       0.03876495       0.03876495      -0.03876495 </v>
   <v>       0.03876495      -0.03876495       0.03876495 </v>
   <v>       0.03876495       0.03876495       0.03876495 </v>
   <v>      -0.03876495       0.03876495       0.03876495 </v>
   <v>      -0.03876495      -0.03876495      -0.03876495 </v>
   <v>       0.03876495      -0.03876495      -0.03876495 </v>
   <v>      -0.03876495      -0.03876495       0.03876495 </v>
   <v>      -0.03876495       0.03876495      -0.03876495 </v>
   <v>       0.03876495       0.03876495      -0.03876495 </v>
   <v>       0.03876495      -0.03876495       0.03876495 </v>
   <v>       0.03876495       0.03876495       0.03876495 </v>
   <v>      -0.03876495       0.03876495       0.03876495 </v>
   <v>      -0.03876495      -0.03876495      -0.03876495 </v>
   <v>       0.03876495      -0.03876495      -0.03876495 </v>
   <v>      -0.03876495      -0.03876495       0.03876495 </v>
   <v>      -0.03876495       0.03876495      -0.03876495 </v>
   <v>       0.03876495       0.03876495      -0.03876495 </v>
   <v>       0.03876495      -0.03876495       0.03876495 </v>
   <v>       0.03876495       0.03876495       0.03876495 </v>
   <v>      -0.03876495       0.03876495       0.03876495 </v>
   <v>      -0.03876495      -0.03876495      -0.03876495 </v>
   <v>       0.03876495      -0.03876495      -0.03876495 </v>
   <v>      -0.03876495      -0.03876495       0.03876495 </v>
   <v>      -0.03876495       0.03876495      -0.03876495 </v>
   <v>       0.03876495       0.03876495      -0.03876495 </v>
   <v>       0.03876495      -0.03876495       0.03876495 </v>
   <v>       0.03876495       0.03876495       0.03876495 </v>
   <v>      -0.03876495       0.03876495       0.03876495 </v>
  </varray>
  <varray name="stress" >
   <v>      18.62508303       0.00000000       0.00000000 </v>
   <v>       0.00000000      18.62508303       0.00000000 </v>
   <v>       0.00000000       0.00000000      18.62508303 </v>
  </varray>
  <energy>
   <i name="e_fr_energy">   -330.19588195 </i>
   <i name="e_wo_entrp">   -330.20053443 </i>
   <i name="e_0_energy">      0.01860992 </i>
  </energy>
  <time name="totalsc">   92.03   92.41</time>
 </calculation>
 <calculation>
  <scstep>
   <time name="dav">    7.70    7.70</time>
   <time name="total">    8.07    8.07</time>
   <energy>
    <i name="alphaZ">    308.82396720 </i>
    <i name="ewald">  -9694.38868009 </i>
    <i name="hartreedc">  -1756.49185314 </i>
    <i name="XCdc">    211.79994527 </i>
    <i name="pawpsdc">  21567.51122848 </i>
    <i name="pawaedc"> -21035.00868360 </i>
    <i name="eentropy">      0.01769903 </i>
    <i name="bandstr">    422.03602706 </i>
    <i name="atom">   9645.50393724 </i>
    <i name="e_fr_energy">   -330.19641256 </i>
    <i name="e_wo_entrp">   -330.21411159 </i>
    <i name="e_0_energy">   -330.20083732 </i>
   </energy>
  </scstep>
  <scstep>
   <time name="diag">    0.77    0.77</time>
   <time name="diis">    4.26    4.26</time>
   <time name="orth">    0.11    0.11</time>
   <time name="total">    5.51    5.52</time>
   <energy>
    <i name="e_fr_energy">   -330.19731891 </i>
    <i name="e_wo_entrp">   -330.21499680 </i>
    <i name="e_0_energy">   -330.20173838 </i>
   </energy>
  </scstep>
  <scstep>
   <time name="diag">    0.76    0.76</time>
   <time name="diis">    3.32    3.32</time>
   <time name="orth">    0.11    0.11</time>
   <time name="total">    4.56    4.56</time>
   <energy>
    <i name="e_fr_energy">   -330.19720349 </i>
    <i name="e_wo_entrp">   -330.21497848 </i>
    <i name="e_0_energy">   -330.20164724 </i>
   </energy>
  </scstep>
  <scstep>
   <time name="diag">    0.76    0.76</time>
   <time name="diis">    3.89    3.89</time>
   <time name="orth">    0.11    0.11</time>
   <time name="total">    4.83    4.84</time>
   <energy>
    <i name="alphaZ">    308.82396720 </i>
    <i name="ewald">  -9694.38868009 </i>
    <i name="hartreedc">  -1756.26195605 </i>
    <i name="XCdc">    211.78572707 </i>
    <i name="pawpsdc">  21542.33181491 </i>
    <i name="pawaedc"> -21009.81946487 </i>
    <i name="eentropy">      0.01795093 </i>
    <i name="bandstr">    421.80954095 </i>
    <i name="atom">   9645.50393724 </i>
    <i name="e_fr_energy">   -330.19716270 </i>
    <i name="e_wo_entrp">   -330.21511363 </i>
    <i name="e_0_energy">   -330.20165043 </i>
   </energy>
  </scstep>
  <structure>
   <crystal>
    <varray name="basis" >
     <v>       8.57980032       0.00000000       0.00000000 </v>
     <v>       0.00000000       8.57980032       0.00000000 </v>
     <v>       0.00000000       0.00000000       8.57980032 </v>
    </varray>
    <i name="volume">    631.58461394 </i>
    <varray name="rec_basis" >
     <v>       0.11655283      -0.00000000       0.00000000 </v>
     <v>      -0.00000000       0.11655283       0.00000000 </v>
     <v>      -0.00000000      -0.00000000       0.11655283 </v>
    </varray>
   </crystal>
   <varray name="positions" >
    <v>       0.87500000       0.87500000       0.12500000 </v>
    <v>       0.37500000       0.12500000       0.37500000 </v>
    <v>       0.62500000       0.87500000       0.37500000 </v>
    <v>       0.12500000       0.12500000       0.12500000 </v>
    <v>       0.25000000       0.75000000       0.25000000 </v>
    <v>       0.00000000      -0.00000000       0.50000000 </v>
    <v>       0.87500000       0.37500000       0.62500000 </v>
    <v>       0.37500000       0.62500000       0.87500000 </v>
    <v>       0.62500000       0.37500000       0.87500000 </v>
    <v>       0.12500000       0.62500000       0.62500000 </v>
    <v>       0.25000000       0.25000000       0.75000000 </v>
    <v>       0.00000000       0.50000000      -0.00000000 </v>
    <v>       0.37500000       0.87500000       0.62500000 </v>
    <v>       0.87500000       0.12500000       0.87500000 </v>
    <v>       0.12500000       0.87500000       0.87500000 </v>
    <v>       0.62500000       0.12500000       0.62500000 </v>
    <v>       0.75000000       0.75000000       0.75000000 </v>
    <v>       0.50000000      -0.00000000      -0.00000000 </v>
    <v>       0.37500000       0.37500000       0.12500000 </v>
    <v>       0.87500000       0.62500000       0.37500000 </v>
    <v>       0.12500000       0.37500000       0.37500000 </v>
    <v>       0.62500000       0.62500000       0.12500000 </v>
    <v>       0.75000000       0.25000000       0.25000000 </v>
    <v>       0.50000000       0.50000000       0.50000000 </v>
    <v>       0.37608497       0.37608497       0.37608497 </v>
    <v>       0.87391503       0.12608497       0.12608497 </v>
    <v>       0.62608497       0.12608497       0.37391503 </v>
    <v>       0.12608497       0.87391503       0.12608497 </v>
    <v>       0.12391503       0.12391503       0.37608497 </v>
    <v>       0.12391503       0.37608497       0.12391503 </v>
    <v>       0.37391503       0.87391503       0.37391503 </v>
    <v>       0.37608497       0.12391503       0.12391503 </v>
    <v>       0.37608497       0.87608497       0.87608497 </v>
    <v>       0.87391503       0.62608497       0.62608497 </v>
    <v>       0.62608497       0.62608497       0.87391503 </v>
    <v>       0.12608497       0.37391503       0.62608497 </v>
    <v>       0.12391503       0.62391503       0.87608497 </v>
    <v>       0.12391503       0.87608497       0.62391503 </v>
    <v>       0.37391503       0.37391503       0.87391503 </v>
    <v>       0.37608497       0.62391503       0.62391503 </v>
    <v>       0.87608497       0.37608497       0.87608497 </v>
    <v>       0.37391503       0.12608497       0.62608497 </v>
    <v>       0.12608497       0.12608497       0.87391503 </v>
    <v>       0.62608497       0.87391503       0.62608497 </v>
    <v>       0.62391503       0.12391503       0.87608497 </v>
    <v>       0.62391503       0.37608497       0.62391503 </v>
    <v>       0.87391503       0.87391503       0.87391503 </v>
    <v>       0.87608497       0.12391503       0.62391503 </v>
    <v>       0.87608497       0.87608497       0.37608497 </v>
    <v>       0.37391503       0.62608497       0.12608497 </v>
    <v>       0.12608497       0.62608497       0.37391503 </v>
    <v>       0.62608497       0.37391503       0.12608497 </v>
    <v>       0.62391503       0.62391503       0.37608497 </v>
    <v>       0.62391503       0.87608497       0.12391503 </v>
    <v>       0.87391503       0.37391503       0.37391503 </v>
    <v>       0.87608497       0.62391503       0.12391503 </v>
   </varray>
  </structure>
  <varray name="forces" >
   <v>      -0.00000000       0.00000000      -0.00000000 </v>
   <v>      -0.00000000       0.00000000      -0.00000000 </v>
   <v>      -0.00000000       0.00000000      -0.00000000 </v>
   <v>      -0.00000000       0.00000000      -0.00000000 </v>
   <v>      -0.00000000       0.00000000      -0.00000000 </v>
   <v>      -0.00000000       0.00000000      -0.00000000 </v>
   <v>      -0.00000000       0.00000000      -0.00000000 </v>
   <v>      -0.00000000       0.00000000      -0.00000000 </v>
   <v>      -0.00000000       0.00000000      -0.00000000 </v>
   <v>      -0.00000000       0.00000000      -0.00000000 </v>
   <v>      -0.00000000       0.00000000      -0.00000000 </v>
   <v>      -0.00000000       0.00000000      -0.00000000 </v>
   <v>      -0.00000000       0.00000000      -0.00000000 </v>
   <v>      -0.00000000       0.00000000      -0.00000000 </v>
   <v>      -0.00000000       0.00000000      -0.00000000 </v>
   <v>      -0.00000000       0.00000000      -0.00000000 </v>
   <v>      -0.00000000       0.00000000      -0.00000000 </v>
   <v>      -0.00000000       0.00000000      -0.00000000 </v>
   <v>      -0.00000000       0.00000000      -0.00000000 </v>
   <v>      -0.00000000       0.00000000      -0.00000000 </v>
   <v>      -0.00000000       0.00000000      -0.00000000 </v>
   <v>      -0.00000000       0.00000000      -0.00000000 </v>
   <v>      -0.00000000       0.00000000      -0.00000000 </v>
   <v>      -0.00000000       0.00000000      -0.00000000 </v>
   <v>       0.02399216       0.02399216       0.02399216 </v>
   <v>      -0.02399216       0.02399216       0.02399216 </v>
   <v>       0.02399216       0.02399216      -0.02399216 </v>
   <v>       0.02399216      -0.02399216       0.02399216 </v>
   <v>      -0.02399216      -0.02399216       0.02399216 </v>
   <v>      -0.02399216       0.02399216      -0.02399216 </v>
   <v>      -0.02399216      -0.02399216      -0.02399216 </v>
   <v>       0.02399216      -0.02399216      -0.02399216 </v>
   <v>       0.02399216       0.02399216       0.02399216 </v>
   <v>      -0.02399216       0.02399216       0.02399216 </v>
   <v>       0.02399216       0.02399216      -0.02399216 </v>
   <v>       0.02399216      -0.02399216       0.02399216 </v>
   <v>      -0.02399216      -0.02399216       0.02399216 </v>
   <v>      -0.02399216       0.02399216      -0.02399216 </v>
   <v>      -0.02399216      -0.02399216      -0.02399216 </v>
   <v>       0.02399216      -0.02399216      -0.02399216 </v>
   <v>       0.02399216       0.02399216       0.02399216 </v>
   <v>      -0.02399216       0.02399216       0.02399216 </v>
   <v>       0.02399216       0.02399216      -0.02399216 </v>
   <v>       0.02399216      -0.02399216       0.02399216 </v>
   <v>      -0.02399216      -0.02399216       0.02399216 </v>
   <v>      -0.02399216       0.02399216      -0.02399216 </v>
   <v>      -0.02399216      -0.02399216      -0.02399216 </v>
   <v>       0.02399216      -0.02399216      -0.02399216 </v>
   <v>       0.02399216       0.02399216       0.02399216 </v>
   <v>      -0.02399216       0.02399216       0.02399216 </v>
   <v>       0.02399216       0.02399216      -0.02399216 </v>
   <v>       0.02399216      -0.02399216       0.02399216 </v>
   <v>      -0.02399216      -0.02399216       0.02399216 </v>
   <v>      -0.02399216       0.02399216      -0.02399216 </v>
   <v>      -0.02399216      -0.02399216      -0.02399216 </v>
   <v>       0.02399216      -0.02399216      -0.02399216 </v>
  </varray>
  <varray name="stress" >
   <v>      19.31836019       0.00000000       0.00000000 </v>
   <v>       0.00000000      19.31836019       0.00000000 </v>
   <v>       0.00000000       0.00000000      19.31836019 </v>
  </varray>
  <energy>
   <i name="e_fr_energy">   -330.19716270 </i>
   <i name="e_wo_entrp">   -330.20165043 </i>
   <i name="e_0_energy">      0.01795093 </i>
  </energy>
  <time name="totalsc">   32.20   32.24</time>
 </calculation>
 <calculation>
  <scstep>
   <time name="dav">    7.28    7.28</time>
   <time name="total">    7.65    7.65</time>
   <energy>
    <i name="alphaZ">    308.82396720 </i>
    <i name="ewald">  -9694.61255148 </i>
    <i name="hartreedc">  -1755.67436878 </i>
    <i name="XCdc">    211.77536438 </i>
    <i name="pawpsdc">  21534.15422977 </i>
    <i name="pawaedc"> -21001.63943363 </i>
    <i name="eentropy">      0.01827137 </i>
    <i name="bandstr">    421.45262412 </i>
    <i name="atom">   9645.50393724 </i>
    <i name="e_fr_energy">   -330.19795981 </i>
    <i name="e_wo_entrp">   -330.21623118 </i>
    <i name="e_0_energy">   -330.20252765 </i>
   </energy>
  </scstep>
  <scstep>
   <time name="diag">    0.76    0.76</time>
   <time name="diis">    4.02    4.02</time>
   <time name="orth">    0.11    0.11</time>
   <time name="total">    5.26    5.26</time>
   <energy>
    <i name="e_fr_energy">   -330.19801910 </i>
    <i name="e_wo_entrp">   -330.21624876 </i>
    <i name="e_0_energy">   -330.20257651 </i>
   </energy>
  </scstep>
  <scstep>
   <time name="diag">    0.77    0.77</time>
   <time name="diis">    2.42    2.42</time>
   <time name="orth">    0.11    0.11</time>
   <time name="total">    3.37    3.38</time>
   <energy>
    <i name="alphaZ">    308.82396720 </i>
    <i name="ewald">  -9694.61255148 </i>
    <i name="hartreedc">  -1755.86805500 </i>
    <i name="XCdc">    211.78622330 </i>
    <i name="pawpsdc">  21539.47796992 </i>
    <i name="pawaedc"> -21006.96648311 </i>
    <i name="eentropy">      0.01817940 </i>
    <i name="bandstr">    421.63881768 </i>
    <i name="atom">   9645.50393724 </i>
    <i name="e_fr_energy">   -330.19799486 </i>
    <i name="e_wo_entrp">   -330.21617426 </i>
    <i name="e_0_energy">   -330.20253971 </i>
   </energy>
  </scstep>
  <structure>
   <crystal>
    <varray name="basis" >
     <v>       8.57980032       0.00000000       0.00000000 </v>
     <v>       0.00000000       8.57980032       0.00000000 </v>
     <v>       0.00000000       0.00000000       8.57980032 </v>
    </varray>
    <i name="volume">    631.58461394 </i>
    <varray name="rec_basis" >
     <v>       0.11655283      -0.00000000       0.00000000 </v>
     <v>      -0.00000000       0.11655283       0.00000000 </v>
     <v>      -0.00000000      -0.00000000       0.11655283 </v>
    </varray>
   </crystal>
   <varray name="positions" >
    <v>       0.87500000       0.87500000       0.12500000 </v>
    <v>       0.37500000       0.12500000       0.37500000 </v>
    <v>       0.62500000       0.87500000       0.37500000 </v>
    <v>       0.12500000       0.12500000       0.12500000 </v>
    <v>       0.25000000       0.75000000       0.25000000 </v>
    <v>       0.00000000      -0.00000000       0.50000000 </v>
    <v>       0.87500000       0.37500000       0.62500000 </v>
    <v>       0.37500000       0.62500000       0.87500000 </v>
    <v>       0.62500000       0.37500000       0.87500000 </v>
    <v>       0.12500000       0.62500000       0.62500000 </v>
    <v>       0.25000000       0.25000000       0.75000000 </v>
    <v>       0.00000000       0.50000000      -0.00000000 </v>
    <v>       0.37500000       0.87500000       0.62500000 </v>
    <v>       0.87500000       0.12500000       0.87500000 </v>
    <v>       0.12500000       0.87500000       0.87500000 </v>
    <v>       0.62500000       0.12500000       0.62500000 </v>
    <v>       0.75000000       0.75000000       0.75000000 </v>
    <v>       0.50000000      -0.00000000      -0.00000000 </v>
    <v>       0.37500000       0.37500000       0.12500000 </v>
    <v>       0.87500000       0.62500000       0.37500000 </v>
    <v>       0.12500000       0.37500000       0.37500000 </v>
    <v>       0.62500000       0.62500000       0.12500000 </v>
    <v>       0.75000000       0.25000000       0.25000000 </v>
    <v>       0.50000000       0.50000000       0.50000000 </v>
    <v>       0.37616829       0.37616829       0.37616829 </v>
    <v>       0.87383171       0.12616829       0.12616829 </v>
    <v>       0.62616829       0.12616829       0.37383171 </v>
    <v>       0.12616829       0.87383171       0.12616829 </v>
    <v>       0.12383171       0.12383171       0.37616829 </v>
    <v>       0.12383171       0.37616829       0.12383171 </v>
    <v>       0.37383171       0.87383171       0.37383171 </v>
    <v>       0.37616829       0.12383171       0.12383171 </v>
    <v>       0.37616829       0.87616829       0.87616829 </v>
    <v>       0.87383171       0.62616829       0.62616829 </v>
    <v>       0.62616829       0.62616829       0.87383171 </v>
    <v>       0.12616829       0.37383171       0.62616829 </v>
    <v>       0.12383171       0.62383171       0.87616829 </v>
    <v>       0.12383171       0.87616829       0.62383171 </v>
    <v>       0.37383171       0.37383171       0.87383171 </v>
    <v>       0.37616829       0.62383171       0.62383171 </v>
    <v>       0.87616829       0.37616829       0.87616829 </v>
    <v>       0.37383171       0.12616829       0.62616829 </v>
    <v>       0.12616829       0.12616829       0.87383171 </v>
    <v>       0.62616829       0.87383171       0.62616829 </v>
    <v>       0.62383171       0.12383171       0.87616829 </v>
    <v>       0.62383171       0.37616829       0.62383171 </v>
    <v>       0.87383171       0.87383171       0.87383171 </v>
    <v>       0.87616829       0.12383171       0.62383171 </v>
    <v>       0.87616829       0.87616829       0.37616829 </v>
    <v>       0.37383171       0.62616829       0.12616829 </v>
    <v>       0.12616829       0.62616829       0.37383171 </v>
    <v>       0.62616829       0.37383171       0.12616829 </v>
    <v>       0.62383171       0.62383171       0.37616829 </v>
    <v>       0.62383171       0.87616829       0.12383171 </v>
    <v>       0.87383171       0.37383171       0.37383171 </v>
    <v>       0.87616829       0.62383171       0.12383171 </v>
   </varray>
  </structure>
  <varray name="forces" >
   <v>      -0.00000000      -0.00000000      -0.00000000 </v>
   <v>      -0.00000000      -0.00000000      -0.00000000 </v>
   <v>      -0.00000000      -0.00000000      -0.00000000 </v>
   <v>      -0.00000000      -0.00000000      -0.00000000 </v>
   <v>      -0.00000000      -0.00000000      -0.00000000 </v>
   <v>      -0.00000000      -0.00000000      -0.00000000 </v>
   <v>      -0.00000000      -0.00000000      -0.00000000 </v>
   <v>      -0.00000000      -0.00000000      -0.00000000 </v>
   <v>      -0.00000000      -0.00000000      -0.00000000 </v>
   <v>      -0.00000000      -0.00000000      -0.00000000 </v>
   <v>      -0.00000000      -0.00000000      -0.00000000 </v>
   <v>      -0.00000000      -0.00000000      -0.00000000 </v>
   <v>      -0.00000000      -0.00000000      -0.00000000 </v>
   <v>      -0.00000000      -0.00000000      -0.00000000 </v>
   <v>      -0.00000000      -0.00000000      -0.00000000 </v>
   <v>      -0.00000000      -0.00000000      -0.00000000 </v>
   <v>      -0.00000000      -0.00000000      -0.00000000 </v>
   <v>      -0.00000000      -0.00000000      -0.00000000 </v>
   <v>      -0.00000000      -0.00000000      -0.00000000 </v>
   <v>      -0.00000000      -0.00000000      -0.00000000 </v>
   <v>      -0.00000000      -0.00000000      -0.00000000 </v>
   <v>      -0.00000000      -0.00000000      -0.00000000 </v>
   <v>      -0.00000000      -0.00000000      -0.00000000 </v>
   <v>      -0.00000000      -0.00000000      -0.00000000 </v>
   <v>       0.00041429       0.00041429       0.00041429 </v>
   <v>      -0.00041429       0.00041429       0.00041429 </v>
   <v>       0.00041429       0.00041429      -0.00041429 </v>
   <v>       0.00041429      -0.00041429       0.00041429 </v>
   <v>      -0.00041429      -0.00041429       0.00041429 </v>
   <v>      -0.00041429       0.00041429      -0.00041429 </v>
   <v>      -0.00041429      -0.00041429      -0.00041429 </v>
   <v>       0.00041429      -0.00041429      -0.00041429 </v>
   <v>       0.00041429       0.00041429       0.00041429 </v>
   <v>      -0.00041429       0.00041429       0.00041429 </v>
   <v>       0.00041429       0.00041429      -0.00041429 </v>
   <v>       0.00041429      -0.00041429       0.00041429 </v>
   <v>      -0.00041429      -0.00041429       0.00041429 </v>
   <v>      -0.00041429       0.00041429      -0.00041429 </v>
   <v>      -0.00041429      -0.00041429      -0.00041429 </v>
   <v>       0.00041429      -0.00041429      -0.00041429 </v>
   <v>       0.00041429       0.00041429       0.00041429 </v>
   <v>      -0.00041429       0.00041429       0.00041429 </v>
   <v>       0.00041429       0.00041429      -0.00041429 </v>
   <v>       0.00041429      -0.00041429       0.00041429 </v>
   <v>      -0.00041429      -0.00041429       0.00041429 </v>
   <v>      -0.00041429       0.00041429      -0.00041429 </v>
   <v>      -0.00041429      -0.00041429      -0.00041429 </v>
   <v>       0.00041429      -0.00041429      -0.00041429 </v>
   <v>       0.00041429       0.00041429       0.00041429 </v>
   <v>      -0.00041429       0.00041429       0.00041429 </v>
   <v>       0.00041429       0.00041429      -0.00041429 </v>
   <v>       0.00041429      -0.00041429       0.00041429 </v>
   <v>      -0.00041429      -0.00041429       0.00041429 </v>
   <v>      -0.00041429       0.00041429      -0.00041429 </v>
   <v>      -0.00041429      -0.00041429      -0.00041429 </v>
   <v>       0.00041429      -0.00041429      -0.00041429 </v>
  </varray>
  <varray name="stress" >
   <v>      19.47763661       0.00000000       0.00000000 </v>
   <v>       0.00000000      19.47763661       0.00000000 </v>
   <v>       0.00000000       0.00000000      19.47763661 </v>
  </varray>
  <energy>
   <i name="e_fr_energy">   -330.19799486 </i>
   <i name="e_wo_entrp">   -330.20253971 </i>
   <i name="e_0_energy">      0.01817940 </i>
  </energy>
  <time name="totalsc">   24.65   24.66</time>
  <eigenvalues>
   <array>
    <dimension dim="1">band</dimension>
    <dimension dim="2">kpoint</dimension>
    <dimension dim="3">spin</dimension>
    <field>eigene</field>
    <field>occ</field>
    <set>
     <set comment="spin 1">
      <set comment="kpoint 1">
       <r>   -9.4297    1.0000 </r>
       <r>   -8.5233    1.0000 </r>
       <r>   -8.5233    1.0000 </r>
       <r>   -8.5233    1.0000 </r>
       <r>   -8.5233    1.0000 </r>
       <r>   -8.5233    1.0000 </r>
       <r>   -8.5233    1.0000 </r>
       <r>   -8.1614    1.0000 </r>
       <r>   -7.6758    1.0000 </r>
       <r>   -7.6719    1.0000 </r>
       <r>   -7.6719    1.0000 </r>
       <r>   -7.6719    1.0000 </r>
       <r>   -7.6719    1.0000 </r>
       <r>   -7.6719    1.0000 </r>
       <r>   -7.6719    1.0000 </r>
       <r>   -6.5979    1.0000 </r>
       <r>   -6.5979    1.0000 </r>
       <r>   -6.5979    1.0000 </r>
       <r>   -6.5979    1.0000 </r>
       <r>   -6.5979    1.0000 </r>
       <r>   -6.5979    1.0000 </r>
       <r>   -6.4752    1.0000 </r>
       <r>   -6.4752    1.0000 </r>
       <r>   -6.4752    1.0000 </r>
       <r>   -1.0176    1.0000 </r>
       <r>   -1.0176    1.0000 </r>
       <r>   -1.0176    1.0000 </r>
       <r>   -0.8480    1.0000 </r>
       <r>   -0.6062    1.0000 </r>
       <r>   -0.6062    1.0000 </r>
       <r>   -0.6062    1.0000 </r>
       <r>   -0.6062    1.0000 </r>
       <r>   -0.6062    1.0000 </r>
       <r>   -0.6062    1.0000 </r>
       <r>    0.1695    1.0000 </r>
       <r>    0.1695    1.0000 </r>
       <r>    0.1695    1.0000 </r>
       <r>    0.1695    1.0000 </r>
       <r>    0.1695    1.0000 </r>
       <r>    0.1695    1.0000 </r>
       <r>    0.5930    1.0000 </r>
       <r>    0.5930    1.0000 </r>
       <r>    0.5930    1.0000 </r>
       <r>    0.8918    1.0000 </r>
       <r>    0.8918    1.0000 </r>
       <r>    0.8918    1.0000 </r>
       <r>    0.8918    1.0000 </r>
       <r>    0.8918    1.0000 </r>
       <r>    0.8918    1.0000 </r>
       <r>    1.3035    1.0000 </r>
       <r>    1.3035    1.0000 </r>
       <r>    1.3035    1.0000 </r>
       <r>    1.3035    1.0000 </r>
       <r>    1.3035    1.0000 </r>
       <r>    1.3035    1.0000 </r>
       <r>    1.4279    1.0000 </r>
       <r>    1.4279    1.0000 </r>
       <r>    2.7839    1.0000 </r>
       <r>    2.7839    1.0000 </r>
       <r>    2.7839    1.0000 </r>
       <r>    2.7839    1.0000 </r>
       <r>    2.7839    1.0000 </r>
       <r>    2.7839    1.0000 </r>
       <r>    2.8890    1.0000 </r>
       <r>    2.8890    1.0000 </r>
       <r>    2.8890    1.0000 </r>
       <r>    2.8890    1.0000 </r>
       <r>    2.8890    1.0000 </r>
       <r>    2.8890    1.0000 </r>
       <r>    2.9060    1.0000 </r>
       <r>    2.9060    1.0000 </r>
       <r>    2.9060    1.0000 </r>
       <r>    2.9060    1.0000 </r>
       <r>    2.9060    1.0000 </r>
       <r>    2.9060    1.0000 </r>
       <r>    3.1018    1.0000 </r>
       <r>    3.1018    1.0000 </r>
       <r>    3.1018    1.0000 </r>
       <r>    3.5187    1.0000 </r>
       <r>    3.5187    1.0000 </r>
       <r>    3.5187    1.0000 </r>
       <r>    3.5187    1.0000 </r>
       <r>    3.5187    1.0000 </r>
       <r>    3.5187    1.0000 </r>
       <r>    4.7604    1.0000 </r>
       <r>    4.7604    1.0000 </r>
       <r>    4.7604    1.0000 </r>
       <r>    5.0117    1.0000 </r>
       <r>    5.4163    1.0000 </r>
       <r>    5.4163    1.0000 </r>
       <r>    5.4163    1.0000 </r>
       <r>    5.4163    1.0000 </r>
       <r>    5.4163    1.0000 </r>
       <r>    5.4163    1.0000 </r>
       <r>    5.8784    1.0000 </r>
       <r>    5.8784    1.0000 </r>
       <r>    5.8784    1.0000 </r>
       <r>    7.7471    1.0000 </r>
       <r>    7.7471    1.0000 </r>
       <r>    7.7471    1.0000 </r>
       <r>    7.9846    1.0000 </r>
       <r>    7.9846    1.0000 </r>
       <r>    7.9846    1.0000 </r>
       <r>    7.9846    1.0000 </r>
       <r>    7.9846    1.0000 </r>
       <r>    7.9846    1.0000 </r>
       <r>    8.6711    1.0000 </r>
       <r>    8.6711    1.0000 </r>
       <r>    8.6711    1.0000 </r>
       <r>    8.6711    1.0000 </r>
       <r>    8.6711    1.0000 </r>
       <r>    8.6711    1.0000 </r>
       <r>    8.7511    1.0000 </r>
       <r>    8.7511    1.0000 </r>
       <r>    8.7511    1.0000 </r>
       <r>    8.7511    1.0000 </r>
       <r>    8.7511    1.0000 </r>
       <r>    8.7511    1.0000 </r>
       <r>    8.9712    1.0000 </r>
       <r>    8.9712    1.0000 </r>
       <r>    8.9712    1.0000 </r>
       <r>    9.1527    1.0000 </r>
       <r>    9.1527    1.0000 </r>
       <r>    9.1527    1.0000 </r>
       <r>    9.1527    1.0000 </r>
       <r>    9.1527    1.0000 </r>
       <r>    9.1527    1.0000 </r>
       <r>   10.6837    0.0000 </r>
       <r>   10.9213    0.0000 </r>
       <r>   10.9213    0.0000 </r>
       <r>   10.9213    0.0000 </r>
       <r>   10.9213    0.0000 </r>
       <r>   10.9213    0.0000 </r>
       <r>   10.9213    0.0000 </r>
       <r>   11.0970    0.0000 </r>
       <r>   11.0970    0.0000 </r>
       <r>   11.1586    0.0000 </r>
       <r>   11.1586    0.0000 </r>
       <r>   11.1586    0.0000 </r>
       <r>   11.1586    0.0000 </r>
       <r>   11.1586    0.0000 </r>
       <r>   11.1586    0.0000 </r>
       <r>   11.2415    0.0000 </r>
       <r>   11.2415    0.0000 </r>
       <r>   11.2415    0.0000 </r>
       <r>   11.2415    0.0000 </r>
       <r>   11.2415    0.0000 </r>
       <r>   11.2415    0.0000 </r>
       <r>   11.9065    0.0000 </r>
       <r>   12.1178    0.0000 </r>
       <r>   12.1178    0.0000 </r>
       <r>   12.1178    0.0000 </r>
       <r>   12.9224    0.0000 </r>
       <r>   12.9224    0.0000 </r>
       <r>   13.4453    0.0000 </r>
       <r>   13.4481    0.0000 </r>
      </set>
      <set comment="kpoint 2">
       <r>   -9.3812    1.0000 </r>
       <r>   -8.7606    1.0000 </r>
       <r>   -8.5114    1.0000 </r>
       <r>   -8.5114    1.0000 </r>
       <r>   -8.5114    1.0000 </r>
       <r>   -8.5114    1.0000 </r>
       <r>   -8.3694    1.0000 </r>
       <r>   -8.1764    1.0000 </r>
       <r>   -7.7849    1.0000 </r>
       <r>   -7.7050    1.0000 </r>
       <r>   -7.7050    1.0000 </r>
       <r>   -7.7050    1.0000 </r>
       <r>   -7.7050    1.0000 </r>
       <r>   -7.6952    1.0000 </r>
       <r>   -7.4142    1.0000 </r>
       <r>   -6.5866    1.0000 </r>
       <r>   -6.5866    1.0000 </r>
       <r>   -6.5706    1.0000 </r>
       <r>   -6.5706    1.0000 </r>
       <r>   -6.5706    1.0000 </r>
       <r>   -6.5706    1.0000 </r>
       <r>   -6.5514    1.0000 </r>
       <r>   -6.4873    1.0000 </r>
       <r>   -6.4873    1.0000 </r>
       <r>   -0.9986    1.0000 </r>
       <r>   -0.9986    1.0000 </r>
       <r>   -0.9009    1.0000 </r>
       <r>   -0.7472    1.0000 </r>
       <r>   -0.6721    1.0000 </r>
       <r>   -0.6721    1.0000 </r>
       <r>   -0.5687    1.0000 </r>
       <r>   -0.5687    1.0000 </r>
       <r>   -0.5687    1.0000 </r>
       <r>   -0.5687    1.0000 </r>
       <r>   -0.0735    1.0000 </r>
       <r>    0.0604    1.0000 </r>
       <r>    0.0604    1.0000 </r>
       <r>    0.0604    1.0000 </r>
       <r>    0.0604    1.0000 </r>
       <r>    0.2612    1.0000 </r>
       <r>    0.2823    1.0000 </r>
       <r>    0.5092    1.0000 </r>
       <r>    0.7016    1.0000 </r>
       <r>    0.7016    1.0000 </r>
       <r>    0.8755    1.0000 </r>
       <r>    0.8755    1.0000 </r>
       <r>    0.8755    1.0000 </r>
       <r>    0.8755    1.0000 </r>
       <r>    1.0796    1.0000 </r>
       <r>    1.3406    1.0000 </r>
       <r>    1.3406    1.0000 </r>
       <r>    1.3565    1.0000 </r>
       <r>    1.3565    1.0000 </r>
       <r>    1.3565    1.0000 </r>
       <r>    1.3565    1.0000 </r>
       <r>    1.4863    1.0000 </r>
       <r>    1.9041    1.0000 </r>
       <r>    2.3211    1.0000 </r>
       <r>    2.4976    1.0000 </r>
       <r>    2.4976    1.0000 </r>
       <r>    2.4976    1.0000 </r>
       <r>    2.4976    1.0000 </r>
       <r>    2.7387    1.0000 </r>
       <r>    2.7387    1.0000 </r>
       <r>    2.7996    1.0000 </r>
       <r>    2.9238    1.0000 </r>
       <r>    2.9238    1.0000 </r>
       <r>    2.9238    1.0000 </r>
       <r>    2.9238    1.0000 </r>
       <r>    3.0446    1.0000 </r>
       <r>    3.0446    1.0000 </r>
       <r>    3.1027    1.0000 </r>
       <r>    3.1385    1.0000 </r>
       <r>    3.2999    1.0000 </r>
       <r>    3.3140    1.0000 </r>
       <r>    3.3140    1.0000 </r>
       <r>    3.3140    1.0000 </r>
       <r>    3.3140    1.0000 </r>
       <r>    3.5500    1.0000 </r>
       <r>    3.5500    1.0000 </r>
       <r>    3.5500    1.0000 </r>
       <r>    3.5500    1.0000 </r>
       <r>    3.6992    1.0000 </r>
       <r>    3.6992    1.0000 </r>
       <r>    4.5877    1.0000 </r>
       <r>    4.5877    1.0000 </r>
       <r>    4.6367    1.0000 </r>
       <r>    4.9344    1.0000 </r>
       <r>    5.2520    1.0000 </r>
       <r>    5.2520    1.0000 </r>
       <r>    5.2520    1.0000 </r>
       <r>    5.2520    1.0000 </r>
       <r>    5.4434    1.0000 </r>
       <r>    5.4434    1.0000 </r>
       <r>    5.7901    1.0000 </r>
       <r>    5.7901    1.0000 </r>
       <r>    6.0481    1.0000 </r>
       <r>    7.4230    1.0000 </r>
       <r>    7.8017    1.0000 </r>
       <r>    7.8543    1.0000 </r>
       <r>    7.9991    1.0000 </r>
       <r>    7.9991    1.0000 </r>
       <r>    7.9991    1.0000 </r>
       <r>    7.9991    1.0000 </r>
       <r>    8.0911    1.0000 </r>
       <r>    8.0911    1.0000 </r>
       <r>    8.3069    1.0000 </r>
       <r>    8.3069    1.0000 </r>
       <r>    8.3069    1.0000 </r>
       <r>    8.3069    1.0000 </r>
       <r>    8.4936    1.0000 </r>
       <r>    8.5187    1.0000 </r>
       <r>    8.6310    1.0000 </r>
       <r>    8.6310    1.0000 </r>
       <r>    8.7987    1.0000 </r>
       <r>    8.7987    1.0000 </r>
       <r>    8.7987    1.0000 </r>
       <r>    8.7987    1.0000 </r>
       <r>    8.9500    1.0000 </r>
       <r>    8.9500    1.0000 </r>
       <r>    9.3936    0.9986 </r>
       <r>    9.3936    0.9986 </r>
       <r>    9.4862    1.0006 </r>
       <r>    9.5939    0.9907 </r>
       <r>    9.5939    0.9907 </r>
       <r>    9.5939    0.9907 </r>
       <r>    9.5939    0.9907 </r>
       <r>   10.5369    0.0000 </r>
       <r>   10.5369    0.0000 </r>
       <r>   10.5369    0.0000 </r>
       <r>   10.5369    0.0000 </r>
       <r>   10.8513    0.0000 </r>
       <r>   10.8572    0.0000 </r>
       <r>   10.9724    0.0000 </r>
       <r>   11.0010    0.0000 </r>
       <r>   11.0010    0.0000 </r>
       <r>   11.0580    0.0000 </r>
       <r>   11.0979    0.0000 </r>
       <r>   11.1506    0.0000 </r>
       <r>   11.2320    0.0000 </r>
       <r>   11.2320    0.0000 </r>
       <r>   11.2320    0.0000 </r>
       <r>   11.2320    0.0000 </r>
       <r>   11.5618    0.0000 </r>
       <r>   11.5618    0.0000 </r>
       <r>   11.5618    0.0000 </r>
       <r>   11.5618    0.0000 </r>
       <r>   11.7836    0.0000 </r>
       <r>   12.0086    0.0000 </r>
       <r>   12.0679    0.0000 </r>
       <r>   12.0679    0.0000 </r>
       <r>   12.3047    0.0000 </r>
       <r>   12.4540    0.0000 </r>
       <r>   13.0978    0.0000 </r>
       <r>   13.2120    0.0000 </r>
       <r>   13.2528    0.0000 </r>
      </set>
      <set comment="kpoint 3">
       <r>   -9.2403    1.0000 </r>
       <r>   -9.0217    1.0000 </r>
       <r>   -8.4907    1.0000 </r>
       <r>   -8.4907    1.0000 </r>
       <r>   -8.4907    1.0000 </r>
       <r>   -8.4907    1.0000 </r>
       <r>   -8.2794    1.0000 </r>
       <r>   -8.2175    1.0000 </r>
       <r>   -7.7879    1.0000 </r>
       <r>   -7.7577    1.0000 </r>
       <r>   -7.7577    1.0000 </r>
       <r>   -7.7577    1.0000 </r>
       <r>   -7.7577    1.0000 </r>
       <r>   -7.7428    1.0000 </r>
       <r>   -7.0791    1.0000 </r>
       <r>   -6.7669    1.0000 </r>
       <r>   -6.5565    1.0000 </r>
       <r>   -6.5565    1.0000 </r>
       <r>   -6.5285    1.0000 </r>
       <r>   -6.5285    1.0000 </r>
       <r>   -6.5285    1.0000 </r>
       <r>   -6.5285    1.0000 </r>
       <r>   -6.5186    1.0000 </r>
       <r>   -6.5186    1.0000 </r>
       <r>   -0.9318    1.0000 </r>
       <r>   -0.9318    1.0000 </r>
       <r>   -0.8104    1.0000 </r>
       <r>   -0.8104    1.0000 </r>
       <r>   -0.5748    1.0000 </r>
       <r>   -0.4731    1.0000 </r>
       <r>   -0.4731    1.0000 </r>
       <r>   -0.4731    1.0000 </r>
       <r>   -0.4731    1.0000 </r>
       <r>   -0.4615    1.0000 </r>
       <r>   -0.1886    1.0000 </r>
       <r>   -0.1379    1.0000 </r>
       <r>   -0.1379    1.0000 </r>
       <r>   -0.1379    1.0000 </r>
       <r>   -0.1379    1.0000 </r>
       <r>   -0.1150    1.0000 </r>
       <r>   -0.0423    1.0000 </r>
       <r>    0.0133    1.0000 </r>
       <r>    0.8512    1.0000 </r>
       <r>    0.8512    1.0000 </r>
       <r>    0.8512    1.0000 </r>
       <r>    0.8512    1.0000 </r>
       <r>    0.9778    1.0000 </r>
       <r>    0.9778    1.0000 </r>
       <r>    1.2649    1.0000 </r>
       <r>    1.2649    1.0000 </r>
       <r>    1.4473    1.0000 </r>
       <r>    1.4473    1.0000 </r>
       <r>    1.4473    1.0000 </r>
       <r>    1.4473    1.0000 </r>
       <r>    1.5458    1.0000 </r>
       <r>    1.6586    1.0000 </r>
       <r>    1.9405    1.0000 </r>
       <r>    2.1800    1.0000 </r>
       <r>    2.2386    1.0000 </r>
       <r>    2.2386    1.0000 </r>
       <r>    2.2386    1.0000 </r>
       <r>    2.2386    1.0000 </r>
       <r>    2.6480    1.0000 </r>
       <r>    2.6747    1.0000 </r>
       <r>    2.6747    1.0000 </r>
       <r>    2.8661    1.0000 </r>
       <r>    2.8661    1.0000 </r>
       <r>    3.1467    1.0000 </r>
       <r>    3.1623    1.0000 </r>
       <r>    3.1623    1.0000 </r>
       <r>    3.1623    1.0000 </r>
       <r>    3.1623    1.0000 </r>
       <r>    3.4559    1.0000 </r>
       <r>    3.4559    1.0000 </r>
       <r>    3.4559    1.0000 </r>
       <r>    3.4559    1.0000 </r>
       <r>    3.7714    1.0000 </r>
       <r>    3.7760    1.0000 </r>
       <r>    3.7760    1.0000 </r>
       <r>    3.7760    1.0000 </r>
       <r>    3.7760    1.0000 </r>
       <r>    3.8261    1.0000 </r>
       <r>    3.9673    1.0000 </r>
       <r>    3.9673    1.0000 </r>
       <r>    4.2551    1.0000 </r>
       <r>    4.2551    1.0000 </r>
       <r>    4.2983    1.0000 </r>
       <r>    4.4600    1.0000 </r>
       <r>    4.9303    1.0000 </r>
       <r>    4.9303    1.0000 </r>
       <r>    4.9303    1.0000 </r>
       <r>    4.9303    1.0000 </r>
       <r>    5.5233    1.0000 </r>
       <r>    5.5233    1.0000 </r>
       <r>    5.6475    1.0000 </r>
       <r>    5.6475    1.0000 </r>
       <r>    6.6132    1.0000 </r>
       <r>    7.1703    1.0000 </r>
       <r>    7.2918    1.0000 </r>
       <r>    7.6177    1.0000 </r>
       <r>    7.8162    1.0000 </r>
       <r>    7.8162    1.0000 </r>
       <r>    7.8162    1.0000 </r>
       <r>    7.8162    1.0000 </r>
       <r>    8.0355    1.0000 </r>
       <r>    8.2728    1.0000 </r>
       <r>    8.3080    1.0000 </r>
       <r>    8.3080    1.0000 </r>
       <r>    8.3080    1.0000 </r>
       <r>    8.3080    1.0000 </r>
       <r>    8.6218    1.0000 </r>
       <r>    8.6218    1.0000 </r>
       <r>    8.6414    1.0000 </r>
       <r>    8.6414    1.0000 </r>
       <r>    8.7753    1.0000 </r>
       <r>    8.7753    1.0000 </r>
       <r>    8.7753    1.0000 </r>
       <r>    8.7753    1.0000 </r>
       <r>    9.0793    1.0000 </r>
       <r>    9.0793    1.0000 </r>
       <r>    9.5677    1.0487 </r>
       <r>    9.5677    1.0487 </r>
       <r>    9.8444    0.0044 </r>
       <r>    9.8444    0.0044 </r>
       <r>    9.8444    0.0044 </r>
       <r>    9.8444    0.0044 </r>
       <r>   10.3514    0.0000 </r>
       <r>   10.4145    0.0000 </r>
       <r>   10.4145    0.0000 </r>
       <r>   10.4145    0.0000 </r>
       <r>   10.4145    0.0000 </r>
       <r>   10.8841    0.0000 </r>
       <r>   10.9285    0.0000 </r>
       <r>   10.9285    0.0000 </r>
       <r>   10.9432    0.0000 </r>
       <r>   10.9675    0.0000 </r>
       <r>   10.9850    0.0000 </r>
       <r>   11.0930    0.0000 </r>
       <r>   11.2980    0.0000 </r>
       <r>   11.2980    0.0000 </r>
       <r>   11.2980    0.0000 </r>
       <r>   11.2980    0.0000 </r>
       <r>   11.4060    0.0000 </r>
       <r>   11.5790    0.0000 </r>
       <r>   11.5790    0.0000 </r>
       <r>   11.8518    0.0000 </r>
       <r>   11.8518    0.0000 </r>
       <r>   11.8518    0.0000 </r>
       <r>   11.8518    0.0000 </r>
       <r>   11.8598    0.0000 </r>
       <r>   11.9491    0.0000 </r>
       <r>   12.1624    0.0000 </r>
       <r>   12.8266    0.0000 </r>
       <r>   12.8375    0.0000 </r>
       <r>   12.9936    0.0000 </r>
       <r>   13.0317    0.0000 </r>
      </set>
      <set comment="kpoint 4">
       <r>   -9.3335    1.0000 </r>
       <r>   -8.7303    1.0000 </r>
       <r>   -8.7303    1.0000 </r>
       <r>   -8.5269    1.0000 </r>
       <r>   -8.4843    1.0000 </r>
       <r>   -8.3754    1.0000 </r>
       <r>   -8.3754    1.0000 </r>
       <r>   -8.1915    1.0000 </r>
       <r>   -7.8503    1.0000 </r>
       <r>   -7.8249    1.0000 </r>
       <r>   -7.8249    1.0000 </r>
       <r>   -7.7185    1.0000 </r>
       <r>   -7.5884    1.0000 </r>
       <r>   -7.4439    1.0000 </r>
       <r>   -7.4439    1.0000 </r>
       <r>   -6.6343    1.0000 </r>
       <r>   -6.5819    1.0000 </r>
       <r>   -6.5643    1.0000 </r>
       <r>   -6.5643    1.0000 </r>
       <r>   -6.5587    1.0000 </r>
       <r>   -6.5587    1.0000 </r>
       <r>   -6.5240    1.0000 </r>
       <r>   -6.4933    1.0000 </r>
       <r>   -6.4824    1.0000 </r>
       <r>   -1.0355    1.0000 </r>
       <r>   -0.8872    1.0000 </r>
       <r>   -0.8839    1.0000 </r>
       <r>   -0.6894    1.0000 </r>
       <r>   -0.6894    1.0000 </r>
       <r>   -0.6177    1.0000 </r>
       <r>   -0.5926    1.0000 </r>
       <r>   -0.5926    1.0000 </r>
       <r>   -0.5912    1.0000 </r>
       <r>   -0.4216    1.0000 </r>
       <r>   -0.2601    1.0000 </r>
       <r>   -0.1603    1.0000 </r>
       <r>   -0.1603    1.0000 </r>
       <r>    0.1269    1.0000 </r>
       <r>    0.1904    1.0000 </r>
       <r>    0.1904    1.0000 </r>
       <r>    0.2371    1.0000 </r>
       <r>    0.5572    1.0000 </r>
       <r>    0.5572    1.0000 </r>
       <r>    0.6817    1.0000 </r>
       <r>    0.8101    1.0000 </r>
       <r>    0.8363    1.0000 </r>
       <r>    0.8604    1.0000 </r>
       <r>    0.9582    1.0000 </r>
       <r>    0.9582    1.0000 </r>
       <r>    0.9979    1.0000 </r>
       <r>    1.3333    1.0000 </r>
       <r>    1.3333    1.0000 </r>
       <r>    1.4543    1.0000 </r>
       <r>    1.4543    1.0000 </r>
       <r>    1.8006    1.0000 </r>
       <r>    1.8036    1.0000 </r>
       <r>    2.0716    1.0000 </r>
       <r>    2.2005    1.0000 </r>
       <r>    2.4819    1.0000 </r>
       <r>    2.4819    1.0000 </r>
       <r>    2.4872    1.0000 </r>
       <r>    2.5472    1.0000 </r>
       <r>    2.5472    1.0000 </r>
       <r>    2.6925    1.0000 </r>
       <r>    2.6925    1.0000 </r>
       <r>    2.7660    1.0000 </r>
       <r>    2.7879    1.0000 </r>
       <r>    2.9113    1.0000 </r>
       <r>    3.0083    1.0000 </r>
       <r>    3.0780    1.0000 </r>
       <r>    3.0886    1.0000 </r>
       <r>    3.0886    1.0000 </r>
       <r>    3.2167    1.0000 </r>
       <r>    3.2167    1.0000 </r>
       <r>    3.4495    1.0000 </r>
       <r>    3.4960    1.0000 </r>
       <r>    3.4960    1.0000 </r>
       <r>    3.5653    1.0000 </r>
       <r>    3.5724    1.0000 </r>
       <r>    3.5788    1.0000 </r>
       <r>    3.6586    1.0000 </r>
       <r>    3.6586    1.0000 </r>
       <r>    3.8880    1.0000 </r>
       <r>    3.8880    1.0000 </r>
       <r>    4.2032    1.0000 </r>
       <r>    4.4316    1.0000 </r>
       <r>    4.7098    1.0000 </r>
       <r>    4.8072    1.0000 </r>
       <r>    4.8977    1.0000 </r>
       <r>    5.2656    1.0000 </r>
       <r>    5.2656    1.0000 </r>
       <r>    5.3137    1.0000 </r>
       <r>    5.3137    1.0000 </r>
       <r>    5.4154    1.0000 </r>
       <r>    5.6801    1.0000 </r>
       <r>    5.8025    1.0000 </r>
       <r>    6.2413    1.0000 </r>
       <r>    7.4888    1.0000 </r>
       <r>    7.4888    1.0000 </r>
       <r>    7.6683    1.0000 </r>
       <r>    7.8470    1.0000 </r>
       <r>    7.8545    1.0000 </r>
       <r>    7.8545    1.0000 </r>
       <r>    8.0151    1.0000 </r>
       <r>    8.0206    1.0000 </r>
       <r>    8.0206    1.0000 </r>
       <r>    8.1867    1.0000 </r>
       <r>    8.2713    1.0000 </r>
       <r>    8.2925    1.0000 </r>
       <r>    8.2955    1.0000 </r>
       <r>    8.3871    1.0000 </r>
       <r>    8.5228    1.0000 </r>
       <r>    8.5228    1.0000 </r>
       <r>    8.7520    1.0000 </r>
[...]
       <r>   11.6684    0.0000 </r>
       <r>   11.6684    0.0000 </r>
       <r>   11.9205    0.0000 </r>
       <r>   11.9205    0.0000 </r>
       <r>   11.9206    0.0000 </r>
       <r>   11.9942    0.0000 </r>
       <r>   11.9943    0.0000 </r>
       <r>   11.9950    0.0000 </r>
       <r>   12.1547    0.0000 </r>
       <r>   12.1553    0.0000 </r>
       <r>   12.2539    0.0000 </r>
       <r>   12.3574    0.0000 </r>
       <r>   12.3626    0.0000 </r>
       <r>   12.4306    0.0000 </r>
      </set>
     </set>
    </set>
   </array>
  </eigenvalues>
  <separator name="orbital magnetization" >
   <v name="MAGDIPOLOUT">      0.00000000      0.00000000      0.00000000</v>
  </separator>
  <dos>
   <i name="efermi">      9.65478196 </i>
   <total>
    <array>
     <dimension dim="1">gridpoints</dimension>
     <dimension dim="2">spin</dimension>
     <field>energy</field>
     <field>total</field>
     <field>integrated</field>
     <set>
      <set comment="spin 1">
       <r>   -10.5736     0.0000     0.0000 </r>
       <r>   -10.4897     0.0000     0.0000 </r>
       <r>   -10.4058     0.0000     0.0000 </r>
       <r>   -10.3219     0.0000     0.0000 </r>
       <r>   -10.2381     0.0000     0.0000 </r>
       <r>   -10.1542     0.0000     0.0000 </r>
       <r>   -10.0703     0.0000     0.0000 </r>
       <r>    -9.9864     0.0000     0.0000 </r>
       <r>    -9.9025     0.0000     0.0000 </r>
       <r>    -9.8186     0.0000     0.0000 </r>
       <r>    -9.7347     0.0001     0.0000 </r>
       <r>    -9.6509     0.0023     0.0002 </r>
       <r>    -9.5670     0.0067     0.0008 </r>
       <r>    -9.4831    -0.0714    -0.0052 </r>
       <r>    -9.3992     0.5159     0.0380 </r>
       <r>    -9.3153     2.5913     0.2554 </r>
       <r>    -9.2314     3.3900     0.5398 </r>
       <r>    -9.1475     6.3166     1.0696 </r>
       <r>    -9.0637     4.5302     1.4497 </r>
       <r>    -8.9798     8.3275     2.1482 </r>
       <r>    -8.8959     8.9480     2.8988 </r>
       <r>    -8.8120    10.2074     3.7551 </r>
       <r>    -8.7281    12.5919     4.8113 </r>
       <r>    -8.6442    19.2259     6.4241 </r>
       <r>    -8.5604    10.3121     7.2892 </r>
       <r>    -8.4765    17.5015     8.7573 </r>
       <r>    -8.3926    32.3495    11.4709 </r>
       <r>    -8.3087    28.5668    13.8673 </r>
       <r>    -8.2248    18.3622    15.4076 </r>
       <r>    -8.1409     7.3672    16.0256 </r>
       <r>    -8.0570    -1.7661    15.8774 </r>
       <r>    -7.9732    10.6348    16.7695 </r>
       <r>    -7.8893    36.7070    19.8487 </r>
       <r>    -7.8054    28.6201    22.2495 </r>
       <r>    -7.7215    18.7459    23.8220 </r>
       <r>    -7.6376     7.4127    24.4438 </r>
       <r>    -7.5537     2.8645    24.6841 </r>
       <r>    -7.4698     8.4480    25.3928 </r>
       <r>    -7.3860    15.1554    26.6641 </r>
       <r>    -7.3021     7.0208    27.2530 </r>
       <r>    -7.2182     5.0259    27.6746 </r>
       <r>    -7.1343    14.3720    28.8802 </r>
       <r>    -7.0504    12.3857    29.9192 </r>
       <r>    -6.9665     5.6903    30.3965 </r>
       <r>    -6.8826     5.6014    30.8664 </r>
       <r>    -6.7988     6.8093    31.4376 </r>
       <r>    -6.7149     2.1824    31.6207 </r>
       <r>    -6.6310    -3.4648    31.3301 </r>
       <r>    -6.5471    62.1044    36.5397 </r>
       <r>    -6.4632   124.7883    47.0076 </r>
       <r>    -6.3793    15.6585    48.3211 </r>
       <r>    -6.2954    -4.4822    47.9451 </r>
       <r>    -6.2116     0.5960    47.9951 </r>
       <r>    -6.1277     0.0576    47.9999 </r>
       <r>    -6.0438     0.0006    48.0000 </r>
       <r>    -5.9599     0.0000    48.0000 </r>
       <r>    -5.8760     0.0000    48.0000 </r>
       <r>    -5.7921     0.0000    48.0000 </r>
       <r>    -5.7083     0.0000    48.0000 </r>
       <r>    -5.6244     0.0000    48.0000 </r>
       <r>    -5.5405     0.0000    48.0000 </r>
       <r>    -5.4566     0.0000    48.0000 </r>
       <r>    -5.3727     0.0000    48.0000 </r>
       <r>    -5.2888     0.0000    48.0000 </r>
       <r>    -5.2049     0.0000    48.0000 </r>
       <r>    -5.1211     0.0000    48.0000 </r>
       <r>    -5.0372     0.0000    48.0000 </r>
       <r>    -4.9533     0.0000    48.0000 </r>
       <r>    -4.8694     0.0000    48.0000 </r>
       <r>    -4.7855     0.0000    48.0000 </r>
       <r>    -4.7016     0.0000    48.0000 </r>
       <r>    -4.6177     0.0000    48.0000 </r>
       <r>    -4.5339     0.0000    48.0000 </r>
       <r>    -4.4500     0.0000    48.0000 </r>
       <r>    -4.3661     0.0000    48.0000 </r>
       <r>    -4.2822     0.0000    48.0000 </r>
       <r>    -4.1983     0.0000    48.0000 </r>
       <r>    -4.1144     0.0000    48.0000 </r>
       <r>    -4.0305     0.0000    48.0000 </r>
       <r>    -3.9467     0.0000    48.0000 </r>
       <r>    -3.8628     0.0000    48.0000 </r>
       <r>    -3.7789     0.0000    48.0000 </r>
       <r>    -3.6950     0.0000    48.0000 </r>
       <r>    -3.6111     0.0000    48.0000 </r>
       <r>    -3.5272     0.0000    48.0000 </r>
       <r>    -3.4434     0.0000    48.0000 </r>
       <r>    -3.3595     0.0000    48.0000 </r>
       <r>    -3.2756     0.0000    48.0000 </r>
       <r>    -3.1917     0.0000    48.0000 </r>
       <r>    -3.1078     0.0000    48.0000 </r>
       <r>    -3.0239     0.0000    48.0000 </r>
       <r>    -2.9400     0.0000    48.0000 </r>
       <r>    -2.8562     0.0000    48.0000 </r>
       <r>    -2.7723     0.0000    48.0000 </r>
       <r>    -2.6884     0.0000    48.0000 </r>
       <r>    -2.6045     0.0000    48.0000 </r>
       <r>    -2.5206     0.0000    48.0000 </r>
       <r>    -2.4367     0.0000    48.0000 </r>
       <r>    -2.3528     0.0000    48.0000 </r>
       <r>    -2.2690     0.0000    48.0000 </r>
       <r>    -2.1851     0.0000    48.0000 </r>
       <r>    -2.1012     0.0000    48.0000 </r>
       <r>    -2.0173     0.0000    48.0000 </r>
       <r>    -1.9334     0.0000    48.0000 </r>
       <r>    -1.8495     0.0000    48.0000 </r>
       <r>    -1.7656     0.0000    48.0000 </r>
       <r>    -1.6818     0.0000    48.0000 </r>
       <r>    -1.5979     0.0000    48.0000 </r>
       <r>    -1.5140     0.0000    48.0000 </r>
       <r>    -1.4301     0.0000    48.0000 </r>
       <r>    -1.3462     0.0009    48.0001 </r>
       <r>    -1.2623     0.0277    48.0024 </r>
       <r>    -1.1784    -0.0182    48.0009 </r>
       <r>    -1.0946    -0.3929    47.9679 </r>
       <r>    -1.0107     5.8806    48.4612 </r>
       <r>    -0.9268    17.8085    49.9551 </r>
       <r>    -0.8429    33.8348    52.7933 </r>
       <r>    -0.7590    30.2525    55.3310 </r>
       <r>    -0.6751    41.3218    58.7973 </r>
       <r>    -0.5913    40.8243    62.2219 </r>
       <r>    -0.5074    32.9945    64.9897 </r>
       <r>    -0.4235    28.8854    67.4127 </r>
       <r>    -0.3396    25.6166    69.5616 </r>
       <r>    -0.2557    20.0520    71.2436 </r>
       <r>    -0.1718    12.2200    72.2687 </r>
       <r>    -0.0879    22.9912    74.1973 </r>
       <r>    -0.0041    19.2089    75.8087 </r>
       <r>     0.0798    26.8134    78.0579 </r>
       <r>     0.1637    19.9858    79.7344 </r>
       <r>     0.2476    13.1427    80.8369 </r>
       <r>     0.3315    20.5023    82.5568 </r>
       <r>     0.4154    14.6029    83.7817 </r>
       <r>     0.4993     5.5108    84.2440 </r>
       <r>     0.5831    14.9006    85.4939 </r>
       <r>     0.6670    23.7188    87.4836 </r>
       <r>     0.7509    32.6899    90.2258 </r>
       <r>     0.8348    29.0228    92.6604 </r>
       <r>     0.9187    26.4224    94.8768 </r>
       <r>     1.0026    15.8742    96.2085 </r>
       <r>     1.0865    18.7401    97.7805 </r>
       <r>     1.1703    18.3302    99.3181 </r>
       <r>     1.2542    20.1600   101.0092 </r>
       <r>     1.3381    18.2749   102.5422 </r>
       <r>     1.4220    16.0719   103.8904 </r>
       <r>     1.5059    14.9179   105.1418 </r>
       <r>     1.5898     7.6034   105.7796 </r>
       <r>     1.6737     6.6375   106.3364 </r>
       <r>     1.7575     4.8265   106.7413 </r>
       <r>     1.8414    13.0169   107.8332 </r>
       <r>     1.9253    24.1954   109.8628 </r>
       <r>     2.0092    12.5166   110.9128 </r>
       <r>     2.0931     6.4881   111.4571 </r>
       <r>     2.1770     9.3460   112.2411 </r>
       <r>     2.2608    23.5882   114.2198 </r>
       <r>     2.3447    39.8417   117.5619 </r>
       <r>     2.4286    18.9012   119.1474 </r>
       <r>     2.5125    26.6543   121.3833 </r>
       <r>     2.5964    28.4677   123.7713 </r>
       <r>     2.6803    37.2883   126.8993 </r>
       <r>     2.7642    42.1262   130.4331 </r>
       <r>     2.8480    27.8690   132.7708 </r>
       <r>     2.9319    25.2727   134.8909 </r>
       <r>     3.0158    44.5442   138.6275 </r>
       <r>     3.0997    29.3767   141.0917 </r>
       <r>     3.1836    31.0549   143.6968 </r>
       <r>     3.2675    21.6976   145.5169 </r>
       <r>     3.3514    24.7300   147.5914 </r>
       <r>     3.4352    20.6133   149.3205 </r>
       <r>     3.5191    34.6011   152.2230 </r>
       <r>     3.6030    52.2974   156.6100 </r>
       <r>     3.6869    36.9129   159.7065 </r>
       <r>     3.7708    21.1087   161.4772 </r>
       <r>     3.8547    25.8579   163.6463 </r>
       <r>     3.9386    25.9247   165.8210 </r>
       <r>     4.0224    10.0551   166.6645 </r>
       <r>     4.1063     9.2461   167.4401 </r>
       <r>     4.1902    17.0557   168.8708 </r>
       <r>     4.2741    11.1855   169.8091 </r>
       <r>     4.3580    14.3858   171.0159 </r>
       <r>     4.4419    14.7337   172.2518 </r>
       <r>     4.5257    10.6077   173.1416 </r>
       <r>     4.6096     5.8399   173.6315 </r>
       <r>     4.6935    14.8787   174.8796 </r>
       <r>     4.7774    13.7493   176.0330 </r>
       <r>     4.8613     6.1270   176.5469 </r>
       <r>     4.9452    16.0728   177.8952 </r>
       <r>     5.0291    13.6517   179.0404 </r>
       <r>     5.1129     6.4926   179.5850 </r>
       <r>     5.1968     5.6521   180.0591 </r>
       <r>     5.2807    23.0851   181.9956 </r>
       <r>     5.3646    20.5222   183.7172 </r>
       <r>     5.4485    27.8004   186.0492 </r>
       <r>     5.5324    30.6982   188.6243 </r>
       <r>     5.6163    17.5894   190.0998 </r>
       <r>     5.7001    14.1498   191.2868 </r>
       <r>     5.7840     4.8550   191.6940 </r>
       <r>     5.8679     3.6574   192.0008 </r>
       <r>     5.9518     0.1545   192.0138 </r>
       <r>     6.0357     0.4568   192.0521 </r>
       <r>     6.1196     0.6664   192.1080 </r>
       <r>     6.2035     0.1487   192.1205 </r>
       <r>     6.2873     3.9255   192.4498 </r>
       <r>     6.3712     3.9505   192.7812 </r>
       <r>     6.4551     1.5868   192.9143 </r>
       <r>     6.5390     0.0016   192.9144 </r>
       <r>     6.6229     4.1294   193.2608 </r>
       <r>     6.7068     9.3230   194.0429 </r>
       <r>     6.7907     5.9842   194.5449 </r>
       <r>     6.8745     8.5652   195.2633 </r>
       <r>     6.9584     8.0062   195.9349 </r>
       <r>     7.0423    11.6089   196.9088 </r>
       <r>     7.1262     5.1636   197.3419 </r>
       <r>     7.2101     6.5218   197.8890 </r>
       <r>     7.2940    12.8030   198.9630 </r>
       <r>     7.3778    11.2888   199.9099 </r>
       <r>     7.4617     9.8485   200.7361 </r>
       <r>     7.5456     8.4896   201.4482 </r>
       <r>     7.6295     5.1373   201.8792 </r>
       <r>     7.7134    14.2780   203.0769 </r>
       <r>     7.7973    22.5143   204.9655 </r>
       <r>     7.8812    18.7629   206.5394 </r>
       <r>     7.9650    16.6241   207.9339 </r>
       <r>     8.0489    15.8309   209.2619 </r>
       <r>     8.1328    15.6935   210.5784 </r>
       <r>     8.2167    31.5877   213.2281 </r>
       <r>     8.3006    28.5438   215.6225 </r>
       <r>     8.3845    17.4381   217.0853 </r>
       <r>     8.4684    21.7900   218.9132 </r>
       <r>     8.5522    28.7313   221.3233 </r>
       <r>     8.6361    21.6525   223.1396 </r>
       <r>     8.7200    21.7602   224.9650 </r>
       <r>     8.8039    24.2645   227.0004 </r>
       <r>     8.8878    16.8075   228.4103 </r>
       <r>     8.9717    17.8835   229.9105 </r>
       <r>     9.0556    22.5639   231.8033 </r>
       <r>     9.1394    30.3486   234.3491 </r>
       <r>     9.2233    27.8440   236.6848 </r>
       <r>     9.3072    16.7771   238.0921 </r>
       <r>     9.3911    22.8969   240.0128 </r>
       <r>     9.4750    20.5496   241.7367 </r>
       <r>     9.5589    45.1437   245.5235 </r>
       <r>     9.6428    28.3972   247.9057 </r>
       <r>     9.7266     3.1033   248.1660 </r>
       <r>     9.8105     5.7739   248.6503 </r>
       <r>     9.8944     6.4367   249.1903 </r>
       <r>     9.9783     6.8849   249.7678 </r>
       <r>    10.0622    16.4812   251.1503 </r>
       <r>    10.1461     8.6724   251.8778 </r>
       <r>    10.2299     4.1859   252.2290 </r>
       <r>    10.3138    18.0312   253.7415 </r>
       <r>    10.3977    27.9327   256.0846 </r>
       <r>    10.4816    29.2635   258.5394 </r>
       <r>    10.5655    24.8867   260.6271 </r>
       <r>    10.6494    14.4784   261.8416 </r>
       <r>    10.7333    19.7371   263.4972 </r>
       <r>    10.8171    19.3357   265.1192 </r>
       <r>    10.9010    24.8083   267.2003 </r>
       <r>    10.9849    30.4464   269.7543 </r>
       <r>    11.0688    24.7541   271.8308 </r>
       <r>    11.1527    31.4395   274.4681 </r>
       <r>    11.2366    34.7962   277.3870 </r>
       <r>    11.3205    35.4202   280.3582 </r>
       <r>    11.4043    26.7830   282.6049 </r>
       <r>    11.4882    21.5570   284.4132 </r>
       <r>    11.5721    16.5522   285.8017 </r>
       <r>    11.6560    37.6276   288.9581 </r>
       <r>    11.7399    44.7265   292.7100 </r>
       <r>    11.8238    25.1214   294.8173 </r>
       <r>    11.9077    12.5650   295.8713 </r>
       <r>    11.9915    17.6427   297.3513 </r>
       <r>    12.0754    21.9800   299.1951 </r>
       <r>    12.1593    11.7461   300.1804 </r>
       <r>    12.2432    19.1487   301.7867 </r>
       <r>    12.3271    33.2885   304.5791 </r>
       <r>    12.4110    11.9401   305.5807 </r>
       <r>    12.4948     8.9660   306.3328 </r>
       <r>    12.5787    17.8889   307.8335 </r>
       <r>    12.6626    17.4825   309.3000 </r>
       <r>    12.7465     9.0576   310.0598 </r>
       <r>    12.8304     7.7081   310.7064 </r>
       <r>    12.9143     5.1525   311.1386 </r>
       <r>    12.9982     2.7281   311.3674 </r>
       <r>    13.0820     2.3588   311.5653 </r>
       <r>    13.1659     2.5607   311.7801 </r>
       <r>    13.2498     1.5117   311.9069 </r>
       <r>    13.3337     0.7891   311.9731 </r>
       <r>    13.4176     0.0160   311.9745 </r>
       <r>    13.5015     0.2876   311.9986 </r>
       <r>    13.5854     0.0245   312.0006 </r>
       <r>    13.6692    -0.0092   311.9999 </r>
       <r>    13.7531     0.0015   312.0000 </r>
       <r>    13.8370     0.0001   312.0000 </r>
       <r>    13.9209     0.0000   312.0000 </r>
       <r>    14.0048     0.0000   312.0000 </r>
       <r>    14.0887     0.0000   312.0000 </r>
       <r>    14.1726     0.0000   312.0000 </r>
       <r>    14.2564     0.0000   312.0000 </r>
       <r>    14.3403     0.0000   312.0000 </r>
       <r>    14.4242     0.0000   312.0000 </r>
       <r>    14.5081     0.0000   312.0000 </r>
       <r>    14.5920     0.0000   312.0000 </r>
      </set>
     </set>
    </array>
   </total>
  </dos>
 </calculation>
 <structure name="finalpos" >
  <crystal>
   <varray name="basis" >
    <v>       8.57980032       0.00000000       0.00000000 </v>
    <v>       0.00000000       8.57980032       0.00000000 </v>
    <v>       0.00000000       0.00000000       8.57980032 </v>
   </varray>
   <i name="volume">    631.58461394 </i>
   <varray name="rec_basis" >
    <v>       0.11655283      -0.00000000       0.00000000 </v>
    <v>      -0.00000000       0.11655283       0.00000000 </v>
    <v>      -0.00000000      -0.00000000       0.11655283 </v>
   </varray>
  </crystal>
  <varray name="positions" >
   <v>       0.87500000       0.87500000       0.12500000 </v>
   <v>       0.37500000       0.12500000       0.37500000 </v>
   <v>       0.62500000       0.87500000       0.37500000 </v>
   <v>       0.12500000       0.12500000       0.12500000 </v>
   <v>       0.25000000       0.75000000       0.25000000 </v>
   <v>       0.00000000      -0.00000000       0.50000000 </v>
   <v>       0.87500000       0.37500000       0.62500000 </v>
   <v>       0.37500000       0.62500000       0.87500000 </v>
   <v>       0.62500000       0.37500000       0.87500000 </v>
   <v>       0.12500000       0.62500000       0.62500000 </v>
   <v>       0.25000000       0.25000000       0.75000000 </v>
   <v>       0.00000000       0.50000000      -0.00000000 </v>
   <v>       0.37500000       0.87500000       0.62500000 </v>
   <v>       0.87500000       0.12500000       0.87500000 </v>
   <v>       0.12500000       0.87500000       0.87500000 </v>
   <v>       0.62500000       0.12500000       0.62500000 </v>
   <v>       0.75000000       0.75000000       0.75000000 </v>
   <v>       0.50000000      -0.00000000      -0.00000000 </v>
   <v>       0.37500000       0.37500000       0.12500000 </v>
   <v>       0.87500000       0.62500000       0.37500000 </v>
   <v>       0.12500000       0.37500000       0.37500000 </v>
   <v>       0.62500000       0.62500000       0.12500000 </v>
   <v>       0.75000000       0.25000000       0.25000000 </v>
   <v>       0.50000000       0.50000000       0.50000000 </v>
   <v>       0.37616829       0.37616829       0.37616829 </v>
   <v>       0.87383171       0.12616829       0.12616829 </v>
   <v>       0.62616829       0.12616829       0.37383171 </v>
   <v>       0.12616829       0.87383171       0.12616829 </v>
   <v>       0.12383171       0.12383171       0.37616829 </v>
   <v>       0.12383171       0.37616829       0.12383171 </v>
   <v>       0.37383171       0.87383171       0.37383171 </v>
   <v>       0.37616829       0.12383171       0.12383171 </v>
   <v>       0.37616829       0.87616829       0.87616829 </v>
   <v>       0.87383171       0.62616829       0.62616829 </v>
   <v>       0.62616829       0.62616829       0.87383171 </v>
   <v>       0.12616829       0.37383171       0.62616829 </v>
   <v>       0.12383171       0.62383171       0.87616829 </v>
   <v>       0.12383171       0.87616829       0.62383171 </v>
   <v>       0.37383171       0.37383171       0.87383171 </v>
   <v>       0.37616829       0.62383171       0.62383171 </v>
   <v>       0.87616829       0.37616829       0.87616829 </v>
   <v>       0.37383171       0.12616829       0.62616829 </v>
   <v>       0.12616829       0.12616829       0.87383171 </v>
   <v>       0.62616829       0.87383171       0.62616829 </v>
   <v>       0.62383171       0.12383171       0.87616829 </v>
   <v>       0.62383171       0.37616829       0.62383171 </v>
   <v>       0.87383171       0.87383171       0.87383171 </v>
   <v>       0.87616829       0.12383171       0.62383171 </v>
   <v>       0.87616829       0.87616829       0.37616829 </v>
   <v>       0.37383171       0.62616829       0.12616829 </v>
   <v>       0.12616829       0.62616829       0.37383171 </v>
   <v>       0.62616829       0.37383171       0.12616829 </v>
   <v>       0.62383171       0.62383171       0.37616829 </v>
   <v>       0.62383171       0.87616829       0.12383171 </v>
   <v>       0.87383171       0.37383171       0.37383171 </v>
   <v>       0.87616829       0.62383171       0.12383171 </v>
  </varray>
 </structure>
</modeling>
