unknown system                          
           1
     8.579800    0.000000    0.000000
     0.000000    8.579800    0.000000
     0.000000    0.000000    8.579800
   Si   N 
  24  32
Direct configuration=     1
   0.87500000  0.87500000  0.12500000
   0.37500000  0.12500000  0.37500000
   0.62500000  0.87500000  0.37500000
   0.12500000  0.12500000  0.12500000
   0.25000000  0.75000000  0.25000000
   0.00000000  0.00000000  0.50000000
   0.87500000  0.37500000  0.62500000
   0.37500000  0.62500000  0.87500000
   0.62500000  0.37500000  0.87500000
   0.12500000  0.62500000  0.62500000
   0.25000000  0.25000000  0.75000000
   0.00000000  0.50000000  0.00000000
   0.37500000  0.87500000  0.62500000
   0.87500000  0.12500000  0.87500000
   0.12500000  0.87500000  0.87500000
   0.62500000  0.12500000  0.62500000
   0.75000000  0.75000000  0.75000000
   0.50000000  0.00000000  0.00000000
   0.37500000  0.37500000  0.12500000
   0.87500000  0.62500000  0.37500000
   0.12500000  0.37500000  0.37500000
   0.62500000  0.62500000  0.12500000
   0.75000000  0.25000000  0.25000000
   0.50000000  0.50000000  0.50000000
   0.37630293  0.37630293  0.37630293
   0.87369707  0.12630293  0.12630293
   0.62630293  0.12630293  0.37369707
   0.12630293  0.87369707  0.12630293
   0.12369707  0.12369707  0.37630293
   0.12369707  0.37630293  0.12369707
   0.37369707  0.87369707  0.37369707
   0.37630293  0.12369707  0.12369707
   0.37630293  0.87630293  0.87630293
   0.87369707  0.62630293  0.62630293
   0.62630293  0.62630293  0.87369707
   0.12630293  0.37369707  0.62630293
   0.12369707  0.62369707  0.87630293
   0.12369707  0.87630293  0.62369707
   0.37369707  0.37369707  0.87369707
   0.37630293  0.62369707  0.62369707
   0.87630293  0.37630293  0.87630293
   0.37369707  0.12630293  0.62630293
   0.12630293  0.12630293  0.87369707
   0.62630293  0.87369707  0.62630293
   0.62369707  0.12369707  0.87630293
   0.62369707  0.37630293  0.62369707
   0.87369707  0.87369707  0.87369707
   0.87630293  0.12369707  0.62369707
   0.87630293  0.87630293  0.37630293
   0.37369707  0.62630293  0.12630293
   0.12630293  0.62630293  0.37369707
   0.62630293  0.37369707  0.12630293
   0.62369707  0.62369707  0.37630293
   0.62369707  0.87630293  0.12369707
   0.87369707  0.37369707  0.37369707
   0.87630293  0.62369707  0.12369707
Direct configuration=     2
   0.87500000  0.87500000  0.12500000
   0.37500000  0.12500000  0.37500000
   0.62500000  0.87500000  0.37500000
   0.12500000  0.12500000  0.12500000
   0.25000000  0.75000000  0.25000000
   0.00000000 -0.00000000  0.50000000
   0.87500000  0.37500000  0.62500000
   0.37500000  0.62500000  0.87500000
   0.62500000  0.37500000  0.87500000
   0.12500000  0.62500000  0.62500000
   0.25000000  0.25000000  0.75000000
   0.00000000  0.50000000 -0.00000000
   0.37500000  0.87500000  0.62500000
   0.87500000  0.12500000  0.87500000
   0.12500000  0.87500000  0.87500000
   0.62500000  0.12500000  0.62500000
   0.75000000  0.75000000  0.75000000
   0.50000000 -0.00000000 -0.00000000
   0.37500000  0.37500000  0.12500000
   0.87500000  0.62500000  0.37500000
   0.12500000  0.37500000  0.37500000
   0.62500000  0.62500000  0.12500000
   0.75000000  0.25000000  0.25000000
   0.50000000  0.50000000  0.50000000
   0.37608497  0.37608497  0.37608497
   0.87391503  0.12608497  0.12608497
   0.62608497  0.12608497  0.37391503
   0.12608497  0.87391503  0.12608497
   0.12391503  0.12391503  0.37608497
   0.12391503  0.37608497  0.12391503
   0.37391503  0.87391503  0.37391503
   0.37608497  0.12391503  0.12391503
   0.37608497  0.87608497  0.87608497
   0.87391503  0.62608497  0.62608497
   0.62608497  0.62608497  0.87391503
   0.12608497  0.37391503  0.62608497
   0.12391503  0.62391503  0.87608497
   0.12391503  0.87608497  0.62391503
   0.37391503  0.37391503  0.87391503
   0.37608497  0.62391503  0.62391503
   0.87608497  0.37608497  0.87608497
   0.37391503  0.12608497  0.62608497
   0.12608497  0.12608497  0.87391503
   0.62608497  0.87391503  0.62608497
   0.62391503  0.12391503  0.87608497
   0.62391503  0.37608497  0.62391503
   0.87391503  0.87391503  0.87391503
   0.87608497  0.12391503  0.62391503
   0.87608497  0.87608497  0.37608497
   0.37391503  0.62608497  0.12608497
   0.12608497  0.62608497  0.37391503
   0.62608497  0.37391503  0.12608497
   0.62391503  0.62391503  0.37608497
   0.62391503  0.87608497  0.12391503
   0.87391503  0.37391503  0.37391503
   0.87608497  0.62391503  0.12391503
Direct configuration=     3
   0.87500000  0.87500000  0.12500000
   0.37500000  0.12500000  0.37500000
   0.62500000  0.87500000  0.37500000
   0.12500000  0.12500000  0.12500000
   0.25000000  0.75000000  0.25000000
   0.00000000 -0.00000000  0.50000000
   0.87500000  0.37500000  0.62500000
   0.37500000  0.62500000  0.87500000
   0.62500000  0.37500000  0.87500000
   0.12500000  0.62500000  0.62500000
   0.25000000  0.25000000  0.75000000
   0.00000000  0.50000000 -0.00000000
   0.37500000  0.87500000  0.62500000
   0.87500000  0.12500000  0.87500000
   0.12500000  0.87500000  0.87500000
   0.62500000  0.12500000  0.62500000
   0.75000000  0.75000000  0.75000000
   0.50000000 -0.00000000 -0.00000000
   0.37500000  0.37500000  0.12500000
   0.87500000  0.62500000  0.37500000
   0.12500000  0.37500000  0.37500000
   0.62500000  0.62500000  0.12500000
   0.75000000  0.25000000  0.25000000
   0.50000000  0.50000000  0.50000000
   0.37616829  0.37616829  0.37616829
   0.87383171  0.12616829  0.12616829
   0.62616829  0.12616829  0.37383171
   0.12616829  0.87383171  0.12616829
   0.12383171  0.12383171  0.37616829
   0.12383171  0.37616829  0.12383171
   0.37383171  0.87383171  0.37383171
   0.37616829  0.12383171  0.12383171
   0.37616829  0.87616829  0.87616829
   0.87383171  0.62616829  0.62616829
   0.62616829  0.62616829  0.87383171
   0.12616829  0.37383171  0.62616829
   0.12383171  0.62383171  0.87616829
   0.12383171  0.87616829  0.62383171
   0.37383171  0.37383171  0.87383171
   0.37616829  0.62383171  0.62383171
   0.87616829  0.37616829  0.87616829
   0.37383171  0.12616829  0.62616829
   0.12616829  0.12616829  0.87383171
   0.62616829  0.87383171  0.62616829
   0.62383171  0.12383171  0.87616829
   0.62383171  0.37616829  0.62383171
   0.87383171  0.87383171  0.87383171
   0.87616829  0.12383171  0.62383171
   0.87616829  0.87616829  0.37616829
   0.37383171  0.62616829  0.12616829
   0.12616829  0.62616829  0.37383171
   0.62616829  0.37383171  0.12616829
   0.62383171  0.62383171  0.37616829
   0.62383171  0.87616829  0.12383171
   0.87383171  0.37383171  0.37383171
   0.87616829  0.62383171  0.12383171
