  14  14   0   0
  0.1131493E+02  0.8041676E-09  0.8041676E-09  0.2828499E-09  0.5000000E-15
  1.000000000000000E-004
  CAR 
 unknown system                          
     15.79928322    -11.51718670  301      9.67576044      1.00000000
    -11.517  0.0000E+00  0.0000E+00
    -11.426  0.0000E+00  0.0000E+00
    -11.335  0.0000E+00  0.0000E+00
    -11.244  0.0000E+00  0.0000E+00
    -11.153  0.1270E-34  0.1157E-35
    -11.062  0.3442E-28  0.3134E-29
    -10.971  0.1700E-22  0.1548E-23
    -10.880  0.1516E-17  0.1380E-18
    -10.789  0.2417E-13  0.2201E-14
    -10.698  0.6768E-10  0.6165E-11
    -10.607  0.3286E-07  0.2999E-08
    -10.516  0.2616E-05  0.2412E-06
    -10.425  0.1869E-04  0.1943E-05
    -10.333 -0.1571E-03 -0.1236E-04
    -10.242  0.1314E-02  0.1072E-03
    -10.151  0.5899E-02  0.6444E-03
    -10.060  0.1020E-01  0.1573E-02
     -9.969  0.1118E-01  0.2591E-02
     -9.878  0.1692E-01  0.4131E-02
     -9.787  0.1357E-01  0.5367E-02
     -9.696  0.1989E-01  0.7178E-02
     -9.605  0.2197E-01  0.9179E-02
     -9.514  0.1984E-01  0.1099E-01
     -9.423  0.3139E-01  0.1384E-01
     -9.332  0.3092E-01  0.1666E-01
     -9.241  0.4087E-01  0.2038E-01
     -9.150  0.3580E-01  0.2364E-01
     -9.059  0.2643E-01  0.2605E-01
     -8.968  0.3042E-01  0.2882E-01
     -8.877  0.2502E-01  0.3109E-01
     -8.786  0.2785E-01  0.3363E-01
     -8.694  0.4026E-01  0.3730E-01
     -8.603  0.4867E-01  0.4173E-01
     -8.512  0.4066E-01  0.4543E-01
     -8.421  0.4776E-01  0.4978E-01
     -8.330  0.6026E-01  0.5527E-01
     -8.239  0.5063E-01  0.5988E-01
     -8.148  0.5712E-01  0.6508E-01
     -8.057  0.4782E-01  0.6943E-01
     -7.966  0.5236E-01  0.7420E-01
     -7.875  0.9259E-01  0.8263E-01
     -7.784  0.5687E-01  0.8781E-01
     -7.693  0.6643E-01  0.9386E-01
     -7.602  0.5608E-01  0.9896E-01
     -7.511  0.5067E-01  0.1036E+00
     -7.420  0.9149E-01  0.1119E+00
     -7.329  0.5540E-01  0.1170E+00
     -7.238  0.3151E-01  0.1198E+00
     -7.147  0.2377E-02  0.1200E+00
     -7.055 -0.5131E-03  0.1200E+00
     -6.964  0.1047E-03  0.1200E+00
     -6.873  0.5681E-05  0.1200E+00
     -6.782  0.3471E-07  0.1200E+00
     -6.691  0.3409E-10  0.1200E+00
     -6.600  0.5898E-14  0.1200E+00
     -6.509  0.1693E-18  0.1200E+00
     -6.418  0.0000E+00  0.1200E+00
     -6.327  0.0000E+00  0.1200E+00
     -6.236  0.0000E+00  0.1200E+00
     -6.145  0.0000E+00  0.1200E+00
     -6.054  0.0000E+00  0.1200E+00
     -5.963  0.0000E+00  0.1200E+00
     -5.872  0.0000E+00  0.1200E+00
     -5.781  0.0000E+00  0.1200E+00
     -5.690  0.0000E+00  0.1200E+00
     -5.599  0.0000E+00  0.1200E+00
     -5.508  0.0000E+00  0.1200E+00
     -5.417  0.0000E+00  0.1200E+00
     -5.325  0.0000E+00  0.1200E+00
     -5.234  0.0000E+00  0.1200E+00
     -5.143  0.0000E+00  0.1200E+00
     -5.052  0.0000E+00  0.1200E+00
     -4.961  0.0000E+00  0.1200E+00
     -4.870  0.0000E+00  0.1200E+00
     -4.779  0.0000E+00  0.1200E+00
     -4.688  0.0000E+00  0.1200E+00
     -4.597  0.0000E+00  0.1200E+00
     -4.506  0.0000E+00  0.1200E+00
     -4.415  0.0000E+00  0.1200E+00
     -4.324  0.0000E+00  0.1200E+00
     -4.233  0.0000E+00  0.1200E+00
     -4.142  0.0000E+00  0.1200E+00
     -4.051  0.0000E+00  0.1200E+00
     -3.960  0.5777E-30  0.1200E+00
     -3.869  0.5039E-24  0.1200E+00
     -3.778  0.7932E-19  0.1200E+00
     -3.686  0.2216E-14  0.1200E+00
     -3.595  0.1062E-10  0.1200E+00
     -3.504  0.8303E-08  0.1200E+00
     -3.413  0.9524E-06  0.1200E+00
     -3.322  0.1195E-04  0.1200E+00
     -3.231 -0.2399E-04  0.1200E+00
     -3.140  0.7066E-04  0.1200E+00
     -3.049  0.5199E-02  0.1205E+00
     -2.958  0.1206E-01  0.1216E+00
     -2.867  0.7440E-02  0.1223E+00
     -2.776  0.1691E-01  0.1238E+00
     -2.685  0.6087E-02  0.1243E+00
     -2.594  0.9578E-02  0.1252E+00
     -2.503  0.1190E-01  0.1263E+00
     -2.412  0.7723E-02  0.1270E+00
     -2.321  0.8522E-02  0.1278E+00
     -2.230  0.7973E-02  0.1285E+00
     -2.139  0.1268E-01  0.1297E+00
     -2.047  0.2460E-01  0.1319E+00
     -1.956  0.1941E-01  0.1337E+00
     -1.865  0.2139E-01  0.1356E+00
     -1.774  0.2880E-01  0.1382E+00
     -1.683  0.4130E-01  0.1420E+00
     -1.592  0.5154E-01  0.1467E+00
     -1.501  0.4836E-01  0.1511E+00
     -1.410  0.6947E-01  0.1574E+00
     -1.319  0.6643E-01  0.1635E+00
     -1.228  0.3498E-01  0.1667E+00
     -1.137  0.1613E-01  0.1681E+00
     -1.046  0.3750E-01  0.1715E+00
     -0.955  0.5193E-01  0.1763E+00
     -0.864  0.3437E-01  0.1794E+00
     -0.773  0.6227E-01  0.1851E+00
     -0.682  0.4967E-01  0.1896E+00
     -0.591  0.4898E-01  0.1941E+00
     -0.500  0.4871E-01  0.1985E+00
     -0.408  0.4938E-01  0.2030E+00
     -0.317  0.5707E-01  0.2082E+00
     -0.226  0.4431E-01  0.2122E+00
     -0.135  0.3835E-01  0.2157E+00
     -0.044  0.3221E-01  0.2186E+00
      0.047  0.3360E-01  0.2217E+00
      0.138  0.3169E-01  0.2246E+00
      0.229  0.2323E-01  0.2267E+00
      0.320  0.3472E-01  0.2299E+00
      0.411  0.3270E-01  0.2328E+00
      0.502  0.4706E-01  0.2371E+00
      0.593  0.6739E-01  0.2433E+00
      0.684  0.4801E-01  0.2476E+00
      0.775  0.2659E-01  0.2501E+00
      0.866  0.3582E-01  0.2533E+00
      0.957  0.3431E-01  0.2564E+00
      1.048  0.3937E-01  0.2600E+00
      1.139  0.2962E-01  0.2627E+00
      1.230  0.3752E-01  0.2661E+00
      1.322  0.5462E-01  0.2711E+00
      1.413  0.7197E-01  0.2777E+00
      1.504  0.6071E-01  0.2832E+00
      1.595  0.7344E-01  0.2899E+00
      1.686  0.5349E-01  0.2947E+00
      1.777  0.5333E-01  0.2996E+00
      1.868  0.4293E-01  0.3035E+00
      1.959  0.3690E-01  0.3069E+00
      2.050  0.3981E-01  0.3105E+00
      2.141  0.3861E-01  0.3140E+00
      2.232  0.6224E-01  0.3197E+00
      2.323  0.6086E-01  0.3252E+00
      2.414  0.7099E-01  0.3317E+00
      2.505  0.5912E-01  0.3371E+00
      2.596  0.6607E-01  0.3431E+00
      2.687  0.6612E-01  0.3491E+00
      2.778  0.4612E-01  0.3533E+00
      2.869  0.5630E-01  0.3584E+00
      2.961  0.5454E-01  0.3634E+00
      3.052  0.4613E-01  0.3676E+00
      3.143  0.3465E-01  0.3708E+00
      3.234  0.4994E-01  0.3753E+00
      3.325  0.5955E-01  0.3807E+00
      3.416  0.3927E-01  0.3843E+00
      3.507  0.5182E-01  0.3890E+00
      3.598  0.5971E-01  0.3945E+00
      3.689  0.5195E-01  0.3992E+00
      3.780  0.4698E-01  0.4035E+00
      3.871  0.4493E-01  0.4076E+00
      3.962  0.5448E-01  0.4125E+00
      4.053  0.8599E-01  0.4203E+00
      4.144  0.6982E-01  0.4267E+00
      4.235  0.8170E-01  0.4341E+00
      4.326  0.1211E+00  0.4452E+00
      4.417  0.8672E-01  0.4531E+00
      4.508  0.8695E-01  0.4610E+00
      4.600  0.5195E-01  0.4657E+00
      4.691  0.3935E-01  0.4693E+00
      4.782  0.1614E-01  0.4708E+00
      4.873  0.1781E-01  0.4724E+00
      4.964  0.3836E-01  0.4759E+00
      5.055  0.2510E-01  0.4782E+00
      5.146  0.1646E-01  0.4797E+00
      5.237  0.2736E-01  0.4822E+00
      5.328  0.2028E-01  0.4840E+00
      5.419  0.3171E-01  0.4869E+00
      5.510  0.5848E-01  0.4922E+00
      5.601  0.5611E-01  0.4973E+00
      5.692  0.5468E-01  0.5023E+00
      5.783  0.4127E-01  0.5061E+00
      5.874  0.6659E-01  0.5121E+00
      5.965  0.7135E-01  0.5186E+00
      6.056  0.6451E-01  0.5245E+00
      6.147  0.7254E-01  0.5311E+00
      6.239  0.5519E-01  0.5361E+00
      6.330  0.4445E-01  0.5402E+00
      6.421  0.3829E-01  0.5437E+00
      6.512  0.4398E-01  0.5477E+00
      6.603  0.3652E-01  0.5510E+00
      6.694  0.2871E-01  0.5536E+00
      6.785  0.1986E-01  0.5554E+00
      6.876  0.1277E-01  0.5566E+00
      6.967  0.1031E-01  0.5575E+00
      7.058  0.1391E-01  0.5588E+00
      7.149  0.2177E-01  0.5608E+00
      7.240  0.2352E-01  0.5629E+00
      7.331  0.2718E-01  0.5654E+00
      7.422  0.2633E-01  0.5678E+00
      7.513  0.4048E-01  0.5715E+00
      7.604  0.3083E-01  0.5743E+00
      7.695  0.2138E-01  0.5762E+00
      7.786  0.2371E-01  0.5784E+00
      7.878  0.3003E-01  0.5811E+00
      7.969  0.7892E-02  0.5818E+00
      8.060  0.2219E-01  0.5839E+00
      8.151  0.1612E-01  0.5853E+00
      8.242  0.1998E-01  0.5871E+00
      8.333  0.2270E-01  0.5892E+00
      8.424  0.3263E-01  0.5922E+00
      8.515  0.2944E-01  0.5949E+00
      8.606  0.8230E-02  0.5956E+00
      8.697  0.1340E-01  0.5968E+00
      8.788  0.1967E-01  0.5986E+00
      8.879  0.1688E-01  0.6002E+00
      8.970  0.4764E-02  0.6006E+00
      9.061  0.3215E-01  0.6035E+00
      9.152  0.2337E-01  0.6056E+00
      9.243  0.1564E-01  0.6071E+00
      9.334  0.1151E-01  0.6081E+00
      9.425  0.2398E-01  0.6103E+00
      9.516  0.5016E-01  0.6149E+00
      9.608  0.3044E-01  0.6176E+00
      9.699  0.3591E-01  0.6209E+00
      9.790  0.2740E-01  0.6234E+00
      9.881  0.2323E-01  0.6255E+00
      9.972  0.1977E-01  0.6273E+00
     10.063  0.2863E-01  0.6299E+00
     10.154  0.4496E-01  0.6340E+00
     10.245  0.3505E-01  0.6372E+00
     10.336  0.2538E-01  0.6395E+00
     10.427  0.2477E-01  0.6418E+00
     10.518  0.2728E-01  0.6443E+00
     10.609  0.3246E-01  0.6472E+00
     10.700  0.3045E-01  0.6500E+00
     10.791  0.4545E-01  0.6541E+00
     10.882  0.5905E-01  0.6595E+00
     10.973  0.4821E-01  0.6639E+00
     11.064  0.4485E-01  0.6680E+00
     11.155  0.3441E-01  0.6711E+00
     11.247  0.2353E-01  0.6733E+00
     11.338  0.2718E-01  0.6757E+00
     11.429  0.3312E-01  0.6787E+00
     11.520  0.2528E-01  0.6810E+00
     11.611  0.2475E-01  0.6833E+00
     11.702  0.4332E-01  0.6872E+00
     11.793  0.4712E-01  0.6915E+00
     11.884  0.4468E-01  0.6956E+00
     11.975  0.4218E-01  0.6994E+00
     12.066  0.3721E-01  0.7028E+00
     12.157  0.2828E-01  0.7054E+00
     12.248  0.3375E-01  0.7085E+00
     12.339  0.4236E-01  0.7123E+00
     12.430  0.3912E-01  0.7159E+00
     12.521  0.5399E-01  0.7208E+00
     12.612  0.6810E-01  0.7270E+00
     12.703  0.6480E-01  0.7329E+00
     12.794  0.7543E-01  0.7398E+00
     12.886  0.6785E-01  0.7460E+00
     12.977  0.5334E-01  0.7508E+00
     13.068  0.4891E-01  0.7553E+00
     13.159  0.5635E-01  0.7604E+00
     13.250  0.2187E-01  0.7624E+00
     13.341  0.3076E-01  0.7652E+00
     13.432  0.3577E-01  0.7685E+00
     13.523  0.5048E-01  0.7730E+00
     13.614  0.4265E-01  0.7769E+00
     13.705  0.3652E-01  0.7803E+00
     13.796  0.3839E-01  0.7838E+00
     13.887  0.3986E-01  0.7874E+00
     13.978  0.2450E-01  0.7896E+00
     14.069  0.2921E-01  0.7923E+00
     14.160  0.2691E-01  0.7947E+00
     14.251  0.2262E-01  0.7968E+00
     14.342  0.1326E-01  0.7980E+00
     14.433  0.6839E-02  0.7986E+00
     14.525  0.9597E-02  0.7995E+00
     14.616  0.5807E-02  0.8000E+00
     14.707 -0.1474E-03  0.8000E+00
     14.798 -0.3354E-04  0.8000E+00
     14.889  0.1591E-04  0.8000E+00
     14.980  0.3122E-06  0.8000E+00
     15.071  0.7522E-09  0.8000E+00
     15.162  0.2838E-12  0.8000E+00
     15.253  0.1795E-16  0.8000E+00
     15.344  0.0000E+00  0.8000E+00
     15.435  0.0000E+00  0.8000E+00
     15.526  0.0000E+00  0.8000E+00
     15.617  0.0000E+00  0.8000E+00
     15.708  0.0000E+00  0.8000E+00
     15.799  0.0000E+00  0.8000E+00
