   14   14  100    1
  0.1131493E+02  0.8041676E-09  0.8041676E-09  0.2828499E-09  0.5000000E-15
  1.000000000000000E-004
  CAR 
 unknown system                          
     62     72     40
 
  0.3742002E-15  0.3742002E-15  0.3742002E-15  0.1736111E-02
    1      -10.275529   1.000000
    2       -9.189758   1.000000
    3       -9.189758   1.000000
    4       -8.577879   1.000000
    5       -8.577878   1.000000
    6       -8.420932   1.000000
    7       -2.181200   1.000000
    8       -2.181200   1.000000
    9       -1.930530   1.000000
   10       -1.350588   1.000000
   11       -0.191801   1.000000
   12        0.615431   1.000000
   13        0.615431   1.000000
   14        2.466810   1.000000
   15        2.466810   1.000000
   16        3.251395   1.000000
   17        3.578431   1.000000
   18        3.578432   1.000000
   19        3.976897   1.000000
   20        4.213902   1.000000
   21        4.736747   1.000000
   22        4.736747   1.000000
   23        5.217325   1.000000
   24        5.217325   1.000000
   25        5.395794   1.000000
   26        6.609637   1.000000
   27        6.660257   1.000000
   28        6.660257   1.000000
   29        8.522769   1.000000
   30        8.842532   1.000000
   31        8.842532   1.000000
   32       12.521300   0.000000
   33       12.621673   0.000000
   34       12.621674   0.000000
   35       12.948518   0.000000
   36       12.948518   0.000000
   37       14.107687   0.000000
   38       14.160548   0.000000
   39       14.160770   0.000000
   40       14.400300   0.000000
 
  0.1666667E+00  0.3613159E-15  0.3742002E-15  0.1041667E-01
    1      -10.225619   1.000000
    2       -9.294798   1.000000
    3       -9.232165   1.000000
    4       -8.738036   1.000000
    5       -8.513169   1.000000
    6       -8.193997   1.000000
    7       -2.498680   1.000000
    8       -2.158168   1.000000
    9       -1.857099   1.000000
   10       -1.024728   1.000000
   11       -0.326714   1.000000
   12        0.449581   1.000000
   13        0.754070   1.000000
   14        2.356788   1.000000
   15        2.510187   1.000000
   16        3.286616   1.000000
   17        3.357981   1.000000
   18        3.747780   1.000000
   19        4.243097   1.000000
   20        4.304537   1.000000
   21        4.697423   1.000000
   22        4.726135   1.000000
   23        5.171384   1.000000
   24        5.233688   1.000000
   25        5.453182   1.000000
   26        6.369133   1.000000
   27        6.420954   1.000000
   28        6.754612   1.000000
   29        8.448449   1.000000
   30        9.061365   1.000000
   31        9.122201   1.000000
   32       12.174058   0.000000
   33       12.487123   0.000000
   34       12.558374   0.000000
   35       12.901957   0.000000
   36       12.994131   0.000000
   37       13.863518   0.000000
   38       14.118018   0.000000
   39       14.143339   0.000000
   40       14.521064   0.000000
 
  0.3333333E+00  0.3321740E-15  0.3742002E-15  0.1041667E-01
    1      -10.080416   1.000000
    2       -9.556617   1.000000
    3       -9.300316   1.000000
    4       -8.822920   1.000000
    5       -8.398597   1.000000
    6       -7.970068   1.000000
    7       -2.878026   1.000000
    8       -2.106648   1.000000
    9       -1.656736   1.000000
   10       -0.836046   1.000000
   11       -0.460898   1.000000
   12        0.149168   1.000000
   13        1.201057   1.000000
   14        2.172567   1.000000
   15        2.396962   1.000000
   16        2.990617   1.000000
   17        3.579712   1.000000
   18        4.009275   1.000000
   19        4.322938   1.000000
   20        4.591791   1.000000
   21        4.704603   1.000000
   22        4.754744   1.000000
   23        5.121483   1.000000
   24        5.263373   1.000000
   25        5.527892   1.000000
   26        5.832872   1.000000
   27        6.055350   1.000000
   28        7.128673   1.000000
   29        8.214860   1.000000
   30        9.405335   0.998965
   31        9.695867   0.293850
   32       11.283901   0.000000
   33       12.275879   0.000000
   34       12.401615   0.000000
   35       12.996772   0.000000
   36       13.091634   0.000000
   37       13.589869   0.000000
   38       13.982979   0.000000
   39       14.191575   0.000000
   40       14.290168   0.000000
 
  0.5000000E+00  0.3004295E-15  0.3742002E-15  0.5208333E-02
    1       -9.889867   1.000000
    2       -9.801534   1.000000
    3       -9.329089   1.000000
    4       -8.841464   1.000000
    5       -8.345603   1.000000
    6       -7.886323   1.000000
    7       -3.022524   1.000000
    8       -2.077530   1.000000
    9       -1.479868   1.000000
   10       -1.013828   1.000000
   11       -0.390291   1.000000
   12        0.008727   1.000000
   13        1.729920   1.000000
   14        2.034134   1.000000
   15        2.092639   1.000000
   16        2.803686   1.000000
   17        3.822280   1.000000
   18        4.117088   1.000000
   19        4.413919   1.000000
   20        4.488595   1.000000
   21        4.695147   1.000000
   22        4.944557   1.000000
   23        5.105812   1.000000
   24        5.276670   1.000000
   25        5.516266   1.000000
   26        5.554895   1.000000
   27        5.936014   1.000000
   28        7.447792   1.000000
   29        7.971749   1.000000
   30        9.533793   1.017276
   31       10.325484   0.000000
   32       10.504803   0.000000
   33       12.189172   0.000000
   34       12.282254   0.000000
   35       13.137088   0.000000
   36       13.197222   0.000000
   37       13.407007   0.000000
   38       13.893834   0.000000
   39       14.109637   0.000000
   40       14.153834   0.000000
 
  0.1666667E+00  0.1666667E+00  0.3742002E-15  0.1041667E-01
    1      -10.127911   1.000000
    2       -9.407971   1.000000
    3       -9.383003   1.000000
    4       -8.756196   1.000000
    5       -8.459847   1.000000
    6       -8.011424   1.000000
    7       -2.812867   1.000000
    8       -2.073861   1.000000
    9       -1.715323   1.000000
   10       -0.881827   1.000000
   11       -0.518899   1.000000
   12        0.398161   1.000000
   13        0.958133   1.000000
   14        2.124718   1.000000
   15        2.652619   1.000000
   16        3.043185   1.000000
   17        3.369192   1.000000
   18        4.005852   1.000000
   19        4.296850   1.000000
   20        4.641076   1.000000
   21        4.645733   1.000000
   22        4.687371   1.000000
   23        5.143424   1.000000
   24        5.245479   1.000000
   25        5.511909   1.000000
   26        5.997490   1.000000
   27        6.125666   1.000000
   28        7.010890   1.000000
   29        8.299827   1.000000
   30        9.365011   0.999822
   31        9.488022   0.995843
   32       11.642068   0.000000
   33       11.958622   0.000000
   34       12.735007   0.000000
   35       12.821948   0.000000
   36       13.147766   0.000000
   37       13.732454   0.000000
   38       13.919573   0.000000
   39       14.201496   0.000000
   40       14.343354   0.000000
 
  0.3333333E+00  0.1666667E+00  0.3742002E-15  0.1041667E-01
    1       -9.942697   1.000000
    2       -9.671769   1.000000
    3       -9.462457   1.000000
    4       -8.724393   1.000000
    5       -8.417566   1.000000
    6       -7.875341   1.000000
    7       -3.052668   1.000000
    8       -1.930970   1.000000
    9       -1.478000   1.000000
   10       -1.070135   1.000000
   11       -0.779065   1.000000
   12        0.544650   1.000000
   13        1.384097   1.000000
   14        1.860868   1.000000
   15        2.487101   1.000000
   16        2.893384   1.000000
   17        3.496647   1.000000
   18        4.197664   1.000000
   19        4.392156   1.000000
   20        4.541726   1.000000
   21        4.649046   1.000000
   22        4.931254   1.000000
   23        5.139291   1.000000
   24        5.250887   1.000000
   25        5.557057   1.000000
   26        5.716652   1.000000
   27        5.840185   1.000000
   28        7.406906   1.000000
   29        8.022912   1.000000
   30        9.660386   0.659690
   31        9.973931   0.000325
   32       10.821999   0.000000
   33       11.657762   0.000000
   34       12.522850   0.000000
   35       13.119543   0.000000
   36       13.387433   0.000000
   37       13.530497   0.000000
   38       13.734226   0.000000
   39       14.157278   0.000000
   40       14.303433   0.000000
 
  0.5000000E+00  0.1666667E+00  0.3742002E-15  0.1041667E-01
    1       -9.942714   1.000000
    2       -9.671790   1.000000
    3       -9.462450   1.000000
    4       -8.724294   1.000000
    5       -8.417602   1.000000
    6       -7.875405   1.000000
    7       -3.052637   1.000000
    8       -1.928841   1.000000
    9       -1.487730   1.000000
   10       -1.052217   1.000000
   11       -0.789412   1.000000
   12        0.541497   1.000000
   13        1.387050   1.000000
   14        1.861745   1.000000
   15        2.538622   1.000000
   16        2.806220   1.000000
   17        3.529759   1.000000
   18        4.219578   1.000000
   19        4.392298   1.000000
   20        4.541916   1.000000
   21        4.649211   1.000000
   22        4.923816   1.000000
   23        5.139221   1.000000
   24        5.251953   1.000000
   25        5.555618   1.000000
   26        5.623975   1.000000
   27        5.921348   1.000000
   28        7.411669   1.000000
   29        8.018621   1.000000
   30        9.617980   0.977866
   31       10.046194   0.000006
   32       10.757422   0.000000
   33       11.716076   0.000000
   34       12.502007   0.000000
   35       13.105398   0.000000
   36       13.384260   0.000000
   37       13.474185   0.000000
   38       13.849190   0.000000
   39       14.121203   0.000000
   40       14.263350   0.000000
 
  0.3333333E+00  0.3333333E+00  0.3742002E-15  0.3472222E-02
    1       -9.745156   1.000000
    2       -9.745156   1.000000
    3       -9.666515   1.000000
    4       -8.545897   1.000000
    5       -8.545897   1.000000
    6       -7.828714   1.000000
    7       -3.142707   1.000000
    8       -1.524384   1.000000
    9       -1.524384   1.000000
   10       -1.182414   1.000000
   11       -1.182414   1.000000
   12        1.209167   1.000000
   13        1.209168   1.000000
   14        1.568114   1.000000
   15        2.464701   1.000000
   16        3.172906   1.000000
   17        3.172906   1.000000
   18        4.264943   1.000000
   19        4.450388   1.000000
   20        4.554767   1.000000
   21        4.554767   1.000000
   22        5.018513   1.000000
   23        5.199671   1.000000
   24        5.199671   1.000000
   25        5.570692   1.000000
   26        5.726868   1.000000
   27        5.726868   1.000000
   28        7.741466   1.000000
   29        7.741466   1.000000
   30        9.888814   0.004629
   31       10.287458   0.000000
   32       10.287458   0.000000
   33       11.414802   0.000000
   34       12.378174   0.000000
   35       13.410580   0.000000
   36       13.410583   0.000000
   37       13.545232   0.000000
   38       13.892379   0.000000
   39       13.892552   0.000000
   40       14.246288   0.000000
 
  0.3742002E-15  0.3742002E-15  0.6250000E-01  0.3472222E-02
    1      -10.225212   1.000000
    2       -9.146147   1.000000
    3       -9.146147   1.000000
    4       -8.537770   1.000000
    5       -8.537770   1.000000
    6       -8.385376   1.000000
    7       -2.139578   1.000000
    8       -2.139578   1.000000
    9       -1.871851   1.000000
   10       -1.297568   1.000000
   11       -0.164915   1.000000
   12        0.644594   1.000000
   13        0.644595   1.000000
   14        2.513270   1.000000
   15        2.513271   1.000000
   16        3.258891   1.000000
   17        3.583791   1.000000
   18        3.583791   1.000000
   19        3.946617   1.000000
   20        3.951660   1.000000
   21        4.486773   1.000000
   22        4.486773   1.000000
   23        4.956453   1.000000
   24        4.956453   1.000000
   25        5.105087   1.000000
   26        6.673754   1.000000
   27        6.673754   1.000000
   28        6.772638   1.000000
   29        8.475216   1.000000
   30        8.961738   1.000000
   31        8.961738   1.000000
   32       12.450649   0.000000
   33       12.450651   0.000000
   34       12.457603   0.000000
   35       13.087382   0.000000
   36       13.087394   0.000000
   37       13.715004   0.000000
   38       13.947884   0.000000
   39       13.949042   0.000000
   40       13.957582   0.000000
 
  0.1666667E+00  0.3613159E-15  0.6250000E-01  0.2083333E-01
    1      -10.175599   1.000000
    2       -9.250228   1.000000
    3       -9.188029   1.000000
    4       -8.698019   1.000000
    5       -8.474058   1.000000
    6       -8.159463   1.000000
    7       -2.450376   1.000000
    8       -2.115497   1.000000
    9       -1.798937   1.000000
   10       -0.977854   1.000000
   11       -0.295312   1.000000
   12        0.479717   1.000000
   13        0.780747   1.000000
   14        2.403108   1.000000
   15        2.541504   1.000000
   16        3.290299   1.000000
   17        3.349782   1.000000
   18        3.746324   1.000000
   19        3.987538   1.000000
   20        4.267998   1.000000
   21        4.457202   1.000000
   22        4.479255   1.000000
   23        4.889790   1.000000
   24        4.984217   1.000000
   25        5.205977   1.000000
   26        6.399554   1.000000
   27        6.451763   1.000000
   28        6.897165   1.000000
   29        8.410921   1.000000
   30        9.153921   1.000000
   31        9.211418   1.000000
   32       12.187977   0.000000
   33       12.418768   0.000000
   34       12.474688   0.000000
   35       12.880403   0.000000
   36       13.037356   0.000000
   37       13.591846   0.000000
   38       13.864749   0.000000
   39       14.003534   0.000000
   40       14.071652   0.000000
 
  0.3333333E+00  0.3321740E-15  0.6250000E-01  0.2083333E-01
    1      -10.031179   1.000000
    2       -9.510222   1.000000
    3       -9.255504   1.000000
    4       -8.782606   1.000000
    5       -8.361254   1.000000
    6       -7.937786   1.000000
    7       -2.824689   1.000000
    8       -2.061274   1.000000
    9       -1.600379   1.000000
   10       -0.786797   1.000000
   11       -0.427838   1.000000
   12        0.180104   1.000000
   13        1.218977   1.000000
   14        2.219439   1.000000
   15        2.412731   1.000000
   16        2.981744   1.000000
   17        3.535980   1.000000
   18        3.979787   1.000000
   19        4.112443   1.000000
   20        4.299361   1.000000
   21        4.485398   1.000000
   22        4.719296   1.000000
   23        4.877375   1.000000
   24        5.031741   1.000000
   25        5.332328   1.000000
   26        5.881373   1.000000
   27        6.080589   1.000000
   28        7.227454   1.000000
   29        8.205021   1.000000
   30        9.450499   0.996149
   31        9.752578  -0.036096
   32       11.351539   0.000000
   33       12.306518   0.000000
   34       12.397041   0.000000
   35       12.829455   0.000000
   36       13.111024   0.000000
   37       13.297431   0.000000
   38       13.742164   0.000000
   39       13.956028   0.000000
   40       14.116382   0.000000
 
  0.5000000E+00  0.3004295E-15  0.6250000E-01  0.1041667E-01
    1       -9.841586   1.000000
    2       -9.753697   1.000000
    3       -9.283970   1.000000
    4       -8.801060   1.000000
    5       -8.309085   1.000000
    6       -7.854937   1.000000
    7       -2.967373   1.000000
    8       -2.030616   1.000000
    9       -1.425536   1.000000
   10       -0.961173   1.000000
   11       -0.356673   1.000000
   12        0.039710   1.000000
   13        1.730866   1.000000
   14        2.054371   1.000000
   15        2.140441   1.000000
   16        2.804904   1.000000
   17        3.701927   1.000000
   18        4.055633   1.000000
   19        4.203511   1.000000
   20        4.275923   1.000000
   21        4.501542   1.000000
   22        4.841563   1.000000
   23        4.910155   1.000000
   24        5.051336   1.000000
   25        5.427010   1.000000
   26        5.551871   1.000000
   27        5.944970   1.000000
   28        7.508025   1.000000
   29        7.990170   1.000000
   30        9.559603   1.041196
   31       10.365346   0.000000
   32       10.572644   0.000000
   33       12.257986   0.000000
   34       12.308467   0.000000
   35       12.870015   0.000000
   36       13.110048   0.000000
   37       13.315222   0.000000
   38       13.617380   0.000000
   39       14.013818   0.000000
   40       14.030389   0.000000
 
  0.1666667E+00  0.1666667E+00  0.6250000E-01  0.2083333E-01
    1      -10.078409   1.000000
    2       -9.362571   1.000000
    3       -9.337707   1.000000
    4       -8.716387   1.000000
    5       -8.421665   1.000000
    6       -7.978672   1.000000
    7       -2.760524   1.000000
    8       -2.029557   1.000000
    9       -1.658831   1.000000
   10       -0.834014   1.000000
   11       -0.483122   1.000000
   12        0.425382   1.000000
   13        0.981063   1.000000
   14        2.167637   1.000000
   15        2.667465   1.000000
   16        3.036328   1.000000
   17        3.366413   1.000000
   18        3.930630   1.000000
   19        4.103890   1.000000
   20        4.380854   1.000000
   21        4.412301   1.000000
   22        4.654876   1.000000
   23        4.877905   1.000000
   24        5.008779   1.000000
   25        5.304052   1.000000
   26        6.031085   1.000000
   27        6.166303   1.000000
   28        7.124031   1.000000
   29        8.277987   1.000000
   30        9.428397   0.997755
   31        9.544538   1.027073
   32       11.715022   0.000000
   33       11.980178   0.000000
   34       12.647577   0.000000
   35       12.832697   0.000000
   36       13.015908   0.000000
   37       13.388562   0.000000
   38       13.810420   0.000000
   39       13.990276   0.000000
   40       14.127979   0.000000
 
  0.3333333E+00  0.1666667E+00  0.6250000E-01  0.2083333E-01
    1       -9.894128   1.000000
    2       -9.624637   1.000000
    3       -9.416592   1.000000
    4       -8.684813   1.000000
    5       -8.380362   1.000000
    6       -7.844040   1.000000
    7       -2.997686   1.000000
    8       -1.885068   1.000000
    9       -1.424430   1.000000
   10       -1.018589   1.000000
   11       -0.738315   1.000000
   12        0.567472   1.000000
   13        1.398670   1.000000
   14        1.895884   1.000000
   15        2.503081   1.000000
   16        2.890617   1.000000
   17        3.460678   1.000000
   18        4.042644   1.000000
   19        4.255698   1.000000
   20        4.271926   1.000000
   21        4.465639   1.000000
   22        4.839576   1.000000
   23        4.937367   1.000000
   24        5.021300   1.000000
   25        5.408924   1.000000
   26        5.763250   1.000000
   27        5.855140   1.000000
   28        7.474365   1.000000
   29        8.030606   1.000000
   30        9.674333   0.515100
   31       10.038764   0.000010
   32       10.884677   0.000000
   33       11.710675   0.000000
   34       12.619400   0.000000
   35       12.847362   0.000000
   36       13.095853   0.000000
   37       13.424726   0.000000
   38       13.630091   0.000000
   39       14.017268   0.000000
   40       14.184068   0.000000
 
  0.5000000E+00  0.1666667E+00  0.6250000E-01  0.2083333E-01
    1       -9.894112   1.000000
    2       -9.624671   1.000000
    3       -9.416599   1.000000
    4       -8.684785   1.000000
    5       -8.380385   1.000000
    6       -7.844063   1.000000
    7       -2.997673   1.000000
    8       -1.882846   1.000000
    9       -1.434709   1.000000
   10       -0.999267   1.000000
   11       -0.749443   1.000000
   12        0.564240   1.000000
   13        1.401515   1.000000
   14        1.896544   1.000000
   15        2.553550   1.000000
   16        2.807882   1.000000
   17        3.488019   1.000000
   18        4.050980   1.000000
   19        4.201143   1.000000
   20        4.390124   1.000000
   21        4.411360   1.000000
   22        4.870186   1.000000
   23        4.903776   1.000000
   24        5.021792   1.000000
   25        5.414381   1.000000
   26        5.658037   1.000000
   27        5.944995   1.000000
   28        7.478099   1.000000
   29        8.027348   1.000000
   30        9.647468   0.781444
   31       10.087093   0.000000
   32       10.832528   0.000000
   33       11.758121   0.000000
   34       12.621578   0.000000
   35       12.820638   0.000000
   36       13.104915   0.000000
   37       13.361932   0.000000
   38       13.719604   0.000000
   39       14.013240   0.000000
   40       14.194139   0.000000
 
  0.3333333E+00  0.3333333E+00  0.6250000E-01  0.6944444E-02
    1       -9.697589   1.000000
    2       -9.697588   1.000000
    3       -9.619369   1.000000
    4       -8.507726   1.000000
    5       -8.507726   1.000000
    6       -7.797841   1.000000
    7       -3.086869   1.000000
    8       -1.479341   1.000000
    9       -1.479341   1.000000
   10       -1.129494   1.000000
   11       -1.129494   1.000000
   12        1.219795   1.000000
   13        1.219795   1.000000
   14        1.609597   1.000000
   15        2.482633   1.000000
   16        3.155491   1.000000
   17        3.155491   1.000000
   18        4.077004   1.000000
   19        4.324505   1.000000
   20        4.324505   1.000000
   21        4.355664   1.000000
   22        4.957333   1.000000
   23        4.957333   1.000000
   24        4.962794   1.000000
   25        5.461340   1.000000
   26        5.753785   1.000000
   27        5.753786   1.000000
   28        7.774510   1.000000
   29        7.774510   1.000000
   30        9.874041   0.004890
   31       10.366304   0.000000
   32       10.366304   0.000000
   33       11.453648   0.000000
   34       12.527611   0.000000
   35       12.961015   0.000000
   36       12.961018   0.000000
   37       13.553682   0.000000
   38       14.010999   0.000000
   39       14.011373   0.000000
   40       14.031727   0.000000
 
  0.3742002E-15  0.3742002E-15  0.1250000E+00  0.3472222E-02
    1      -10.076293   1.000000
    2       -9.017520   1.000000
    3       -9.017520   1.000000
    4       -8.420552   1.000000
    5       -8.420552   1.000000
    6       -8.282914   1.000000
    7       -2.019849   1.000000
    8       -2.019849   1.000000
    9       -1.696781   1.000000
   10       -1.141475   1.000000
   11       -0.099185   1.000000
   12        0.719370   1.000000
   13        0.719370   1.000000
   14        2.650639   1.000000
   15        2.650640   1.000000
   16        3.223519   1.000000
   17        3.292543   1.000000
   18        3.555744   1.000000
   19        3.555745   1.000000
   20        3.749361   1.000000
   21        3.857218   1.000000
   22        3.857218   1.000000
   23        4.360612   1.000000
   24        4.360612   1.000000
   25        4.683038   1.000000
   26        6.693344   1.000000
   27        6.693344   1.000000
   28        7.049975   1.000000
   29        8.283525   1.000000
   30        9.223964   1.000000
   31        9.223964   1.000000
   32       11.752149   0.000000
   33       11.752149   0.000000
   34       11.896866   0.000000
   35       12.553720   0.000000
   36       13.345704   0.000000
   37       13.345726   0.000000
   38       13.486804   0.000000
   39       13.486812   0.000000
   40       14.442102   0.000000
 
  0.1666667E+00  0.3613159E-15  0.1250000E+00  0.2083333E-01
    1      -10.027403   1.000000
    2       -9.118810   1.000000
    3       -9.057840   1.000000
    4       -8.581395   1.000000
    5       -8.359857   1.000000
    6       -8.059796   1.000000
    7       -2.308969   1.000000
    8       -1.992542   1.000000
    9       -1.625800   1.000000
   10       -0.840988   1.000000
   11       -0.213631   1.000000
   12        0.557562   1.000000
   13        0.847232   1.000000
   14        2.538973   1.000000
   15        2.597327   1.000000
   16        3.214733   1.000000
   17        3.260013   1.000000
   18        3.441635   1.000000
   19        3.634950   1.000000
   20        3.786807   1.000000
   21        3.934229   1.000000
   22        4.083425   1.000000
   23        4.281617   1.000000
   24        4.406742   1.000000
   25        4.875367   1.000000
   26        6.450564   1.000000
   27        6.499376   1.000000
   28        7.149547   1.000000
   29        8.244559   1.000000
   30        9.350198   0.999917
   31        9.410913   0.998730
   32       11.801241   0.000000
   33       11.859697   0.000000
   34       11.905634   0.000000
   35       12.524535   0.000000
   36       12.750453   0.000000
   37       13.031259   0.000000
   38       13.498301   0.000000
   39       13.627667   0.000000
   40       14.557625   0.000000
 
  0.3333333E+00  0.3321740E-15  0.1250000E+00  0.2083333E-01
    1       -9.885169   1.000000
    2       -9.373109   1.000000
    3       -9.123040   1.000000
    4       -8.664806   1.000000
    5       -8.252342   1.000000
    6       -7.844970   1.000000
    7       -2.666639   1.000000
    8       -1.930845   1.000000
    9       -1.433092   1.000000
   10       -0.642764   1.000000
   11       -0.337647   1.000000
   12        0.261144   1.000000
   13        1.256416   1.000000
   14        2.357665   1.000000
   15        2.418764   1.000000
   16        2.904934   1.000000
   17        3.195169   1.000000
   18        3.600025   1.000000
   19        3.680755   1.000000
   20        3.837930   1.000000
   21        4.139134   1.000000
   22        4.259856   1.000000
   23        4.424005   1.000000
   24        4.483271   1.000000
   25        5.201369   1.000000
   26        5.966142   1.000000
   27        6.129159   1.000000
   28        7.405417   1.000000
   29        8.115845   1.000000
   30        9.524956   1.010350
   31        9.878637   0.004933
   32       11.490997   0.000000
   33       11.861793   0.000000
   34       12.003785   0.000000
   35       12.216411   0.000000
   36       12.594178   0.000000
   37       12.705899   0.000000
   38       13.485465   0.000000
   39       13.708952   0.000000
   40       14.484171   0.000000
 
  0.5000000E+00  0.3004295E-15  0.1250000E+00  0.1041667E-01
    1       -9.698831   1.000000
    2       -9.612075   1.000000
    3       -9.150743   1.000000
    4       -8.683022   1.000000
    5       -8.202751   1.000000
    6       -7.765010   1.000000
    7       -2.804021   1.000000
    8       -1.895798   1.000000
    9       -1.265626   1.000000
   10       -0.806010   1.000000
   11       -0.265248   1.000000
   12        0.120925   1.000000
   13        1.712691   1.000000
   14        2.093167   1.000000
   15        2.280756   1.000000
   16        2.755606   1.000000
   17        3.168610   1.000000
   18        3.563291   1.000000
   19        3.674400   1.000000
   20        3.986680   1.000000
   21        4.271532   1.000000
   22        4.394206   1.000000
   23        4.482656   1.000000
   24        4.498135   1.000000
   25        5.426978   1.000000
   26        5.618909   1.000000
   27        5.963975   1.000000
   28        7.609134   1.000000
   29        7.974282   1.000000
   30        9.584498   1.050860
   31       10.447305   0.000000
   32       10.731635   0.000000
   33       11.872244   0.000000
   34       11.964116   0.000000
   35       12.359868   0.000000
   36       12.481560   0.000000
   37       12.731381   0.000000
   38       13.491720   0.000000
   39       13.885888   0.000000
   40       14.270308   0.000000
 
  0.1666667E+00  0.1666667E+00  0.1250000E+00  0.2083333E-01
    1       -9.931667   1.000000
    2       -9.228384   1.000000
    3       -9.203970   1.000000
    4       -8.600207   1.000000
    5       -8.310429   1.000000
    6       -7.884384   1.000000
    7       -2.605735   1.000000
    8       -1.901908   1.000000
    9       -1.491031   1.000000
   10       -0.695521   1.000000
   11       -0.384897   1.000000
   12        0.494412   1.000000
   13        1.035866   1.000000
   14        2.288734   1.000000
   15        2.638672   1.000000
   16        2.984137   1.000000
   17        3.253144   1.000000
   18        3.468051   1.000000
   19        3.681595   1.000000
   20        3.797968   1.000000
   21        4.107561   1.000000
   22        4.242396   1.000000
   23        4.354318   1.000000
   24        4.468668   1.000000
   25        5.115519   1.000000
   26        6.095380   1.000000
   27        6.234109   1.000000
   28        7.326496   1.000000
   29        8.161411   1.000000
   30        9.526346   1.011354
   31        9.690818   0.343489
   32       11.746966   0.000000
   33       11.845563   0.000000
   34       12.001021   0.000000
   35       12.228941   0.000000
   36       12.385316   0.000000
   37       12.876198   0.000000
   38       13.506594   0.000000
   39       13.696138   0.000000
   40       14.444935   0.000000
 
  0.3333333E+00  0.1666667E+00  0.1250000E+00  0.2083333E-01
    1       -9.750336   1.000000
    2       -9.485335   1.000000
    3       -9.281068   1.000000
    4       -8.569322   1.000000
    5       -8.272029   1.000000
    6       -7.754230   1.000000
    7       -2.834506   1.000000
    8       -1.753229   1.000000
    9       -1.267707   1.000000
   10       -0.867190   1.000000
   11       -0.622164   1.000000
   12        0.621664   1.000000
   13        1.422521   1.000000
   14        1.989336   1.000000
   15        2.532087   1.000000
   16        2.798176   1.000000
   17        3.166507   1.000000
   18        3.512057   1.000000
   19        3.679885   1.000000
   20        3.967464   1.000000
   21        4.263736   1.000000