 running on   16 total cores
 distrk:  each k-point on   16 cores,    1 groups
 distr:  one band on    4 cores,    4 groups
 using from now: INCAR     
 vasp.5.4.4.18Apr17-6-g9f103f2a35 (build Nov 01 2019 12:17:22) complex          
  
 POSCAR found type information on POSCAR  Si N 
 POSCAR found :  2 types and      14 ions
 WARNING: type information on POSCAR and POTCAR are incompatible
 POTCAR overwrites the type information in POSCAR
 typ   1 type information:  Si N 
 WARNING: type information on POSCAR and POTCAR are incompatible
 POTCAR overwrites the type information in POSCAR
 typ   2 type information:  N  Si
 LDA part: xc-table for Pade appr. of Perdew
 generate k-points for:    6    6   16
 POSCAR, INCAR and KPOINTS ok, starting setup
 FFT: planning ...
 WAVECAR not read
 entering main loop
       N       E                     dE             d eps       ncg     rms          rms(c)
DAV:   1     0.225566793378E+03    0.22557E+03   -0.25284E+04  5800   0.114E+03
DAV:   2    -0.820819131212E+02   -0.30765E+03   -0.29561E+03  7192   0.241E+02
DAV:   3    -0.103990229720E+03   -0.21908E+02   -0.21439E+02  7256   0.676E+01
DAV:   4    -0.104528480450E+03   -0.53825E+00   -0.53525E+00  7400   0.109E+01
DAV:   5    -0.104541075066E+03   -0.12595E-01   -0.12588E-01  7312   0.161E+00    0.227E+01
RMM:   6    -0.958710821030E+02    0.86700E+01   -0.45837E+01  5760   0.235E+01    0.104E+01
RMM:   7    -0.954415546096E+02    0.42953E+00   -0.11577E+00  5809   0.374E+00    0.587E+00
RMM:   8    -0.953555425987E+02    0.86012E-01   -0.64614E-01  5778   0.265E+00    0.907E-01
RMM:   9    -0.953421779994E+02    0.13365E-01   -0.17880E-01  5784   0.150E+00    0.540E-01
RMM:  10    -0.953397800590E+02    0.23979E-02   -0.12549E-02  5773   0.472E-01    0.145E-01
RMM:  11    -0.953406437219E+02   -0.86366E-03   -0.59318E-03  5780   0.288E-01    0.111E-01
RMM:  12    -0.953404629129E+02    0.18081E-03   -0.79300E-04  5465   0.111E-01    0.394E-02
RMM:  13    -0.953404676897E+02   -0.47768E-05   -0.19605E-04  3569   0.544E-02
   1 F= -.95340468E+02 E0= -.95339828E+02  d E =-.953405E+02
 curvature:   0.00 expect dE= 0.000E+00 dE for cont linesearch  0.000E+00
 trial: gam= 0.00000 g(F)=  0.168E-01 g(S)=  0.000E+00 ort = 0.000E+00 (trialstep = 0.100E+01)
 search vector abs. value=  0.168E-01
 bond charge predicted
       N       E                     dE             d eps       ncg     rms          rms(c)
DAV:   1    -0.953439673589E+02   -0.35044E-02   -0.97208E-01  6896   0.543E+00    0.219E-01
RMM:   2    -0.953448599447E+02   -0.89259E-03   -0.19912E-02  5768   0.668E-01    0.142E-01
RMM:   3    -0.953445199839E+02    0.33996E-03   -0.22251E-03  5876   0.179E-01    0.799E-02
RMM:   4    -0.953444904167E+02    0.29567E-04   -0.34914E-04  4100   0.719E-02
   2 F= -.95344490E+02 E0= -.95343994E+02  d E =-.402273E-02
 trial-energy change:   -0.004023  1 .order   -0.004061   -0.016774    0.008653
 step:   0.6597(harm=  0.6597)  dis= 0.00641  next Energy=   -95.346001 (dE=-0.553E-02)
 bond charge predicted
       N       E                     dE             d eps       ncg     rms          rms(c)
DAV:   1    -0.953459431251E+02   -0.14231E-02   -0.11327E-01  6696   0.185E+00    0.757E-02
RMM:   2    -0.953460277962E+02   -0.84671E-04   -0.22105E-03  5770   0.223E-01    0.450E-02
RMM:   3    -0.953459850771E+02    0.42719E-04   -0.21003E-04  3560   0.596E-02
   3 F= -.95345985E+02 E0= -.95345448E+02  d E =-.551739E-02
 curvature:  -0.33 expect dE=-0.132E-03 dE for cont linesearch -0.811E-06
 trial: gam= 0.03590 g(F)=  0.399E-03 g(S)=  0.000E+00 ort =-0.203E-03 (trialstep = 0.932E+00)
 search vector abs. value=  0.406E-03
 reached required accuracy - stopping structural energy minimisation
