 vasp.5.4.4.18Apr17-6-g9f103f2a35 (build Nov 01 2019 12:17:22) complex          
  
 executed on             LinuxIFC date 2023.05.19  18:18:47
 running on   16 total cores
 distrk:  each k-point on   16 cores,    1 groups
 distr:  one band on NCORES_PER_BAND=   4 cores,    4 groups


--------------------------------------------------------------------------------------------------------


 INCAR:
 POTCAR:    PAW_PBE N 08Apr2002                   
 POTCAR:    PAW_PBE Si 05Jan2001                  
 POTCAR:    PAW_PBE N 08Apr2002                   
   VRHFIN =N: s2p3                                                              
   LEXCH  = PE                                                                  
   EATOM  =   264.5486 eV,   19.4438 Ry                                         
                                                                                
   TITEL  = PAW_PBE N 08Apr2002                                                 
   LULTRA =        F    use ultrasoft PP ?                                      
   IUNSCR =        1    unscreen: 0-lin 1-nonlin 2-no                           
   RPACOR =    1.200    partial core radius                                     
   POMASS =   14.001; ZVAL   =    5.000    mass and valenz                      
   RCORE  =    1.500    outmost cutoff radius                                   
   RWIGS  =    1.400; RWIGS  =    0.741    wigner-seitz radius (au A)           
   ENMAX  =  400.000; ENMIN  =  300.000 eV                                      
   ICORE  =        2    local potential                                         
   LCOR   =        T    correct aug charges                                     
   LPAW   =        T    paw PP                                                  
   EAUG   =  627.112                                                            
   DEXC   =    0.000                                                            
   RMAX   =    1.529    core radius for proj-oper                               
   RAUG   =    1.300    factor for augmentation sphere                          
   RDEP   =    1.514    radius for radial grids                                 
   RDEPT  =    1.338    core radius for aug-charge                              
                                                                                
   Atomic configuration                                                         
    4 entries                                                                   
     n  l   j            E        occ.                                          
     1  0  0.50      -384.7179   2.0000                                         
     2  0  0.50       -18.5828   2.0000                                         
     2  1  0.50        -7.0898   3.0000                                         
     3  2  1.50        -6.8029   0.0000                                         
   Description                                                                  
     l       E           TYP  RCUT    TYP  RCUT                                 
     0    -18.5828119     23  1.200                                             
     0    -13.5018863     23  1.200                                             
     1     -7.0897853     23  1.500                                             
     1      9.5240782     23  1.500                                             
     2     -6.8029130      7  1.500                                             
  local pseudopotential read in
  partial core-charges read in
  partial kinetic energy density read in
  atomic valenz-charges read in
  non local Contribution for L=           0  read in
    real space projection operators read in
  non local Contribution for L=           0  read in
    real space projection operators read in
  non local Contribution for L=           1  read in
    real space projection operators read in
  non local Contribution for L=           1  read in
    real space projection operators read in
    PAW grid and wavefunctions read in
 
   number of l-projection  operators is LMAX  =           4
   number of lm-projection operators is LMMAX =           8
 
 POTCAR:    PAW_PBE Si 05Jan2001                  
   VRHFIN =Si: s2p2                                                             
   LEXCH  = PE                                                                  
   EATOM  =   103.0669 eV,    7.5752 Ry                                         
                                                                                
   TITEL  = PAW_PBE Si 05Jan2001                                                
   LULTRA =        F    use ultrasoft PP ?                                      
   IUNSCR =        1    unscreen: 0-lin 1-nonlin 2-no                           
   RPACOR =    1.500    partial core radius                                     
   POMASS =   28.085; ZVAL   =    4.000    mass and valenz                      
   RCORE  =    1.900    outmost cutoff radius                                   
   RWIGS  =    2.480; RWIGS  =    1.312    wigner-seitz radius (au A)           
   ENMAX  =  245.345; ENMIN  =  184.009 eV                                      
   ICORE  =        2    local potential                                         
   LCOR   =        T    correct aug charges                                     
   LPAW   =        T    paw PP                                                  
   EAUG   =  322.069                                                            
   DEXC   =    0.000                                                            
   RMAX   =    1.950    core radius for proj-oper                               
   RAUG   =    1.300    factor for augmentation sphere                          
   RDEP   =    1.993    radius for radial grids                                 
   RDEPT  =    1.837    core radius for aug-charge                              
                                                                                
   Atomic configuration                                                         
    6 entries                                                                   
     n  l   j            E        occ.                                          
     1  0  0.50     -1785.8828   2.0000                                         
     2  0  0.50      -139.4969   2.0000                                         
     2  1  1.50       -95.5546   6.0000                                         
     3  0  0.50       -10.8127   2.0000                                         
     3  1  0.50        -4.0811   2.0000                                         
     3  2  1.50        -4.0817   0.0000                                         
   Description                                                                  
     l       E           TYP  RCUT    TYP  RCUT                                 
     0    -10.8127223     23  1.900                                             
     0     -7.6451159     23  1.900                                             
     1     -4.0811372     23  1.900                                             
     1      2.4879257     23  1.900                                             
     2     -4.0817478      7  1.900                                             
  local pseudopotential read in
  partial core-charges read in
  partial kinetic energy density read in
  atomic valenz-charges read in
  non local Contribution for L=           0  read in
    real space projection operators read in
  non local Contribution for L=           0  read in
    real space projection operators read in
  non local Contribution for L=           1  read in
    real space projection operators read in
  non local Contribution for L=           1  read in
    real space projection operators read in
    PAW grid and wavefunctions read in
 
   number of l-projection  operators is LMAX  =           4
   number of lm-projection operators is LMMAX =           8
 
 Optimization of the real space projectors (new method)

 maximal supplied QI-value         = 25.13
 optimisation between [QCUT,QGAM] = [ 10.05, 20.36] = [ 28.30,116.06] Ry 
 Optimized for a Real-space Cutoff    1.70 Angstroem

   l    n(q)    QCUT    max X(q) W(low)/X(q) W(high)/X(q)  e(spline) 
   0     10    10.053    79.467    0.61E-04    0.98E-04    0.61E-06
   0     10    10.053    66.151    0.60E-04    0.98E-04    0.61E-06
   1     10    10.053     8.350    0.17E-03    0.71E-03    0.45E-05
   1     10    10.053     5.531    0.18E-03    0.77E-03    0.49E-05
 Optimization of the real space projectors (new method)

 maximal supplied QI-value         = 19.84
 optimisation between [QCUT,QGAM] = [ 10.12, 20.44] = [ 28.68,116.96] Ry 
 Optimized for a Real-space Cutoff    1.38 Angstroem

   l    n(q)    QCUT    max X(q) W(low)/X(q) W(high)/X(q)  e(spline) 
   0      8    10.119   159.560    0.58E-04    0.11E-03    0.54E-07
   0      8    10.119   115.863    0.56E-04    0.11E-03    0.54E-07
   1      8    10.119    88.339    0.22E-03    0.17E-03    0.19E-06
   1      8    10.119    48.592    0.22E-03    0.17E-03    0.18E-06
  PAW_PBE N 08Apr2002                   :
 energy of atom  1       EATOM= -264.5486
 kinetic energy error for atom=    0.0736 (will be added to EATOM!!)
  PAW_PBE Si 05Jan2001                  :
 energy of atom  2       EATOM= -103.0669
 kinetic energy error for atom=    0.0012 (will be added to EATOM!!)
 
 
 POSCAR: Si6 N8                                  
  positions in direct lattice
  No initial velocities read in
 exchange correlation table for  LEXCH =        8
   RHO(1)=    0.500       N(1)  =     2000
   RHO(2)=  100.500       N(2)  =     4000
 


--------------------------------------------------------------------------------------------------------


 ion  position               nearest neighbor table
   1  0.197  0.832  0.750-   9 1.82  10 1.83  10 1.83   7 2.10
   2  0.366  0.197  0.250-  10 1.82  12 1.83  12 1.83   8 2.10
   3  0.832  0.634  0.250-  11 1.82   9 1.83   9 1.83   8 2.10
   4  0.168  0.366  0.750-  12 1.82  13 1.83  13 1.83   7 2.10
   5  0.634  0.803  0.750-  14 1.82  11 1.83  11 1.83   7 2.10
   6  0.803  0.168  0.250-  13 1.82  14 1.83  14 1.83   8 2.10
   7  0.333  0.667  0.750-   5 2.10   4 2.10   1 2.10  11 2.72  11 2.72  13 2.72  13 2.72  10 2.72
                            10 2.72  12 2.78  14 2.78   9 2.78
   8  0.667  0.333  0.250-   2 2.10   3 2.10   6 2.10  12 2.72  12 2.72   9 2.72   9 2.72  14 2.72
                            14 2.72  11 2.78  10 2.78  13 2.78
   9  0.964  0.612  0.750-   1 1.82   3 1.83   3 1.83  13 2.58  13 2.58   8 2.72   8 2.72   7 2.78

  10  0.351  0.964  0.250-   2 1.82   1 1.83   1 1.83  14 2.58  14 2.58   7 2.72   7 2.72   8 2.78

  11  0.612  0.649  0.250-   3 1.82   5 1.83   5 1.83  12 2.58  12 2.58   7 2.72   7 2.72   8 2.78

  12  0.388  0.351  0.750-   4 1.82   2 1.83   2 1.83  11 2.58  11 2.58   8 2.72   8 2.72   7 2.78

  13  0.036  0.388  0.250-   6 1.82   4 1.83   4 1.83   9 2.58   9 2.58   7 2.72   7 2.72   8 2.78

  14  0.649  0.036  0.750-   5 1.82   6 1.83   6 1.83  10 2.58  10 2.58   8 2.72   8 2.72   7 2.78

 
  LATTYP: Found a hexagonal cell.
 ALAT       =     8.0416762142
 C/A-ratio  =     0.3517300815
  
  Lattice vectors:
  
 A1 = (   4.0208381123,  -6.9642958875,   0.0000000000)
 A2 = (   4.0208381019,   6.9642958935,   0.0000000000)
 A3 = (   0.0000000000,   0.0000000000,   2.8284994298)


Analysis of symmetry for initial positions (statically):
=====================================================================
 Subroutine PRICEL returns:
 Original cell was already a primitive cell.
 

 Routine SETGRP: Setting up the symmetry group for a 
 hexagonal supercell.


 Subroutine GETGRP returns: Found 12 space group operations
 (whereof  6 operations were pure point group operations)
 out of a pool of 24 trial point group operations.


The static configuration has the point symmetry S_6 .
 The point group associated with its full space group is C_6h.


Analysis of symmetry for dynamics (positions and initial velocities):
=====================================================================
 Subroutine PRICEL returns:
 Original cell was already a primitive cell.
 

 Routine SETGRP: Setting up the symmetry group for a 
 hexagonal supercell.


 Subroutine GETGRP returns: Found 12 space group operations
 (whereof  6 operations were pure point group operations)
 out of a pool of 24 trial point group operations.


The dynamic configuration has the point symmetry S_6 .
 The point group associated with its full space group is C_6h.


 Subroutine INISYM returns: Found 12 space group operations
 (whereof  6 operations are pure point group operations),
 and found     1 'primitive' translations

 
 
 KPOINTS: Automatic mesh                          

Automatic generation of k-mesh.
 generate k-points for:    6    6   16
Space group operators:
 irot       det(A)        alpha          n_x          n_y          n_z        tau_x        tau_y        tau_z
    1     1.000000     0.000000     1.000000     0.000000     0.000000     0.000000     0.000000     0.000000
    2    -1.000000     0.000000     1.000000     0.000000     0.000000     0.000000     0.000000     0.000000
    3     1.000000   120.000000     0.000000     0.000000    -1.000000     0.000000     0.000000     0.000000
    4    -1.000000   120.000000     0.000000     0.000000    -1.000000     0.000000     0.000000     0.000000
    5     1.000000   120.000000     0.000000     0.000000     1.000000     0.000000     0.000000     0.000000
    6    -1.000000   120.000000     0.000000     0.000000     1.000000     0.000000     0.000000     0.000000
    7     1.000000    60.000000     0.000000     0.000000    -1.000000     0.000000     0.000000     0.500000
    8    -1.000000    60.000000     0.000000     0.000000    -1.000000     0.000000     0.000000     0.500000
    9     1.000000   179.999999     0.000000     0.000000     1.000000     0.000000     0.000000     0.500000
   10    -1.000000   179.999999     0.000000     0.000000     1.000000     0.000000     0.000000     0.500000
   11     1.000000    60.000000     0.000000     0.000000     1.000000     0.000000     0.000000     0.500000
   12    -1.000000    60.000000     0.000000     0.000000     1.000000     0.000000     0.000000     0.500000
 
 Subroutine IBZKPT returns following result:
 ===========================================
 
 Found     72 irreducible k-points:
 
 Following reciprocal coordinates:
            Coordinates               Weight
  0.000000  0.000000  0.000000      1.000000
  0.166667  0.000000  0.000000      6.000000
  0.333333  0.000000  0.000000      6.000000
  0.500000  0.000000  0.000000      3.000000
  0.166667  0.166667  0.000000      6.000000
  0.333333  0.166667  0.000000      6.000000
  0.500000  0.166667  0.000000      6.000000
  0.333333  0.333333  0.000000      2.000000
  0.000000  0.000000  0.062500      2.000000
  0.166667  0.000000  0.062500     12.000000
  0.333333  0.000000  0.062500     12.000000
  0.500000  0.000000  0.062500      6.000000
  0.166667  0.166667  0.062500     12.000000
  0.333333  0.166667  0.062500     12.000000
  0.500000  0.166667  0.062500     12.000000
  0.333333  0.333333  0.062500      4.000000
  0.000000  0.000000  0.125000      2.000000
  0.166667  0.000000  0.125000     12.000000
  0.333333  0.000000  0.125000     12.000000
  0.500000  0.000000  0.125000      6.000000
  0.166667  0.166667  0.125000     12.000000
  0.333333  0.166667  0.125000     12.000000
  0.500000  0.166667  0.125000     12.000000
  0.333333  0.333333  0.125000      4.000000
  0.000000  0.000000  0.187500      2.000000
  0.166667  0.000000  0.187500     12.000000
  0.333333  0.000000  0.187500     12.000000
  0.500000  0.000000  0.187500      6.000000
  0.166667  0.166667  0.187500     12.000000
  0.333333  0.166667  0.187500     12.000000
  0.500000  0.166667  0.187500     12.000000
  0.333333  0.333333  0.187500      4.000000
  0.000000  0.000000  0.250000      2.000000
  0.166667  0.000000  0.250000     12.000000
  0.333333  0.000000  0.250000     12.000000
  0.500000  0.000000  0.250000      6.000000
  0.166667  0.166667  0.250000     12.000000
  0.333333  0.166667  0.250000     12.000000
  0.500000  0.166667  0.250000     12.000000
  0.333333  0.333333  0.250000      4.000000
  0.000000  0.000000  0.312500      2.000000
  0.166667  0.000000  0.312500     12.000000
  0.333333  0.000000  0.312500     12.000000
  0.500000  0.000000  0.312500      6.000000
  0.166667  0.166667  0.312500     12.000000
  0.333333  0.166667  0.312500     12.000000
  0.500000  0.166667  0.312500     12.000000
  0.333333  0.333333  0.312500      4.000000
  0.000000  0.000000  0.375000      2.000000
  0.166667  0.000000  0.375000     12.000000
  0.333333  0.000000  0.375000     12.000000
  0.500000  0.000000  0.375000      6.000000
  0.166667  0.166667  0.375000     12.000000
  0.333333  0.166667  0.375000     12.000000
  0.500000  0.166667  0.375000     12.000000
  0.333333  0.333333  0.375000      4.000000
  0.000000  0.000000  0.437500      2.000000
  0.166667  0.000000  0.437500     12.000000
  0.333333  0.000000  0.437500     12.000000
  0.500000  0.000000  0.437500      6.000000
  0.166667  0.166667  0.437500     12.000000
  0.333333  0.166667  0.437500     12.000000
  0.500000  0.166667  0.437500     12.000000
  0.333333  0.333333  0.437500      4.000000
  0.000000  0.000000  0.500000      1.000000
  0.166667  0.000000  0.500000      6.000000
  0.333333  0.000000  0.500000      6.000000
  0.500000  0.000000  0.500000      3.000000
  0.166667  0.166667  0.500000      6.000000
  0.333333  0.166667  0.500000      6.000000
  0.500000  0.166667  0.500000      6.000000
  0.333333  0.333333  0.500000      2.000000
 
 Following cartesian coordinates:
            Coordinates               Weight
  0.000000  0.000000  0.000000      1.000000
  0.020725 -0.011966  0.000000      6.000000
  0.041451 -0.023932  0.000000      6.000000
  0.062176 -0.035897  0.000000      3.000000
  0.041451  0.000000  0.000000      6.000000
  0.062176 -0.011966  0.000000      6.000000
  0.082901 -0.023932  0.000000      6.000000
  0.082901  0.000000  0.000000      2.000000
  0.000000  0.000000  0.022097      2.000000
  0.020725 -0.011966  0.022097     12.000000
  0.041451 -0.023932  0.022097     12.000000
  0.062176 -0.035897  0.022097      6.000000
  0.041451  0.000000  0.022097     12.000000
  0.062176 -0.011966  0.022097     12.000000
  0.082901 -0.023932  0.022097     12.000000
  0.082901  0.000000  0.022097      4.000000
  0.000000  0.000000  0.044193      2.000000
  0.020725 -0.011966  0.044193     12.000000
  0.041451 -0.023932  0.044193     12.000000
  0.062176 -0.035897  0.044193      6.000000
  0.041451  0.000000  0.044193     12.000000
  0.062176 -0.011966  0.044193     12.000000
  0.082901 -0.023932  0.044193     12.000000
  0.082901  0.000000  0.044193      4.000000
  0.000000  0.000000  0.066290      2.000000
  0.020725 -0.011966  0.066290     12.000000
  0.041451 -0.023932  0.066290     12.000000
  0.062176 -0.035897  0.066290      6.000000
  0.041451  0.000000  0.066290     12.000000
  0.062176 -0.011966  0.066290     12.000000
  0.082901 -0.023932  0.066290     12.000000
  0.082901  0.000000  0.066290      4.000000
  0.000000  0.000000  0.088386      2.000000
  0.020725 -0.011966  0.088386     12.000000
  0.041451 -0.023932  0.088386     12.000000
  0.062176 -0.035897  0.088386      6.000000
  0.041451  0.000000  0.088386     12.000000
  0.062176 -0.011966  0.088386     12.000000
  0.082901 -0.023932  0.088386     12.000000
  0.082901  0.000000  0.088386      4.000000
  0.000000  0.000000  0.110483      2.000000
  0.020725 -0.011966  0.110483     12.000000
  0.041451 -0.023932  0.110483     12.000000
  0.062176 -0.035897  0.110483      6.000000
  0.041451  0.000000  0.110483     12.000000
  0.062176 -0.011966  0.110483     12.000000
  0.082901 -0.023932  0.110483     12.000000
  0.082901  0.000000  0.110483      4.000000
  0.000000  0.000000  0.132579      2.000000
  0.020725 -0.011966  0.132579     12.000000
  0.041451 -0.023932  0.132579     12.000000
  0.062176 -0.035897  0.132579      6.000000
  0.041451  0.000000  0.132579     12.000000
  0.062176 -0.011966  0.132579     12.000000
  0.082901 -0.023932  0.132579     12.000000
  0.082901  0.000000  0.132579      4.000000
  0.000000  0.000000  0.154676      2.000000
  0.020725 -0.011966  0.154676     12.000000
  0.041451 -0.023932  0.154676     12.000000
  0.062176 -0.035897  0.154676      6.000000
  0.041451  0.000000  0.154676     12.000000
  0.062176 -0.011966  0.154676     12.000000
  0.082901 -0.023932  0.154676     12.000000
  0.082901  0.000000  0.154676      4.000000
  0.000000  0.000000  0.176772      1.000000
  0.020725 -0.011966  0.176772      6.000000
  0.041451 -0.023932  0.176772      6.000000
  0.062176 -0.035897  0.176772      3.000000
  0.041451  0.000000  0.176772      6.000000
  0.062176 -0.011966  0.176772      6.000000
  0.082901 -0.023932  0.176772      6.000000
  0.082901  0.000000  0.176772      2.000000
 


--------------------------------------------------------------------------------------------------------




 Dimension of arrays:
   k-points           NKPTS =     72   k-points in BZ     NKDIM =     72   number of bands    NBANDS=     40
   number of dos      NEDOS =    301   number of ions     NIONS =     14
   non local maximal  LDIM  =      4   non local SUM 2l+1 LMDIM =      8
   total plane-waves  NPLWV =  52488
   max r-space proj   IRMAX =   6843   max aug-charges    IRDMAX=  11277
   dimension x,y,z NGX =    54 NGY =   54 NGZ =   18
   dimension x,y,z NGXF=   108 NGYF=  108 NGZF=   36
   support grid    NGXF=   108 NGYF=  108 NGZF=   36
   ions per type =               6   8
   NGX,Y,Z   is equivalent  to a cutoff of  11.16, 11.16, 10.58 a.u.
   NGXF,Y,Z  is equivalent  to a cutoff of  22.33, 22.33, 21.16 a.u.

 SYSTEM =  unknown system                          
 POSCAR =  Si6 N8                                  

 Startparameter for this run:
   NWRITE =      2    write-flag & timer
   PREC   = accura    normal or accurate (medium, high low for compatibility)
   ISTART =      0    job   : 0-new  1-cont  2-samecut
   ICHARG =      2    charge: 1-file 2-atom 10-const
   ISPIN  =      1    spin polarized calculation?
   LNONCOLLINEAR =      F non collinear calculations
   LSORBIT =      F    spin-orbit coupling
   INIWAV =      1    electr: 0-lowe 1-rand  2-diag
   LASPH  =      F    aspherical Exc in radial PAW
   METAGGA=      F    non-selfconsistent MetaGGA calc.

 Electronic Relaxation 1
   ENCUT  =  400.0 eV  29.40 Ry    5.42 a.u.  13.11 13.11  4.61*2*pi/ulx,y,z
   ENINI  =  400.0     initial cutoff
   ENAUG  =  627.1 eV  augmentation charge cutoff
   NELM   =     60;   NELMIN=  2; NELMDL= -5     # of ELM steps 
   EDIFF  = 0.1E-03   stopping-criterion for ELM
   LREAL  =      T    real-space projection
   NLSPLINE    = F    spline interpolate recip. space projectors
   LCOMPAT=      F    compatible to vasp.4.4
   GGA_COMPAT  = T    GGA compatible to vasp.4.4-vasp.4.6
   LMAXPAW     = -100 max onsite density
   LMAXMIX     =    2 max onsite mixed and CHGCAR
   VOSKOWN=      0    Vosko Wilk Nusair interpolation
   ROPT   =   -0.00025  -0.00025
 Ionic relaxation
   EDIFFG = 0.1E-02   stopping-criterion for IOM
   NSW    =    100    number of steps for IOM
   NBLOCK =      1;   KBLOCK =    100    inner block; outer block 
   IBRION =      2    ionic relax: 0-MD 1-quasi-New 2-CG
   NFREE  =      1    steps in history (QN), initial steepest desc. (CG)
   ISIF   =      2    stress and relaxation
   IWAVPR =     11    prediction:  0-non 1-charg 2-wave 3-comb
   ISYM   =      2    0-nonsym 1-usesym 2-fastsym
   LCORR  =      T    Harris-Foulkes like correction to forces

   POTIM  = 0.5000    time-step for ionic-motion
   TEIN   =    0.0    initial temperature
   TEBEG  =    0.0;   TEEND  =   0.0 temperature during run
   SMASS  =  -3.00    Nose mass-parameter (am)
   estimated Nose-frequenzy (Omega)   =  0.10E-29 period in steps =****** mass=  -0.148E-26a.u.
   SCALEE = 1.0000    scale energy and forces
   NPACO  =    256;   APACO  = 16.0  distance and # of slots for P.C.
   PSTRESS=    0.0 pullay stress

  Mass of Ions in am
   POMASS =  14.00 28.09
  Ionic Valenz
   ZVAL   =   5.00  4.00
  Atomic Wigner-Seitz radii
   RWIGS  =  -1.00 -1.00
  virtual crystal weights 
   VCA    =   1.00  1.00
   NELECT =      62.0000    total number of electrons
   NUPDOWN=      -1.0000    fix difference up-down

 DOS related values:
   EMIN   =  10.00;   EMAX   =-10.00  energy-range for DOS
   EFERMI =   0.00
   ISMEAR =     2;   SIGMA  =   0.10  broadening in eV -4-tet -1-fermi 0-gaus

 Electronic relaxation 2 (details)
   IALGO  =     68    algorithm
   LDIAG  =      T    sub-space diagonalisation (order eigenvalues)
   LSUBROT=      F    optimize rotation matrix (better conditioning)
   TURBO    =      0    0=normal 1=particle mesh
   IRESTART =      0    0=no restart 2=restart with 2 vectors
   NREBOOT  =      0    no. of reboots
   NMIN     =      0    reboot dimension
   EREF     =   0.00    reference energy to select bands
   IMIX   =      4    mixing-type and parameters
     AMIX     =   0.40;   BMIX     =  1.00
     AMIX_MAG =   1.60;   BMIX_MAG =  1.00
     AMIN     =   0.10
     WC   =   100.;   INIMIX=   1;  MIXPRE=   1;  MAXMIX= -45

 Intra band minimization:
   WEIMIN = 0.0010     energy-eigenvalue tresh-hold
   EBREAK =  0.63E-06  absolut break condition
   DEPER  =   0.30     relativ break condition  

   TIME   =   0.40     timestep for ELM

  volume/ion in A,a.u.               =      11.31        76.36
  Fermi-wavevector in a.u.,A,eV,Ry     =   1.197509  2.262964 19.511131  1.434028
  Thomas-Fermi vector in A             =   2.333422
 
 Write flags
   LWAVE        =      F    write WAVECAR
   LDOWNSAMPLE  =      F    k-point downsampling of WAVECAR
   LCHARG       =      F    write CHGCAR
   LVTOT        =      F    write LOCPOT, total local potential
   LVHAR        =      F    write LOCPOT, Hartree potential only
   LELF         =      F    write electronic localiz. function (ELF)
   LORBIT       =      0    0 simple, 1 ext, 2 COOP (PROOUT), +10 PAW based schemes


 Dipole corrections
   LMONO  =      F    monopole corrections only (constant potential shift)
   LDIPOL =      F    correct potential (dipole corrections)
   IDIPOL =      0    1-x, 2-y, 3-z, 4-all directions 
   EPSILON=  1.0000000 bulk dielectric constant

 Exchange correlation treatment:
   GGA     =    --    GGA type
   LEXCH   =     8    internal setting for exchange type
   VOSKOWN=      0    Vosko Wilk Nusair interpolation
   LHFCALC =     F    Hartree Fock is set to
   LHFONE  =     F    Hartree Fock one center treatment
   AEXX    =    0.0000 exact exchange contribution

 Linear response parameters
   LEPSILON=     F    determine dielectric tensor
   LRPA    =     F    only Hartree local field effects (RPA)
   LNABLA  =     F    use nabla operator in PAW spheres
   LVEL    =     F    velocity operator in full k-point grid
   LINTERFAST=   F  fast interpolation
   KINTER  =     0    interpolate to denser k-point grid
   CSHIFT  =0.1000    complex shift for real part using Kramers Kronig
   OMEGAMAX=  -1.0    maximum frequency
   DEG_THRESHOLD= 0.2000000E-02 threshold for treating states as degnerate
   RTIME   =   -0.100 relaxation time in fs
  (WPLASMAI=    0.000 imaginary part of plasma frequency in eV, 0.658/RTIME)
   DFIELD  = 0.0000000 0.0000000 0.0000000 field for delta impulse in time
 
 Orbital magnetization related:
   ORBITALMAG=     F  switch on orbital magnetization
   LCHIMAG   =     F  perturbation theory with respect to B field
   DQ        =  0.001000  dq finite difference perturbation B field
   LLRAUG    =     F  two centre corrections for induced B field



--------------------------------------------------------------------------------------------------------


 conjugate gradient relaxation of ions
 charge density and potential will be updated during run
 non-spin polarized calculation
 RMM-DIIS sequential band-by-band and
  variant of blocked Davidson during initial phase
 perform sub-space diagonalisation
    before iterative eigenvector-optimisation
 modified Broyden-mixing scheme, WC =      100.0
 initial mixing is a Kerker type mixing with AMIX =  0.4000 and BMIX =      1.0000
 Hartree-type preconditioning will be used
 using additional bands            9
 real space projection scheme for non local part
 use partial core corrections
 calculate Harris-corrections to forces 
   (improved forces if not selfconsistent)
 use gradient corrections 
 use of overlap-Matrix (Vanderbilt PP)
 Methfessel and Paxton  Order N= 2 SIGMA  =   0.10


--------------------------------------------------------------------------------------------------------


  energy-cutoff  :      400.00
  volume of cell :      158.41
      direct lattice vectors                 reciprocal lattice vectors
     4.020838112 -6.964295887  0.000000000     0.124352184 -0.071794767  0.000000000
     4.020838102  6.964295894  0.000000000     0.124352184  0.071794767  0.000000000
     0.000000000  0.000000000  2.828499430     0.000000000  0.000000000  0.353544353

  length of vectors
     8.041676214  8.041676214  2.828499430     0.143589534  0.143589534  0.353544353


 
 k-points in units of 2pi/SCALE and weight: Automatic mesh                          
   0.00000000  0.00000000  0.00000000       0.002
   0.02072536 -0.01196579  0.00000000       0.010
   0.04145073 -0.02393159  0.00000000       0.010
   0.06217609 -0.03589738  0.00000000       0.005
   0.04145073  0.00000000  0.00000000       0.010
   0.06217609 -0.01196579  0.00000000       0.010
   0.08290146 -0.02393159  0.00000000       0.010
   0.08290146  0.00000000  0.00000000       0.003
   0.00000000  0.00000000  0.02209652       0.003
   0.02072536 -0.01196579  0.02209652       0.021
   0.04145073 -0.02393159  0.02209652       0.021
   0.06217609 -0.03589738  0.02209652       0.010
   0.04145073  0.00000000  0.02209652       0.021
   0.06217609 -0.01196579  0.02209652       0.021
   0.08290146 -0.02393159  0.02209652       0.021
   0.08290146  0.00000000  0.02209652       0.007
   0.00000000  0.00000000  0.04419304       0.003
   0.02072536 -0.01196579  0.04419304       0.021
   0.04145073 -0.02393159  0.04419304       0.021
   0.06217609 -0.03589738  0.04419304       0.010
   0.04145073  0.00000000  0.04419304       0.021
   0.06217609 -0.01196579  0.04419304       0.021
   0.08290146 -0.02393159  0.04419304       0.021
   0.08290146  0.00000000  0.04419304       0.007
   0.00000000  0.00000000  0.06628957       0.003
   0.02072536 -0.01196579  0.06628957       0.021
   0.04145073 -0.02393159  0.06628957       0.021
   0.06217609 -0.03589738  0.06628957       0.010
   0.04145073  0.00000000  0.06628957       0.021
   0.06217609 -0.01196579  0.06628957       0.021
   0.08290146 -0.02393159  0.06628957       0.021
   0.08290146  0.00000000  0.06628957       0.007
   0.00000000  0.00000000  0.08838609       0.003
   0.02072536 -0.01196579  0.08838609       0.021
   0.04145073 -0.02393159  0.08838609       0.021
   0.06217609 -0.03589738  0.08838609       0.010
   0.04145073  0.00000000  0.08838609       0.021
   0.06217609 -0.01196579  0.08838609       0.021
   0.08290146 -0.02393159  0.08838609       0.021
   0.08290146  0.00000000  0.08838609       0.007
   0.00000000  0.00000000  0.11048261       0.003
   0.02072536 -0.01196579  0.11048261       0.021
   0.04145073 -0.02393159  0.11048261       0.021
   0.06217609 -0.03589738  0.11048261       0.010
   0.04145073  0.00000000  0.11048261       0.021
   0.06217609 -0.01196579  0.11048261       0.021
   0.08290146 -0.02393159  0.11048261       0.021
   0.08290146  0.00000000  0.11048261       0.007
   0.00000000  0.00000000  0.13257913       0.003
   0.02072536 -0.01196579  0.13257913       0.021
   0.04145073 -0.02393159  0.13257913       0.021
   0.06217609 -0.03589738  0.13257913       0.010
   0.04145073  0.00000000  0.13257913       0.021
   0.06217609 -0.01196579  0.13257913       0.021
   0.08290146 -0.02393159  0.13257913       0.021
   0.08290146  0.00000000  0.13257913       0.007
   0.00000000  0.00000000  0.15467565       0.003
   0.02072536 -0.01196579  0.15467565       0.021
   0.04145073 -0.02393159  0.15467565       0.021
   0.06217609 -0.03589738  0.15467565       0.010
   0.04145073  0.00000000  0.15467565       0.021
   0.06217609 -0.01196579  0.15467565       0.021
   0.08290146 -0.02393159  0.15467565       0.021
   0.08290146  0.00000000  0.15467565       0.007
   0.00000000  0.00000000  0.17677218       0.002
   0.02072536 -0.01196579  0.17677218       0.010
   0.04145073 -0.02393159  0.17677218       0.010
   0.06217609 -0.03589738  0.17677218       0.005
   0.04145073  0.00000000  0.17677218       0.010
   0.06217609 -0.01196579  0.17677218       0.010
   0.08290146 -0.02393159  0.17677218       0.010
   0.08290146  0.00000000  0.17677218       0.003
 
 k-points in reciprocal lattice and weights: Automatic mesh                          
   0.00000000  0.00000000  0.00000000       0.002
   0.16666667  0.00000000  0.00000000       0.010
   0.33333333  0.00000000  0.00000000       0.010
   0.50000000  0.00000000  0.00000000       0.005
   0.16666667  0.16666667  0.00000000       0.010
   0.33333333  0.16666667  0.00000000       0.010
   0.50000000  0.16666667  0.00000000       0.010
   0.33333333  0.33333333  0.00000000       0.003
   0.00000000  0.00000000  0.06250000       0.003
   0.16666667  0.00000000  0.06250000       0.021
   0.33333333  0.00000000  0.06250000       0.021
   0.50000000  0.00000000  0.06250000       0.010
   0.16666667  0.16666667  0.06250000       0.021
   0.33333333  0.16666667  0.06250000       0.021
   0.50000000  0.16666667  0.06250000       0.021
   0.33333333  0.33333333  0.06250000       0.007
   0.00000000  0.00000000  0.12500000       0.003
   0.16666667  0.00000000  0.12500000       0.021
   0.33333333  0.00000000  0.12500000       0.021
   0.50000000  0.00000000  0.12500000       0.010
   0.16666667  0.16666667  0.12500000       0.021
   0.33333333  0.16666667  0.12500000       0.021
   0.50000000  0.16666667  0.12500000       0.021
   0.33333333  0.33333333  0.12500000       0.007
   0.00000000  0.00000000  0.18750000       0.003
   0.16666667  0.00000000  0.18750000       0.021
   0.33333333  0.00000000  0.18750000       0.021
   0.50000000  0.00000000  0.18750000       0.010
   0.16666667  0.16666667  0.18750000       0.021
   0.33333333  0.16666667  0.18750000       0.021
   0.50000000  0.16666667  0.18750000       0.021
   0.33333333  0.33333333  0.18750000       0.007
   0.00000000  0.00000000  0.25000000       0.003
   0.16666667  0.00000000  0.25000000       0.021
   0.33333333  0.00000000  0.25000000       0.021
   0.50000000  0.00000000  0.25000000       0.010
   0.16666667  0.16666667  0.25000000       0.021
   0.33333333  0.16666667  0.25000000       0.021
   0.50000000  0.16666667  0.25000000       0.021
   0.33333333  0.33333333  0.25000000       0.007
   0.00000000  0.00000000  0.31250000       0.003
   0.16666667  0.00000000  0.31250000       0.021
   0.33333333  0.00000000  0.31250000       0.021
   0.50000000  0.00000000  0.31250000       0.010
   0.16666667  0.16666667  0.31250000       0.021
   0.33333333  0.16666667  0.31250000       0.021
   0.50000000  0.16666667  0.31250000       0.021
   0.33333333  0.33333333  0.31250000       0.007
   0.00000000  0.00000000  0.37500000       0.003
   0.16666667  0.00000000  0.37500000       0.021
   0.33333333  0.00000000  0.37500000       0.021
   0.50000000  0.00000000  0.37500000       0.010
   0.16666667  0.16666667  0.37500000       0.021
   0.33333333  0.16666667  0.37500000       0.021
   0.50000000  0.16666667  0.37500000       0.021
   0.33333333  0.33333333  0.37500000       0.007
   0.00000000  0.00000000  0.43750000       0.003
   0.16666667  0.00000000  0.43750000       0.021
   0.33333333  0.00000000  0.43750000       0.021
   0.50000000  0.00000000  0.43750000       0.010
   0.16666667  0.16666667  0.43750000       0.021
   0.33333333  0.16666667  0.43750000       0.021
   0.50000000  0.16666667  0.43750000       0.021
   0.33333333  0.33333333  0.43750000       0.007
   0.00000000  0.00000000  0.50000000       0.002
   0.16666667  0.00000000  0.50000000       0.010
   0.33333333  0.00000000  0.50000000       0.010
   0.50000000  0.00000000  0.50000000       0.005
   0.16666667  0.16666667  0.50000000       0.010
   0.33333333  0.16666667  0.50000000       0.010
   0.50000000  0.16666667  0.50000000       0.010
   0.33333333  0.33333333  0.50000000       0.003
 
 position of ions in fractional coordinates (direct lattice) 
   0.19708959  0.83151770  0.75000000
   0.36557189  0.19708959  0.25000000
   0.83151770  0.63442811  0.25000000
   0.16848230  0.36557189  0.75000000
   0.63442811  0.80291041  0.75000000
   0.80291041  0.16848230  0.25000000
   0.33333333  0.66666667  0.75000000
   0.66666667  0.33333333  0.25000000
   0.96358754  0.61246345  0.75000000
   0.35112409  0.96358754  0.25000000
   0.61246345  0.64887591  0.25000000
   0.38753655  0.35112409  0.75000000
   0.03641246  0.38753655  0.25000000
   0.64887591  0.03641246  0.75000000
 
 position of ions in cartesian coordinates  (Angst):
   4.13586341  4.41834508  2.12137457
   2.26237073 -1.17336057  0.70712486
   5.89433079 -1.37259024  0.70712486
   2.14734543  1.37259024  2.12137457
   5.77930548  1.17336058  2.12137457
   3.90581281 -4.41834508  0.70712486
   4.02083811  2.32143197  2.12137457
   4.02083811 -2.32143196  0.70712486
   6.33704589 -2.44533206  2.12137457
   5.28624263  4.26537669  0.70712486
   5.07164136  0.25358714  0.70712486
   2.97003485 -0.25358714  2.12137457
   1.70463033  2.44533207  0.70712486
   2.75543359 -4.26537669  2.12137457
 


--------------------------------------------------------------------------------------------------------


 k-point  1 :   0.0000 0.0000 0.0000  plane waves:    2871
 k-point  2 :   0.1667 0.0000 0.0000  plane waves:    2871
 k-point  3 :   0.3333 0.0000 0.0000  plane waves:    2887
 k-point  4 :   0.5000 0.0000 0.0000  plane waves:    2896
 k-point  5 :   0.1667 0.1667 0.0000  plane waves:    2883
 k-point  6 :   0.3333 0.1667 0.0000  plane waves:    2898
 k-point  7 :   0.5000 0.1667 0.0000  plane waves:    2898
 k-point  8 :   0.3333 0.3333 0.0000  plane waves:    2919
 k-point  9 :   0.0000 0.0000 0.0625  plane waves:    2865
 k-point 10 :   0.1667 0.0000 0.0625  plane waves:    2869
 k-point 11 :   0.3333 0.0000 0.0625  plane waves:    2897
 k-point 12 :   0.5000 0.0000 0.0625  plane waves:    2900
 k-point 13 :   0.1667 0.1667 0.0625  plane waves:    2886
 k-point 14 :   0.3333 0.1667 0.0625  plane waves:    2897
 k-point 15 :   0.5000 0.1667 0.0625  plane waves:    2897
 k-point 16 :   0.3333 0.3333 0.0625  plane waves:    2904
 k-point 17 :   0.0000 0.0000 0.1250  plane waves:    2865
 k-point 18 :   0.1667 0.0000 0.1250  plane waves:    2877
 k-point 19 :   0.3333 0.0000 0.1250  plane waves:    2889
 k-point 20 :   0.5000 0.0000 0.1250  plane waves:    2910
 k-point 21 :   0.1667 0.1667 0.1250  plane waves:    2884
 k-point 22 :   0.3333 0.1667 0.1250  plane waves:    2890
 k-point 23 :   0.5000 0.1667 0.1250  plane waves:    2890
 k-point 24 :   0.3333 0.3333 0.1250  plane waves:    2892
 k-point 25 :   0.0000 0.0000 0.1875  plane waves:    2895
 k-point 26 :   0.1667 0.0000 0.1875  plane waves:    2886
 k-point 27 :   0.3333 0.0000 0.1875  plane waves:    2889
 k-point 28 :   0.5000 0.0000 0.1875  plane waves:    2878
 k-point 29 :   0.1667 0.1667 0.1875  plane waves:    2884
 k-point 30 :   0.3333 0.1667 0.1875  plane waves:    2883
 k-point 31 :   0.5000 0.1667 0.1875  plane waves:    2883
 k-point 32 :   0.3333 0.3333 0.1875  plane waves:    2871
 k-point 33 :   0.0000 0.0000 0.2500  plane waves:    2883
 k-point 34 :   0.1667 0.0000 0.2500  plane waves:    2877
 k-point 35 :   0.3333 0.0000 0.2500  plane waves:    2882
 k-point 36 :   0.5000 0.0000 0.2500  plane waves:    2884
 k-point 37 :   0.1667 0.1667 0.2500  plane waves:    2882
 k-point 38 :   0.3333 0.1667 0.2500  plane waves:    2878
 k-point 39 :   0.5000 0.1667 0.2500  plane waves:    2878
 k-point 40 :   0.3333 0.3333 0.2500  plane waves:    2868
 k-point 41 :   0.0000 0.0000 0.3125  plane waves:    2865
 k-point 42 :   0.1667 0.0000 0.3125  plane waves:    2864
 k-point 43 :   0.3333 0.0000 0.3125  plane waves:    2871
 k-point 44 :   0.5000 0.0000 0.3125  plane waves:    2878
 k-point 45 :   0.1667 0.1667 0.3125  plane waves:    2869
 k-point 46 :   0.3333 0.1667 0.3125  plane waves:    2875
 k-point 47 :   0.5000 0.1667 0.3125  plane waves:    2875
 k-point 48 :   0.3333 0.3333 0.3125  plane waves:    2859
 k-point 49 :   0.0000 0.0000 0.3750  plane waves:    2871
 k-point 50 :   0.1667 0.0000 0.3750  plane waves:    2861
 k-point 51 :   0.3333 0.0000 0.3750  plane waves:    2861
 k-point 52 :   0.5000 0.0000 0.3750  plane waves:    2856
 k-point 53 :   0.1667 0.1667 0.3750  plane waves:    2862
 k-point 54 :   0.3333 0.1667 0.3750  plane waves:    2866
 k-point 55 :   0.5000 0.1667 0.3750  plane waves:    2866
 k-point 56 :   0.3333 0.3333 0.3750  plane waves:    2871
 k-point 57 :   0.0000 0.0000 0.4375  plane waves:    2872
 k-point 58 :   0.1667 0.0000 0.4375  plane waves:    2865
 k-point 59 :   0.3333 0.0000 0.4375  plane waves:    2861
 k-point 60 :   0.5000 0.0000 0.4375  plane waves:    2858
 k-point 61 :   0.1667 0.1667 0.4375  plane waves:    2866
 k-point 62 :   0.3333 0.1667 0.4375  plane waves:    2862
 k-point 63 :   0.5000 0.1667 0.4375  plane waves:    2862
 k-point 64 :   0.3333 0.3333 0.4375  plane waves:    2871
 k-point 65 :   0.0000 0.0000 0.5000  plane waves:    2878
 k-point 66 :   0.1667 0.0000 0.5000  plane waves:    2870
 k-point 67 :   0.3333 0.0000 0.5000  plane waves:    2874
 k-point 68 :   0.5000 0.0000 0.5000  plane waves:    2852
 k-point 69 :   0.1667 0.1667 0.5000  plane waves:    2866
 k-point 70 :   0.3333 0.1667 0.5000  plane waves:    2860
 k-point 71 :   0.5000 0.1667 0.5000  plane waves:    2860
 k-point 72 :   0.3333 0.3333 0.5000  plane waves:    2874

 maximum and minimum number of plane-waves per node :       761      693

 maximum number of plane-waves:      2919
 maximum index in each direction: 
   IXMAX=   13   IYMAX=   13   IZMAX=    4
   IXMIN=  -13   IYMIN=  -13   IZMIN=   -5


 real space projection operators:
  total allocation   :       4253.25 KBytes
  max/ min on nodes  :       1097.50       1028.25


 parallel 3D FFT for wavefunctions:
    minimum data exchange during FFTs selected (reduces bandwidth)
 parallel 3D FFT for charge:
    minimum data exchange during FFTs selected (reduces bandwidth)


 total amount of memory used by VASP MPI-rank0    45658. kBytes
=======================================================================

   base      :      30000. kBytes
   nonlr-proj:       2971. kBytes
   fftplans  :       1366. kBytes
   grid      :       2140. kBytes
   one-center:         12. kBytes
   wavefun   :       9169. kBytes
 
     INWAV:  cpu time    0.0000: real time    0.0000
 Broyden mixing: mesh for mixing (old mesh)
   NGX = 27   NGY = 27   NGZ =  9
  (NGX  =108   NGY  =108   NGZ  = 36)
  gives a total of   6561 points

 initial charge density was supplied:
 charge density of overlapping atoms calculated
 number of electron      62.0000000 magnetization 
 keeping initial charge density in first step


--------------------------------------------------------------------------------------------------------


 Maximum index for non-local projection operator         1746
 Maximum index for augmentation-charges          874 (set IRDMAX)


--------------------------------------------------------------------------------------------------------


 First call to EWALD:  gamma=   0.328
 Maximum number of real-space cells 2x 2x 5
 Maximum number of reciprocal cells 4x 4x 2

    FEWALD:  cpu time    0.0018: real time    0.0018


--------------------------------------- Iteration      1(   1)  ---------------------------------------


    POTLOK:  cpu time    0.0198: real time    0.0313
    SETDIJ:  cpu time    0.0024: real time    0.0024
     EDDAV:  cpu time    2.3107: real time    2.3105
       DOS:  cpu time    0.0026: real time    0.0026
    --------------------------------------------
      LOOP:  cpu time    2.3355: real time    2.3468

 eigenvalue-minimisations  :  5800
 total energy-change (2. order) : 0.2255668E+03  (-0.2528418E+04)
 number of electron      62.0000000 magnetization 
 augmentation part       62.0000000 magnetization 

 Free energy of the ion-electron system (eV)
  ---------------------------------------------------
  alpha Z        PSCENC =        76.95603147
  Ewald energy   TEWEN  =     -2223.86658158
  -Hartree energ DENC   =      -519.47115509
  -exchange      EXHF   =         0.00000000
  -V(xc)+E(xc)   XCENC  =        52.02580785
  PAW double counting   =      1934.58678659    -1800.98643654
  entropy T*S    EENTRO =         0.00005492
  eigenvalues    EBANDS =       294.94630145
  atomic energy  EATOM  =      2411.37598431
  Solvation  Ediel_sol  =         0.00000000
  ---------------------------------------------------
  free energy    TOTEN  =       225.56679338 eV

  energy without entropy =      225.56673846  energy(sigma->0) =      225.56677965


--------------------------------------------------------------------------------------------------------




--------------------------------------- Iteration      1(   2)  ---------------------------------------


     EDDAV:  cpu time    3.3732: real time    3.3899
       DOS:  cpu time    0.0029: real time    0.0029
    --------------------------------------------
      LOOP:  cpu time    3.3761: real time    3.3928

 eigenvalue-minimisations  :  7192
 total energy-change (2. order) :-0.3076487E+03  (-0.2956090E+03)
 number of electron      62.0000000 magnetization 
 augmentation part       62.0000000 magnetization 

 Free energy of the ion-electron system (eV)
  ---------------------------------------------------
  alpha Z        PSCENC =        76.95603147
  Ewald energy   TEWEN  =     -2223.86658158
  -Hartree energ DENC   =      -519.47115509
  -exchange      EXHF   =         0.00000000
  -V(xc)+E(xc)   XCENC  =        52.02580785
  PAW double counting   =      1934.58678659    -1800.98643654
  entropy T*S    EENTRO =         0.00036205
  eigenvalues    EBANDS =       -12.70271219
  atomic energy  EATOM  =      2411.37598431
  Solvation  Ediel_sol  =         0.00000000
  ---------------------------------------------------
  free energy    TOTEN  =       -82.08191312 eV

  energy without entropy =      -82.08227517  energy(sigma->0) =      -82.08200363


--------------------------------------------------------------------------------------------------------




--------------------------------------- Iteration      1(   3)  ---------------------------------------


     EDDAV:  cpu time    2.8369: real time    2.9555
       DOS:  cpu time    0.0031: real time    0.0031
    --------------------------------------------
      LOOP:  cpu time    2.8400: real time    2.9586

 eigenvalue-minimisations  :  7256
 total energy-change (2. order) :-0.2190832E+02  (-0.2143892E+02)
 number of electron      62.0000000 magnetization 
 augmentation part       62.0000000 magnetization 

 Free energy of the ion-electron system (eV)
  ---------------------------------------------------
  alpha Z        PSCENC =        76.95603147
  Ewald energy   TEWEN  =     -2223.86658158
  -Hartree energ DENC   =      -519.47115509
  -exchange      EXHF   =         0.00000000
  -V(xc)+E(xc)   XCENC  =        52.02580785
  PAW double counting   =      1934.58678659    -1800.98643654
  entropy T*S    EENTRO =         0.00179856
  eigenvalues    EBANDS =       -34.61246529
  atomic energy  EATOM  =      2411.37598431
  Solvation  Ediel_sol  =         0.00000000
  ---------------------------------------------------
  free energy    TOTEN  =      -103.99022972 eV

  energy without entropy =     -103.99202828  energy(sigma->0) =     -103.99067936


--------------------------------------------------------------------------------------------------------




--------------------------------------- Iteration      1(   4)  ---------------------------------------


     EDDAV:  cpu time    2.7931: real time    2.7948
       DOS:  cpu time    0.0032: real time    0.0032
    --------------------------------------------
      LOOP:  cpu time    2.7963: real time    2.7980

 eigenvalue-minimisations  :  7400
 total energy-change (2. order) :-0.5382507E+00  (-0.5352451E+00)
 number of electron      62.0000000 magnetization 
 augmentation part       62.0000000 magnetization 

 Free energy of the ion-electron system (eV)
  ---------------------------------------------------
  alpha Z        PSCENC =        76.95603147
  Ewald energy   TEWEN  =     -2223.86658158
  -Hartree energ DENC   =      -519.47115509
  -exchange      EXHF   =         0.00000000
  -V(xc)+E(xc)   XCENC  =        52.02580785
  PAW double counting   =      1934.58678659    -1800.98643654
  entropy T*S    EENTRO =         0.00093371
  eigenvalues    EBANDS =       -35.14985117
  atomic energy  EATOM  =      2411.37598431
  Solvation  Ediel_sol  =         0.00000000
  ---------------------------------------------------
  free energy    TOTEN  =      -104.52848045 eV

  energy without entropy =     -104.52941416  energy(sigma->0) =     -104.52871388


--------------------------------------------------------------------------------------------------------




--------------------------------------- Iteration      1(   5)  ---------------------------------------


     EDDAV:  cpu time    2.7372: real time    2.7402
       DOS:  cpu time    0.0031: real time    0.0031
    CHARGE:  cpu time    0.1443: real time    0.1444
    MIXING:  cpu time    0.0006: real time    0.0007
    --------------------------------------------
      LOOP:  cpu time    2.8853: real time    2.8884

 eigenvalue-minimisations  :  7312
 total energy-change (2. order) :-0.1259462E-01  (-0.1258793E-01)
 number of electron      62.0000000 magnetization 
 augmentation part        0.3837176 magnetization 

 Broyden mixing:
  rms(total) = 0.22729E+01    rms(broyden)= 0.22724E+01
  rms(prec ) = 0.33197E+01
  weight for this iteration     100.00

 Free energy of the ion-electron system (eV)
  ---------------------------------------------------
  alpha Z        PSCENC =        76.95603147
  Ewald energy   TEWEN  =     -2223.86658158
  -Hartree energ DENC   =      -519.47115509
  -exchange      EXHF   =         0.00000000
  -V(xc)+E(xc)   XCENC  =        52.02580785
  PAW double counting   =      1934.58678659    -1800.98643654
  entropy T*S    EENTRO =         0.00093143
  eigenvalues    EBANDS =       -35.16244351
  atomic energy  EATOM  =      2411.37598431
  Solvation  Ediel_sol  =         0.00000000
  ---------------------------------------------------
  free energy    TOTEN  =      -104.54107507 eV

  energy without entropy =     -104.54200650  energy(sigma->0) =     -104.54130792


--------------------------------------------------------------------------------------------------------




--------------------------------------- Iteration      1(   6)  ---------------------------------------


    POTLOK:  cpu time    0.0181: real time    0.0200
    SETDIJ:  cpu time    0.0023: real time    0.0023
    EDDIAG:  cpu time    0.3762: real time    0.3771
  RMM-DIIS:  cpu time    1.5964: real time    1.5961
    ORTHCH:  cpu time    0.0376: real time    0.0376
       DOS:  cpu time    0.0029: real time    0.0029
    CHARGE:  cpu time    0.1446: real time    0.1446
    MIXING:  cpu time    0.0007: real time    0.0007
    --------------------------------------------
      LOOP:  cpu time    2.1787: real time    2.1812

 eigenvalue-minimisations  :  5760
 total energy-change (2. order) : 0.8669993E+01  (-0.4583736E+01)
 number of electron      62.0000001 magnetization 
 augmentation part       -0.3773089 magnetization 

 Broyden mixing:
  rms(total) = 0.10365E+01    rms(broyden)= 0.10361E+01
  rms(prec ) = 0.12309E+01
  weight for this iteration     100.00

 eigenvalues of (default mixing * dielectric matrix)
  average eigenvalue GAMMA=   1.0458
  1.0458

 Free energy of the ion-electron system (eV)
  ---------------------------------------------------
  alpha Z        PSCENC =        76.95603147
  Ewald energy   TEWEN  =     -2223.86658158
  -Hartree energ DENC   =      -597.69788753
  -exchange      EXHF   =         0.00000000
  -V(xc)+E(xc)   XCENC  =        57.58535649
  PAW double counting   =      3793.74029274    -3660.95670816
  entropy T*S    EENTRO =        -0.00125378
  eigenvalues    EBANDS =        46.99368393
  atomic energy  EATOM  =      2411.37598431
  Solvation  Ediel_sol  =         0.00000000
  ---------------------------------------------------
  free energy    TOTEN  =       -95.87108210 eV

  energy without entropy =      -95.86982833  energy(sigma->0) =      -95.87076866


--------------------------------------------------------------------------------------------------------




--------------------------------------- Iteration      1(   7)  ---------------------------------------


    POTLOK:  cpu time    0.0184: real time    0.0204
    SETDIJ:  cpu time    0.0022: real time    0.0022
    EDDIAG:  cpu time    0.3754: real time    0.3755
  RMM-DIIS:  cpu time    1.6086: real time    1.6092
    ORTHCH:  cpu time    0.0368: real time    0.0367
       DOS:  cpu time    0.0030: real time    0.0030
    CHARGE:  cpu time    0.1431: real time    0.1431
    MIXING:  cpu time    0.0007: real time    0.0007
    --------------------------------------------
      LOOP:  cpu time    2.1881: real time    2.1907

 eigenvalue-minimisations  :  5809
 total energy-change (2. order) : 0.4295275E+00  (-0.1157689E+00)
 number of electron      62.0000001 magnetization 
 augmentation part       -0.3765439 magnetization 

 Broyden mixing:
  rms(total) = 0.58700E+00    rms(broyden)= 0.58697E+00
  rms(prec ) = 0.69015E+00
  weight for this iteration     100.00

 eigenvalues of (default mixing * dielectric matrix)
  average eigenvalue GAMMA=   1.5767
  1.0149  2.1385

 Free energy of the ion-electron system (eV)
  ---------------------------------------------------
  alpha Z        PSCENC =        76.95603147
  Ewald energy   TEWEN  =     -2223.86658158
  -Hartree energ DENC   =      -598.79628109
  -exchange      EXHF   =         0.00000000
  -V(xc)+E(xc)   XCENC  =        57.87071643
  PAW double counting   =      5222.72213305    -5090.18336401
  entropy T*S    EENTRO =        -0.00238392
  eigenvalues    EBANDS =        48.48219074
  atomic energy  EATOM  =      2411.37598431
  Solvation  Ediel_sol  =         0.00000000
  ---------------------------------------------------
  free energy    TOTEN  =       -95.44155461 eV

  energy without entropy =      -95.43917069  energy(sigma->0) =      -95.44095863


--------------------------------------------------------------------------------------------------------




--------------------------------------- Iteration      1(   8)  ---------------------------------------


    POTLOK:  cpu time    0.0181: real time    0.0200
    SETDIJ:  cpu time    0.0022: real time    0.0022
    EDDIAG:  cpu time    0.3695: real time    0.3695
  RMM-DIIS:  cpu time    1.5939: real time    1.5937
    ORTHCH:  cpu time    0.0367: real time    0.0367
       DOS:  cpu time    0.0030: real time    0.0030
    CHARGE:  cpu time    0.1445: real time    0.1445
    MIXING:  cpu time    0.0006: real time    0.0006
    --------------------------------------------
      LOOP:  cpu time    2.1687: real time    2.1702

 eigenvalue-minimisations  :  5778
 total energy-change (2. order) : 0.8601201E-01  (-0.6461437E-01)
 number of electron      62.0000001 magnetization 
 augmentation part       -0.3346316 magnetization 

 Broyden mixing:
  rms(total) = 0.90715E-01    rms(broyden)= 0.90649E-01
  rms(prec ) = 0.16439E+00
  weight for this iteration     100.00

 eigenvalues of (default mixing * dielectric matrix)
  average eigenvalue GAMMA=   1.5118
  2.3526  1.0913  1.0913

 Free energy of the ion-electron system (eV)
  ---------------------------------------------------
  alpha Z        PSCENC =        76.95603147
  Ewald energy   TEWEN  =     -2223.86658158
  -Hartree energ DENC   =      -602.05125709
  -exchange      EXHF   =         0.00000000
  -V(xc)+E(xc)   XCENC  =        58.40620956
  PAW double counting   =      7307.12663903    -7174.90498432
  entropy T*S    EENTRO =        -0.00164940
  eigenvalues    EBANDS =        51.60406541
  atomic energy  EATOM  =      2411.37598431
  Solvation  Ediel_sol  =         0.00000000
  ---------------------------------------------------
  free energy    TOTEN  =       -95.35554260 eV

  energy without entropy =      -95.35389320  energy(sigma->0) =      -95.35513025


--------------------------------------------------------------------------------------------------------




--------------------------------------- Iteration      1(   9)  ---------------------------------------


    POTLOK:  cpu time    0.0181: real time    0.0200
    SETDIJ:  cpu time    0.0025: real time    0.0028
    EDDIAG:  cpu time    0.3702: real time    0.3707
  RMM-DIIS:  cpu time    1.5805: real time    1.5811
    ORTHCH:  cpu time    0.0398: real time    0.0399
       DOS:  cpu time    0.0028: real time    0.0028
    CHARGE:  cpu time    0.1451: real time    0.1451
    MIXING:  cpu time    0.0007: real time    0.0007
    --------------------------------------------
      LOOP:  cpu time    2.1597: real time    2.1632

 eigenvalue-minimisations  :  5784
 total energy-change (2. order) : 0.1336460E-01  (-0.1788023E-01)
 number of electron      62.0000001 magnetization 
 augmentation part       -0.3830464 magnetization 

 Broyden mixing:
  rms(total) = 0.53998E-01    rms(broyden)= 0.53971E-01
  rms(prec ) = 0.75997E-01
  weight for this iteration     100.00

 eigenvalues of (default mixing * dielectric matrix)
  average eigenvalue GAMMA=   1.6579
  2.3327  2.3327  0.9831  0.9831

 Free energy of the ion-electron system (eV)
  ---------------------------------------------------
  alpha Z        PSCENC =        76.95603147
  Ewald energy   TEWEN  =     -2223.86658158
  -Hartree energ DENC   =      -608.28067371
  -exchange      EXHF   =         0.00000000
  -V(xc)+E(xc)   XCENC  =        58.86562555
  PAW double counting   =      7526.00089944    -7393.84281893
  entropy T*S    EENTRO =        -0.00255502
  eigenvalues    EBANDS =        57.45191047
  atomic energy  EATOM  =      2411.37598431
  Solvation  Ediel_sol  =         0.00000000
  ---------------------------------------------------
  free energy    TOTEN  =       -95.34217800 eV

  energy without entropy =      -95.33962298  energy(sigma->0) =      -95.34153924


--------------------------------------------------------------------------------------------------------




--------------------------------------- Iteration      1(  10)  ---------------------------------------


    POTLOK:  cpu time    0.0185: real time    0.0211
    SETDIJ:  cpu time    0.0023: real time    0.0027
    EDDIAG:  cpu time    0.3712: real time    0.3716
  RMM-DIIS:  cpu time    1.5327: real time    1.5328
    ORTHCH:  cpu time    0.0369: real time    0.0369
       DOS:  cpu time    0.0028: real time    0.0028
    CHARGE:  cpu time    0.1436: real time    0.1436
    MIXING:  cpu time    0.0007: real time    0.0007
    --------------------------------------------
      LOOP:  cpu time    2.1088: real time    2.1121

 eigenvalue-minimisations  :  5773
 total energy-change (2. order) : 0.2397940E-02  (-0.1254900E-02)
 number of electron      62.0000001 magnetization 
 augmentation part       -0.3748727 magnetization 

 Broyden mixing:
  rms(total) = 0.14476E-01    rms(broyden)= 0.14475E-01
  rms(prec ) = 0.23065E-01
  weight for this iteration     100.00

 eigenvalues of (default mixing * dielectric matrix)
  average eigenvalue GAMMA=   1.6785
  2.5362  2.5362  1.0107  1.0107  1.2988

 Free energy of the ion-electron system (eV)
  ---------------------------------------------------
  alpha Z        PSCENC =        76.95603147
  Ewald energy   TEWEN  =     -2223.86658158
  -Hartree energ DENC   =      -607.03336493
  -exchange      EXHF   =         0.00000000
  -V(xc)+E(xc)   XCENC  =        58.77349586
  PAW double counting   =      7390.88790954    -7258.71524653
  entropy T*S    EENTRO =        -0.00262020
  eigenvalues    EBANDS =        56.28461200
  atomic energy  EATOM  =      2411.37598431
  Solvation  Ediel_sol  =         0.00000000
  ---------------------------------------------------
  free energy    TOTEN  =       -95.33978006 eV

  energy without entropy =      -95.33715986  energy(sigma->0) =      -95.33912501


--------------------------------------------------------------------------------------------------------




--------------------------------------- Iteration      1(  11)  ---------------------------------------


    POTLOK:  cpu time    0.0176: real time    0.0194
    SETDIJ:  cpu time    0.0022: real time    0.0022
    EDDIAG:  cpu time    0.3669: real time    0.3670
  RMM-DIIS:  cpu time    1.5105: real time    1.5109
    ORTHCH:  cpu time    0.0375: real time    0.0375
       DOS:  cpu time    0.0030: real time    0.0030
    CHARGE:  cpu time    0.1445: real time    0.1447
    MIXING:  cpu time    0.0008: real time    0.0008
    --------------------------------------------
      LOOP:  cpu time    2.0830: real time    2.0855

 eigenvalue-minimisations  :  5780
 total energy-change (2. order) :-0.8636629E-03  (-0.5931848E-03)
 number of electron      62.0000001 magnetization 
 augmentation part       -0.3674802 magnetization 

 Broyden mixing:
  rms(total) = 0.11069E-01    rms(broyden)= 0.11063E-01
  rms(prec ) = 0.16912E-01
  weight for this iteration     100.00

 eigenvalues of (default mixing * dielectric matrix)
  average eigenvalue GAMMA=   1.6768
  2.7288  2.4134  1.9938  0.9897  0.9897  0.9456

 Free energy of the ion-electron system (eV)
  ---------------------------------------------------
  alpha Z        PSCENC =        76.95603147
  Ewald energy   TEWEN  =     -2223.86658158
  -Hartree energ DENC   =      -606.86486681
  -exchange      EXHF   =         0.00000000
  -V(xc)+E(xc)   XCENC  =        58.76323975
  PAW double counting   =      7375.16197861    -7242.99029604
  entropy T*S    EENTRO =        -0.00252942
  eigenvalues    EBANDS =        56.12639598
  atomic energy  EATOM  =      2411.37598431
  Solvation  Ediel_sol  =         0.00000000
  ---------------------------------------------------
  free energy    TOTEN  =       -95.34064372 eV

  energy without entropy =      -95.33811430  energy(sigma->0) =      -95.34001137


--------------------------------------------------------------------------------------------------------




--------------------------------------- Iteration      1(  12)  ---------------------------------------


    POTLOK:  cpu time    0.0200: real time    0.0202
    SETDIJ:  cpu time    0.0023: real time    0.0023
    EDDIAG:  cpu time    0.3719: real time    0.3724
  RMM-DIIS:  cpu time    1.4636: real time    1.4643
    ORTHCH:  cpu time    0.0371: real time    0.0371
       DOS:  cpu time    0.0028: real time    0.0028
    CHARGE:  cpu time    0.1436: real time    0.1436
    MIXING:  cpu time    0.0007: real time    0.0007
    --------------------------------------------
      LOOP:  cpu time    2.0421: real time    2.0434

 eigenvalue-minimisations  :  5465
 total energy-change (2. order) : 0.1808090E-03  (-0.7930031E-04)
 number of electron      62.0000001 magnetization 
 augmentation part       -0.3693672 magnetization 

 Broyden mixing:
  rms(total) = 0.39423E-02    rms(broyden)= 0.39421E-02
  rms(prec ) = 0.60033E-02
  weight for this iteration     100.00

 eigenvalues of (default mixing * dielectric matrix)
  average eigenvalue GAMMA=   1.6876
  2.8847  2.4885  1.6999  1.6999  1.0287  1.0287  0.9831

 Free energy of the ion-electron system (eV)
  ---------------------------------------------------
  alpha Z        PSCENC =        76.95603147
  Ewald energy   TEWEN  =     -2223.86658158
  -Hartree energ DENC   =      -607.31228728
  -exchange      EXHF   =         0.00000000
  -V(xc)+E(xc)   XCENC  =        58.79009610
  PAW double counting   =      7365.25549492    -7233.08404223
  entropy T*S    EENTRO =        -0.00253784
  eigenvalues    EBANDS =        56.54737921
  atomic energy  EATOM  =      2411.37598431
  Solvation  Ediel_sol  =         0.00000000
  ---------------------------------------------------
  free energy    TOTEN  =       -95.34046291 eV

  energy without entropy =      -95.33792508  energy(sigma->0) =      -95.33982845


--------------------------------------------------------------------------------------------------------




--------------------------------------- Iteration      1(  13)  ---------------------------------------


    POTLOK:  cpu time    0.0203: real time    0.0219
    SETDIJ:  cpu time    0.0022: real time    0.0022
    EDDIAG:  cpu time    0.3717: real time    0.3717
  RMM-DIIS:  cpu time    1.0326: real time    1.0325
    ORTHCH:  cpu time    0.0366: real time    0.0366
       DOS:  cpu time    0.0029: real time    0.0029
    --------------------------------------------
      LOOP:  cpu time    1.4669: real time    1.4699

 eigenvalue-minimisations  :  3569
 total energy-change (2. order) :-0.4776801E-05  (-0.1960493E-04)
 number of electron      62.0000001 magnetization 
 augmentation part       -0.3693672 magnetization 

 Free energy of the ion-electron system (eV)
  ---------------------------------------------------
  alpha Z        PSCENC =        76.95603147
  Ewald energy   TEWEN  =     -2223.86658158
  -Hartree energ DENC   =      -607.40782934
  -exchange      EXHF   =         0.00000000
  -V(xc)+E(xc)   XCENC  =        58.79582049
  PAW double counting   =      7365.09449580    -7232.92239814
  entropy T*S    EENTRO =        -0.00256034
  eigenvalues    EBANDS =        56.63656965
  atomic energy  EATOM  =      2411.37598431
  Solvation  Ediel_sol  =         0.00000000
  ---------------------------------------------------
  free energy    TOTEN  =       -95.34046769 eV

  energy without entropy =      -95.33790735  energy(sigma->0) =      -95.33982760


--------------------------------------------------------------------------------------------------------




 average (electrostatic) potential at core
  the test charge radii are     0.7089  0.9892
  (the norm of the test charge is              1.0000)
       1 -60.6128       2 -60.6128       3 -60.6128       4 -60.6128       5 -60.6128
       6 -60.6128       7 -81.8783       8 -81.8783       9 -81.3369      10 -81.3369
      11 -81.3369      12 -81.3369      13 -81.3369      14 -81.3369
 
 
 
 E-fermi :   9.6336     XC(G=0): -10.9200     alpha+bet :-15.4036


 k-point     1 :       0.0000    0.0000    0.0000
  band No.  band energies     occupation 
      1     -10.2586      2.00000
      2      -9.1628      2.00000
      3      -9.1628      2.00000
      4      -8.5540      2.00000
      5      -8.5540      2.00000
      6      -8.3954      2.00000
      7      -2.2089      2.00000
      8      -2.2089      2.00000
      9      -1.9479      2.00000
     10      -1.3428      2.00000
     11      -0.2055      2.00000
     12       0.6236      2.00000
     13       0.6236      2.00000
     14       2.4675      2.00000
     15       2.4675      2.00000
     16       3.2289      2.00000
     17       3.6003      2.00000
     18       3.6003      2.00000
     19       3.9667      2.00000
     20       4.2533      2.00000
     21       4.7822      2.00000
     22       4.7822      2.00000
     23       5.2655      2.00000
     24       5.2655      2.00000
     25       5.4462      2.00000
     26       6.6038      2.00000
     27       6.6375      2.00000
     28       6.6375      2.00000
     29       8.5194      2.00000
     30       8.7980      2.00000
     31       8.7980      2.00000
     32      12.5198      0.00000
     33      12.6192      0.00000
     34      12.6193      0.00000
     35      12.9249      0.00000
     36      12.9251      0.00000
     37      14.0731      0.00000
     38      14.1742      0.00000
     39      14.2141      0.00000
     40      14.6465      0.00000

 k-point     2 :       0.1667    0.0000    0.0000
  band No.  band energies     occupation 
      1     -10.2085      2.00000
      2      -9.2695      2.00000
      3      -9.2063      2.00000
      4      -8.7144      2.00000
      5      -8.4877      2.00000
      6      -8.1664      2.00000
      7      -2.5230      2.00000
      8      -2.1848      2.00000
      9      -1.8746      2.00000
     10      -1.0197      2.00000
     11      -0.3400      2.00000
     12       0.4492      2.00000
     13       0.7618      2.00000
     14       2.3583      2.00000
     15       2.5144      2.00000
     16       3.2814      2.00000
     17       3.3781      2.00000
     18       3.7694      2.00000
     19       4.2801      2.00000
     20       4.2828      2.00000
     21       4.7423      2.00000
     22       4.7713      2.00000
     23       5.2192      2.00000
     24       5.2823      2.00000
     25       5.5042      2.00000
     26       6.3449      2.00000
     27       6.3966      2.00000
     28       6.7494      2.00000
     29       8.4449      2.00000
     30       9.0192      2.00000
     31       9.0787      2.00000
     32      12.1533      0.00000
     33      12.4820      0.00000
     34      12.5469      0.00000
     35      12.8896      0.00000
     36      12.9783      0.00000
     37      13.8793      0.00000
     38      14.1243      0.00000
     39      14.1837      0.00000
     40      14.5037      0.00000

 k-point     3 :       0.3333    0.0000    0.0000
  band No.  band energies     occupation 
      1     -10.0626      2.00000
      2      -9.5344      2.00000
      3      -9.2758      2.00000
      4      -8.7986      2.00000
      5      -8.3705      2.00000
      6      -7.9402      2.00000
      7      -2.9030      2.00000
      8      -2.1308      2.00000
      9      -1.6746      2.00000
     10      -0.8412      2.00000
     11      -0.4614      2.00000
     12       0.1358      2.00000
     13       1.2093      2.00000
     14       2.1748      2.00000
     15       2.4130      2.00000
     16       3.0024      2.00000
     17       3.5887      2.00000
     18       4.0321      2.00000
     19       4.3636      2.00000
     20       4.6351      2.00000
     21       4.7180      2.00000
     22       4.7493      2.00000
     23       5.1690      2.00000
     24       5.3127      2.00000
     25       5.5797      2.00000
     26       5.8050      2.00000
     27       6.0290      2.00000
     28       7.1260      2.00000
     29       8.2121      2.00000
     30       9.3663      1.99767
     31       9.6524      0.61272
     32      11.2478      0.00000
     33      12.2626      0.00000
     34      12.3822      0.00000
     35      12.9936      0.00000
     36      13.0884      0.00000
     37      13.6083      0.00000
     38      14.0055      0.00000
     39      14.2686      0.00000
     40      14.3263      0.00000

 k-point     4 :       0.5000    0.0000    0.0000
  band No.  band energies     occupation 
      1      -9.8722      2.00000
      2      -9.7800      2.00000
      3      -9.3051      2.00000
      4      -8.8168      2.00000
      5      -8.3164      2.00000
      6      -7.8556      2.00000
      7      -3.0483      2.00000
      8      -2.1001      2.00000
      9      -1.4987      2.00000
     10      -1.0236      2.00000
     11      -0.3841      2.00000
     12      -0.0100      2.00000
     13       1.7414      2.00000
     14       2.0502      2.00000
     15       2.0961      2.00000
     16       2.8127      2.00000
     17       3.8391      2.00000
     18       4.1391      2.00000
     19       4.4561      2.00000
     20       4.5301      2.00000
     21       4.7396      2.00000
     22       4.9054      2.00000
     23       5.1533      2.00000
     24       5.3264      2.00000
     25       5.4844      2.00000
     26       5.6071      2.00000
     27       5.9085      2.00000
     28       7.4460      2.00000
     29       7.9700      2.00000
     30       9.4962      2.04270
     31      10.2806      0.00000
     32      10.4651      0.00000
     33      12.1766      0.00000
     34      12.2584      0.00000
     35      13.1366      0.00000
     36      13.1997      0.00000
     37      13.4148      0.00000
     38      13.9247      0.00000
     39      14.1557      0.00000
     40      14.2368      0.00000

 k-point     5 :       0.1667    0.1667    0.0000
  band No.  band energies     occupation 
      1     -10.1103      2.00000
      2      -9.3834      2.00000
      3      -9.3604      2.00000
      4      -8.7310      2.00000
      5      -8.4329      2.00000
      6      -7.9820      2.00000
      7      -2.8378      2.00000
      8      -2.0984      2.00000
      9      -1.7335      2.00000
     10      -0.8805      2.00000
     11      -0.5293      2.00000
     12       0.3911      2.00000
     13       0.9654      2.00000
     14       2.1317      2.00000
     15       2.6582      2.00000
     16       3.0593      2.00000
     17       3.3777      2.00000
     18       4.0273      2.00000
     19       4.3372      2.00000
     20       4.6107      2.00000
     21       4.6852      2.00000
     22       4.7317      2.00000
     23       5.1912      2.00000
     24       5.2945      2.00000
     25       5.5636      2.00000
     26       5.9708      2.00000
     27       6.0999      2.00000
     28       7.0078      2.00000
     29       8.2967      2.00000
     30       9.3247      1.99961
     31       9.4449      1.99148
     32      11.6056      0.00000
     33      11.9436      0.00000
     34      12.7238      0.00000
     35      12.8216      0.00000
     36      13.1400      0.00000
     37      13.7486      0.00000
     38      13.9505      0.00000
     39      14.1809      0.00000
     40      14.4482      0.00000

 k-point     6 :       0.3333    0.1667    0.0000
  band No.  band energies     occupation 
      1      -9.9243      2.00000
      2      -9.6506      2.00000
      3      -9.4396      2.00000
      4      -8.6983      2.00000
      5      -8.3891      2.00000
      6      -7.8445      2.00000
      7      -3.0789      2.00000
      8      -1.9527      2.00000
      9      -1.4974      2.00000
     10      -1.0776      2.00000
     11      -0.7878      2.00000
     12       0.5408      2.00000
     13       1.3902      2.00000
     14       1.8766      2.00000
     15       2.4907      2.00000
     16       2.9051      2.00000
     17       3.5118      2.00000
     18       4.2160      2.00000
     19       4.4338      2.00000
     20       4.5842      2.00000
     21       4.6928      2.00000
     22       4.8972      2.00000
     23       5.1873      2.00000
     24       5.3003      2.00000
     25       5.6092      2.00000
     26       5.6865      2.00000
     27       5.8123      2.00000
     28       7.4055      2.00000
     29       8.0208      2.00000
     30       9.6223      1.23663
     31       9.9304      0.00069
     32      10.7788      0.00000
     33      11.6396      0.00000
     34      12.5152      0.00000
     35      13.1224      0.00000
     36      13.3825      0.00000
     37      13.5510      0.00000
     38      13.7508      0.00000
     39      14.1854      0.00000
     40      14.2973      0.00000

 k-point     7 :       0.5000    0.1667    0.0000
  band No.  band energies     occupation 
      1      -9.9243      2.00000
      2      -9.6506      2.00000
      3      -9.4396      2.00000
      4      -8.6982      2.00000
      5      -8.3892      2.00000
      6      -7.8446      2.00000
      7      -3.0789      2.00000
      8      -1.9503      2.00000
      9      -1.5080      2.00000
     10      -1.0570      2.00000
     11      -0.8004      2.00000
     12       0.5372      2.00000
     13       1.3982      2.00000
     14       1.8693      2.00000
     15       2.5482      2.00000
     16       2.8152      2.00000
     17       3.5459      2.00000
     18       4.2394      2.00000
     19       4.4339      2.00000
     20       4.5844      2.00000
     21       4.6929      2.00000
     22       4.8879      2.00000
     23       5.1872      2.00000
     24       5.3013      2.00000
     25       5.5932      2.00000
     26       5.6078      2.00000
     27       5.8941      2.00000
     28       7.4100      2.00000
     29       8.0166      2.00000
     30       9.5797      1.91900
     31      10.0021      0.00001
     32      10.7166      0.00000
     33      11.6957      0.00000
     34      12.4946      0.00000
     35      13.1065      0.00000
     36      13.3830      0.00000
     37      13.4859      0.00000
     38      13.8826      0.00000
     39      14.1461      0.00000
     40      14.2675      0.00000

 k-point     8 :       0.3333    0.3333    0.0000
  band No.  band energies     occupation 
      1      -9.7264      2.00000
      2      -9.7264      2.00000
      3      -9.6425      2.00000
      4      -8.5182      2.00000
      5      -8.5182      2.00000
      6      -7.7974      2.00000
      7      -3.1697      2.00000
      8      -1.5436      2.00000
      9      -1.5436      2.00000
     10      -1.1938      2.00000
     11      -1.1938      2.00000
     12       1.2135      2.00000
     13       1.2135      2.00000
     14       1.5822      2.00000
     15       2.4651      2.00000
     16       3.1876      2.00000
     17       3.1876      2.00000
     18       4.2787      2.00000
     19       4.4932      2.00000
     20       4.5971      2.00000
     21       4.5971      2.00000
     22       4.9920      2.00000
     23       5.2486      2.00000
     24       5.2486      2.00000
     25       5.6230      2.00000
     26       5.6966      2.00000
     27       5.6966      2.00000
     28       7.7400      2.00000
     29       7.7400      2.00000
     30       9.8526      0.00856
     31      10.2419      0.00000
     32      10.2419      0.00000
     33      11.3948      0.00000
     34      12.3775      0.00000
     35      13.4142      0.00000
     36      13.4278      0.00000
     37      13.5704      0.00000
     38      13.8938      0.00000
     39      13.9048      0.00000
     40      14.2341      0.00000

 k-point     9 :       0.0000    0.0000    0.0625
  band No.  band energies     occupation 
      1     -10.2082      2.00000
      2      -9.1192      2.00000
      3      -9.1192      2.00000
      4      -8.5138      2.00000
      5      -8.5138      2.00000
      6      -8.3598      2.00000
      7      -2.1671      2.00000
      8      -2.1671      2.00000
      9      -1.8893      2.00000
     10      -1.2897      2.00000
     11      -0.1786      2.00000
     12       0.6530      2.00000
     13       0.6530      2.00000
     14       2.5140      2.00000
     15       2.5140      2.00000
     16       3.2390      2.00000
     17       3.6055      2.00000
     18       3.6055      2.00000
     19       3.9447      2.00000
     20       3.9849      2.00000
     21       4.5309      2.00000
     22       4.5309      2.00000
     23       5.0026      2.00000
     24       5.0026      2.00000
     25       5.1433      2.00000
     26       6.6518      2.00000
     27       6.6518      2.00000
     28       6.7713      2.00000
     29       8.4707      2.00000
     30       8.9179      2.00000
     31       8.9179      2.00000
[...]
     39      13.0072      0.00000
     40      13.0072      0.00000

 k-point    66 :       0.1667    0.0000    0.5000
  band No.  band energies     occupation 
      1      -7.9277      2.00000
      2      -7.9277      2.00000
      3      -7.4673      2.00000
      4      -7.4673      2.00000
      5      -7.4588      2.00000
      6      -7.4588      2.00000
      7      -1.4053      2.00000
      8      -1.4053      2.00000
      9      -1.0985      2.00000
     10      -1.0985      2.00000
     11      -0.7245      2.00000
     12      -0.7245      2.00000
     13       1.2557      2.00000
     14       1.2557      2.00000
     15       1.3538      2.00000
     16       1.3538      2.00000
     17       1.8515      2.00000
     18       1.8515      2.00000
     19       2.1680      2.00000
     20       2.1680      2.00000
     21       4.1772      2.00000
     22       4.1772      2.00000
     23       4.2393      2.00000
     24       4.2393      2.00000
     25       5.5026      2.00000
     26       5.5026      2.00000
     27       6.1973      2.00000
     28       6.1973      2.00000
     29       6.3722      2.00000
     30       6.3722      2.00000
     31       8.1060      2.00000
     32       8.1060      2.00000
     33      10.1510      0.00000
     34      10.1510      0.00000
     35      11.8027      0.00000
     36      11.8027      0.00000
     37      12.0366      0.00000
     38      12.0366      0.00000
     39      12.8816      0.00000
     40      12.9005      0.00000

 k-point    67 :       0.3333    0.0000    0.5000
  band No.  band energies     occupation 
      1      -7.9105      2.00000
      2      -7.9105      2.00000
      3      -7.4873      2.00000
      4      -7.4873      2.00000
      5      -7.4607      2.00000
      6      -7.4607      2.00000
      7      -1.6000      2.00000
      8      -1.6000      2.00000
      9      -0.9431      2.00000
     10      -0.9431      2.00000
     11      -0.4334      2.00000
     12      -0.4334      2.00000
     13       0.9169      2.00000
     14       0.9169      2.00000
     15       1.3892      2.00000
     16       1.3892      2.00000
     17       1.6606      2.00000
     18       1.6606      2.00000
     19       2.3725      2.00000
     20       2.3725      2.00000
     21       4.0737      2.00000
     22       4.0737      2.00000
     23       4.2635      2.00000
     24       4.2635      2.00000
     25       5.4866      2.00000
     26       5.4866      2.00000
     27       6.0439      2.00000
     28       6.0439      2.00000
     29       6.6129      2.00000
     30       6.6129      2.00000
     31       8.4346      2.00000
     32       8.4346      2.00000
     33      10.1460      0.00000
     34      10.1460      0.00000
     35      11.3864      0.00000
     36      11.3864      0.00000
     37      12.1825      0.00000
     38      12.1825      0.00000
     39      12.7585      0.00000
     40      12.7587      0.00000

 k-point    68 :       0.5000    0.0000    0.5000
  band No.  band energies     occupation 
      1      -7.9013      2.00000
      2      -7.9013      2.00000
      3      -7.4978      2.00000
      4      -7.4978      2.00000
      5      -7.4616      2.00000
      6      -7.4616      2.00000
      7      -1.6670      2.00000
      8      -1.6670      2.00000
      9      -0.8383      2.00000
     10      -0.8383      2.00000
     11      -0.3479      2.00000
     12      -0.3479      2.00000
     13       0.8158      2.00000
     14       0.8158      2.00000
     15       1.3888      2.00000
     16       1.3888      2.00000
     17       1.5575      2.00000
     18       1.5575      2.00000
     19       2.4381      2.00000
     20       2.4381      2.00000
     21       4.0158      2.00000
     22       4.0158      2.00000
     23       4.2718      2.00000
     24       4.2718      2.00000
     25       5.5239      2.00000
     26       5.5239      2.00000
     27       5.9430      2.00000
     28       5.9430      2.00000
     29       6.7483      2.00000
     30       6.7483      2.00000
     31       8.6052      2.00000
     32       8.6052      2.00000
     33      10.1344      0.00000
     34      10.1344      0.00000
     35      11.1377      0.00000
     36      11.1377      0.00000
     37      12.2223      0.00000
     38      12.2223      0.00000
     39      12.7332      0.00000
     40      12.7332      0.00000

 k-point    69 :       0.1667    0.1667    0.5000
  band No.  band energies     occupation 
      1      -7.9150      2.00000
      2      -7.9150      2.00000
      3      -7.4817      2.00000
      4      -7.4817      2.00000
      5      -7.4607      2.00000
      6      -7.4607      2.00000
      7      -1.5625      2.00000
      8      -1.5625      2.00000
      9      -0.9790      2.00000
     10      -0.9790      2.00000
     11      -0.5015      2.00000
     12      -0.5015      2.00000
     13       0.9830      2.00000
     14       0.9830      2.00000
     15       1.3845      2.00000
     16       1.3845      2.00000
     17       1.7305      2.00000
     18       1.7305      2.00000
     19       2.3149      2.00000
     20       2.3149      2.00000
     21       4.1110      2.00000
     22       4.1110      2.00000
     23       4.2517      2.00000
     24       4.2517      2.00000
     25       5.4779      2.00000
     26       5.4779      2.00000
     27       6.0589      2.00000
     28       6.0589      2.00000
     29       6.5981      2.00000
     30       6.5981      2.00000
     31       8.3272      2.00000
     32       8.3272      2.00000
     33      10.1495      0.00000
     34      10.1495      0.00000
     35      11.5110      0.00000
     36      11.5110      0.00000
     37      12.1424      0.00000
     38      12.1424      0.00000
     39      12.8144      0.00000
     40      12.8145      0.00000

 k-point    70 :       0.3333    0.1667    0.5000
  band No.  band energies     occupation 
      1      -7.9014      2.00000
      2      -7.9014      2.00000
      3      -7.4966      2.00000
      4      -7.4966      2.00000
      5      -7.4629      2.00000
      6      -7.4629      2.00000
      7      -1.6703      2.00000
      8      -1.6703      2.00000
      9      -0.8034      2.00000
     10      -0.8034      2.00000
     11      -0.3956      2.00000
     12      -0.3956      2.00000
     13       0.8167      2.00000
     14       0.8167      2.00000
     15       1.4111      2.00000
     16       1.4111      2.00000
     17       1.5871      2.00000
     18       1.5871      2.00000
     19       2.3912      2.00000
     20       2.3912      2.00000
     21       4.0395      2.00000
     22       4.0395      2.00000
     23       4.2527      2.00000
     24       4.2527      2.00000
     25       5.5117      2.00000
     26       5.5117      2.00000
     27       5.9022      2.00000
     28       5.9022      2.00000
     29       6.8733      2.00000
     30       6.8733      2.00000
     31       8.5004      2.00000
     32       8.5004      2.00000
     33      10.1354      0.00000
     34      10.1354      0.00000
     35      11.1502      0.00000
     36      11.1502      0.00000
     37      12.2922      0.00000
     38      12.2923      0.00000
     39      12.7356      0.00000
     40      12.7357      0.00000

 k-point    71 :       0.5000    0.1667    0.5000
  band No.  band energies     occupation 
      1      -7.9013      2.00000
      2      -7.9013      2.00000
      3      -7.4966      2.00000
      4      -7.4966      2.00000
      5      -7.4629      2.00000
      6      -7.4629      2.00000
      7      -1.6702      2.00000
      8      -1.6702      2.00000
      9      -0.8035      2.00000
     10      -0.8035      2.00000
     11      -0.3957      2.00000
     12      -0.3957      2.00000
     13       0.8178      2.00000
     14       0.8178      2.00000
     15       1.4046      2.00000
     16       1.4046      2.00000
     17       1.5937      2.00000
     18       1.5937      2.00000
     19       2.3900      2.00000
     20       2.3900      2.00000
     21       4.0350      2.00000
     22       4.0350      2.00000
     23       4.2596      2.00000
     24       4.2596      2.00000
     25       5.4977      2.00000
     26       5.4977      2.00000
     27       5.9175      2.00000
     28       5.9175      2.00000
     29       6.8696      2.00000
     30       6.8696      2.00000
     31       8.4994      2.00000
     32       8.4994      2.00000
     33      10.1363      0.00000
     34      10.1363      0.00000
     35      11.1650      0.00000
     36      11.1650      0.00000
     37      12.2408      0.00000
     38      12.2408      0.00000
     39      12.7672      0.00000
     40      12.7673      0.00000

 k-point    72 :       0.3333    0.3333    0.5000
  band No.  band energies     occupation 
      1      -7.8966      2.00000
      2      -7.8966      2.00000
      3      -7.5008      2.00000
      4      -7.5008      2.00000
      5      -7.4648      2.00000
      6      -7.4648      2.00000
      7      -1.7027      2.00000
      8      -1.7027      2.00000
      9      -0.6468      2.00000
     10      -0.6468      2.00000
     11      -0.4896      2.00000
     12      -0.4896      2.00000
     13       0.8001      2.00000
     14       0.8001      2.00000
     15       1.4171      2.00000
     16       1.4171      2.00000
     17       1.5714      2.00000
     18       1.5714      2.00000
     19       2.3664      2.00000
     20       2.3664      2.00000
     21       4.0297      2.00000
     22       4.0297      2.00000
     23       4.2410      2.00000
     24       4.2410      2.00000
     25       5.5102      2.00000
     26       5.5102      2.00000
     27       5.8415      2.00000
     28       5.8415      2.00000
     29       7.0816      2.00000
     30       7.0816      2.00000
     31       8.4370      2.00000
     32       8.4370      2.00000
     33      10.1300      0.00000
     34      10.1300      0.00000
     35      11.0485      0.00000
     36      11.0485      0.00000
     37      12.5012      0.00000
     38      12.5012      0.00000
     39      12.5520      0.00000
     40      12.5520      0.00000


--------------------------------------------------------------------------------------------------------


 soft charge-density along one line, spin component           1
         0         1         2         3         4         5         6         7         8         9
 total charge-density along one line
 
 pseudopotential strength for first ion, spin component:           1
 12.354  14.805   0.001   0.000  -0.001   0.004   0.000  -0.002
 14.805  17.744   0.002   0.000  -0.001   0.005   0.000  -0.002
  0.001   0.002  -5.760   0.000   0.001  -7.651   0.000   0.001
  0.000   0.000   0.000  -5.769  -0.000   0.000  -7.665  -0.000
 -0.001  -0.001   0.001  -0.000  -5.784   0.001  -0.000  -7.688
  0.004   0.005  -7.651   0.000   0.001  -9.441   0.000   0.002
  0.000   0.000   0.000  -7.665  -0.000   0.000  -9.463  -0.000
 -0.002  -0.002   0.001  -0.000  -7.688   0.002  -0.000  -9.499
 total augmentation occupancy for first ion, spin component:           1
  7.076  -3.251  -0.240  -0.000   0.097   0.112   0.000  -0.037
 -3.251   1.690   0.229  -0.000  -0.078  -0.094   0.000   0.027
 -0.240   0.229   1.951   0.000  -0.038  -0.273   0.000   0.011
 -0.000  -0.000  -0.000   2.219   0.000  -0.000  -0.362   0.000
  0.097  -0.078  -0.038  -0.000   2.296   0.011  -0.000  -0.418
  0.112  -0.094  -0.273   0.000   0.011   0.052  -0.000  -0.004
  0.000   0.000   0.000  -0.362   0.000  -0.000   0.069   0.000
 -0.037   0.027   0.011   0.000  -0.418  -0.004  -0.000   0.090


------------------------ aborting loop because EDIFF is reached ----------------------------------------


    CHARGE:  cpu time    0.1418: real time    0.1418
    FORLOC:  cpu time    0.0027: real time    0.0027
    FORNL :  cpu time    0.8532: real time    0.8531
    STRESS:  cpu time    2.5705: real time    2.5702
    FORCOR:  cpu time    0.0195: real time    0.0194
    FORHAR:  cpu time    0.0060: real time    0.0060
    MIXING:  cpu time    0.0005: real time    0.0005
    OFIELD:  cpu time    0.0000: real time    0.0000

  FORCE on cell =-STRESS in cart. coord.  units (eV):
  Direction    XX          YY          ZZ          XY          YZ          ZX
  --------------------------------------------------------------------------------------
  Alpha Z    76.95603    76.95603    76.95603
  Ewald    -848.84512  -848.84512  -523.74811    -0.00000    -0.00000    -0.00000
  Hartree   132.42503   132.42503   344.62032    -0.00000     0.00000    -0.00000
  E(xc)    -236.61387  -236.61387  -236.66468     0.00000    -0.00000     0.00000
  Local    -141.32849  -141.32822  -680.14976     0.00000     0.00000     0.00000
  n-local   206.20960   206.21030   210.24394    -0.57113     0.24282    -0.43485
  augment   -37.30264   -37.30288   -37.19164     0.00138     0.00000     0.00000
  Kinetic   844.09533   847.18214   840.88453    -0.19532     0.18549     0.40999
  Fock        0.00000     0.00000     0.00000     0.00000     0.00000     0.00000
  -------------------------------------------------------------------------------------
  Total      -2.86036    -2.86036    -5.04937    -0.00000     0.00000     0.00000
  in kB     -28.93017   -28.93017   -51.07027    -0.00000     0.00000     0.00000
  external pressure =      -36.31 kB  Pullay stress =        0.00 kB


 VOLUME and BASIS-vectors are now :
 -----------------------------------------------------------------------------
  energy-cutoff  :      400.00
  volume of cell :      158.41
      direct lattice vectors                 reciprocal lattice vectors
     4.020838112 -6.964295887  0.000000000     0.124352184 -0.071794767  0.000000000
     4.020838102  6.964295894  0.000000000     0.124352184  0.071794767  0.000000000
     0.000000000  0.000000000  2.828499430     0.000000000  0.000000000  0.353544353

  length of vectors
     8.041676214  8.041676214  2.828499430     0.143589534  0.143589534  0.353544353


 FORCES acting on ions
    electron-ion (+dipol)            ewald-force                    non-local-force                 convergence-correction
 -----------------------------------------------------------------------------------------------
   0.111E+02 -.756E+02 -.952E-07   -.127E+02 0.817E+02 -.405E-14   0.151E+01 -.610E+01 -.323E-17   0.133E-01 -.423E-01 -.701E-12
   0.710E+02 -.281E+02 0.434E-08   -.771E+02 0.299E+02 -.202E-14   0.604E+01 -.175E+01 0.591E-17   0.432E-01 -.963E-02 0.114E-12
   -.599E+02 -.474E+02 0.699E-07   0.644E+02 0.518E+02 -.547E-14   -.453E+01 -.436E+01 0.248E-17   -.300E-01 -.326E-01 0.104E-11
   0.599E+02 0.474E+02 -.699E-07   -.644E+02 -.518E+02 -.543E-14   0.453E+01 0.436E+01 -.997E-18   0.300E-01 0.326E-01 -.319E-12
   -.710E+02 0.281E+02 -.434E-08   0.771E+02 -.299E+02 -.262E-14   -.604E+01 0.175E+01 0.276E-17   -.432E-01 0.963E-02 -.482E-12
   -.111E+02 0.756E+02 0.952E-07   0.127E+02 -.817E+02 -.683E-14   -.151E+01 0.610E+01 -.207E-17   -.133E-01 0.423E-01 -.598E-12
   0.132E-06 -.573E-06 0.484E-08   0.114E-12 0.856E-11 0.158E-15   0.172E-17 0.472E-16 0.282E-17   0.279E-07 0.710E-07 -.410E-13
   -.132E-06 0.573E-06 -.484E-08   -.131E-12 -.853E-11 0.137E-15   0.873E-17 -.529E-17 -.218E-17   -.279E-07 -.710E-07 -.317E-14
   -.296E+01 0.104E+02 0.656E-08   0.925E+00 -.135E+02 0.263E-14   0.206E+01 0.307E+01 -.813E-17   -.989E-02 -.105E-01 -.943E-13
   -.105E+02 0.266E+01 -.549E-07   0.121E+02 -.594E+01 0.453E-14   -.163E+01 0.332E+01 -.109E-16   0.417E-02 -.138E-01 0.595E-13
   0.756E+01 0.778E+01 -.103E-06   -.112E+02 -.755E+01 0.150E-14   0.369E+01 -.252E+00 0.410E-17   -.141E-01 0.330E-02 0.968E-13
   -.756E+01 -.778E+01 0.103E-06   0.112E+02 0.755E+01 0.458E-15   -.369E+01 0.252E+00 -.865E-17   0.141E-01 -.330E-02 -.320E-13
   0.296E+01 -.104E+02 -.656E-08   -.925E+00 0.135E+02 0.484E-14   -.206E+01 -.307E+01 -.103E-16   0.989E-02 0.105E-01 0.767E-14
   0.105E+02 -.266E+01 0.549E-07   -.121E+02 0.594E+01 0.653E-14   0.163E+01 -.332E+01 -.731E-17   -.417E-02 0.138E-01 0.488E-13
 -----------------------------------------------------------------------------------------------
   0.299E-10 0.159E-10 0.799E-11   -.124E-13 0.178E-13 -.562E-14   0.000E+00 -.888E-15 -.356E-16   -.157E-11 -.106E-11 -.907E-12
 
 
 POSITION                                       TOTAL-FORCE (eV/Angst)
 -----------------------------------------------------------------------------------
      4.13721      4.41461      2.12137        -0.028687      0.008709     -0.000000
      2.26628     -1.17407      0.70712        -0.021886     -0.020489      0.000000
      5.89176     -1.37562      0.70712        -0.006801      0.029198     -0.000000
      2.14991      1.37562      2.12137         0.006801     -0.029198     -0.000000
      5.77540      1.17407      2.12137         0.021886      0.020489     -0.000000
      3.90447     -4.41461      0.70712         0.028687     -0.008709      0.000000
      4.02084      2.32143      2.12137         0.000000     -0.000000      0.000000
      4.02084     -2.32143      0.70712         0.000000     -0.000000      0.000000
      6.33910     -2.43911      2.12137         0.021902      0.000611      0.000000
      5.28188      4.27026      0.70712         0.010422      0.019273     -0.000000
      5.07805      0.25492      0.70712         0.011480     -0.018662     -0.000000
      2.96362     -0.25492      2.12137        -0.011480      0.018662      0.000000
      1.70258      2.43911      0.70712        -0.021902     -0.000611      0.000000
      2.75980     -4.27026      2.12137        -0.010422     -0.019273     -0.000000
 -----------------------------------------------------------------------------------
    total drift:                                0.000000      0.000000      0.000000


--------------------------------------------------------------------------------------------------------



  FREE ENERGIE OF THE ION-ELECTRON SYSTEM (eV)
  ---------------------------------------------------
  free  energy   TOTEN  =       -95.34598508 eV

  energy  without entropy=      -95.34383839  energy(sigma->0) =      -95.34544840
 
 d Force = 0.1506833E-02[ 0.691E-04, 0.294E-02]  d Energy = 0.1494660E-02 0.122E-04
 d Force = 0.1250637E+01[ 0.125E+01, 0.125E+01]  d Ewald  = 0.1250648E+01-0.108E-04


--------------------------------------------------------------------------------------------------------


    POTLOK:  cpu time    0.0209: real time    0.0213


--------------------------------------------------------------------------------------------------------




--------------------------------------------------------------------------------------------------------


  
 reached required accuracy - stopping structural energy minimisation
     LOOP+:  cpu time   10.0387: real time   10.0744
    4ORBIT:  cpu time    0.0000: real time    0.0000

 total amount of memory used by VASP MPI-rank0    45658. kBytes
=======================================================================

   base      :      30000. kBytes
   nonlr-proj:       2971. kBytes
   fftplans  :       1366. kBytes
   grid      :       2140. kBytes
   one-center:         12. kBytes
   wavefun   :       9169. kBytes
 
  
  
 General timing and accounting informations for this job:
 ========================================================
  
                  Total CPU time used (sec):       59.869
                            User time (sec):       59.094
                          System time (sec):        0.775
                         Elapsed time (sec):       61.121
  
                   Maximum memory used (kb):       59952.
                   Average memory used (kb):           0.
  
                          Minor page faults:        80985
                          Major page faults:            0
                 Voluntary context switches:         3928
