unknown system                          
           1
     4.020838   -6.964296    0.000000
     4.020838    6.964296    0.000000
     0.000000    0.000000    2.828499
   Si   N 
   6   8
Direct configuration=     1
   0.19708959  0.83151770  0.75000000
   0.36557189  0.19708959  0.25000000
   0.83151770  0.63442811  0.25000000
   0.16848230  0.36557189  0.75000000
   0.63442811  0.80291041  0.75000000
   0.80291041  0.16848230  0.25000000
   0.33333333  0.66666667  0.75000000
   0.66666667  0.33333333  0.25000000
   0.96358754  0.61246345  0.75000000
   0.35112409  0.96358754  0.25000000
   0.61246345  0.64887591  0.25000000
   0.38753655  0.35112409  0.75000000
   0.03641246  0.38753655  0.25000000
   0.64887591  0.03641246  0.75000000
Direct configuration=     2
   0.19774943  0.83136367  0.75000000
   0.36638576  0.19774943  0.25000000
   0.83136367  0.63361424  0.25000000
   0.16863633  0.36638576  0.75000000
   0.63361424  0.80225057  0.75000000
   0.80225057  0.16863633  0.25000000
   0.33333333  0.66666667  0.75000000
   0.66666667  0.33333333  0.25000000
   0.96329708  0.61352715  0.75000000
   0.34976993  0.96329708  0.25000000
   0.61352715  0.65023007  0.25000000
   0.38647285  0.34976993  0.75000000
   0.03670292  0.38647285  0.25000000
   0.65023007  0.03670292  0.75000000
Direct configuration=     3
   0.19752488  0.83141608  0.75000000
   0.36610880  0.19752488  0.25000000
   0.83141608  0.63389120  0.25000000
   0.16858392  0.36610880  0.75000000
   0.63389120  0.80247512  0.75000000
   0.80247512  0.16858392  0.25000000
   0.33333333  0.66666667  0.75000000
   0.66666667  0.33333333  0.25000000
   0.96339592  0.61316517  0.75000000
   0.35023075  0.96339592  0.25000000
   0.61316517  0.64976925  0.25000000
   0.38683483  0.35023075  0.75000000
   0.03660408  0.38683483  0.25000000
   0.64976925  0.03660408  0.75000000
