  14  14   0   0
  0.1165436E+02  0.8121297E-09  0.8121297E-09  0.2856504E-09  0.5000000E-15
  1.000000000000000E-004
  CAR 
 unknown system                          
     15.25897099    -11.60235067  301      9.32847896      1.00000000
    -11.602  0.0000E+00  0.0000E+00
    -11.513  0.0000E+00  0.0000E+00
    -11.423  0.0000E+00  0.0000E+00
    -11.334  0.0000E+00  0.0000E+00
    -11.244  0.1561E-33  0.1398E-34
    -11.155  0.2568E-27  0.2299E-28
    -11.065  0.8131E-22  0.7280E-23
    -10.976  0.4919E-17  0.4404E-18
    -10.886  0.5642E-13  0.5052E-14
    -10.797  0.1209E-09  0.1083E-10
    -10.707  0.4782E-07  0.4293E-08
    -10.617  0.3270E-05  0.2971E-06
    -10.528  0.1957E-04  0.2049E-05
    -10.438 -0.1723E-03 -0.1338E-04
    -10.349  0.1401E-02  0.1121E-03
    -10.259  0.6152E-02  0.6629E-03
    -10.170  0.1072E-01  0.1622E-02
    -10.080  0.1174E-01  0.2673E-02
     -9.991  0.1759E-01  0.4249E-02
     -9.901  0.1418E-01  0.5519E-02
     -9.812  0.2216E-01  0.7503E-02
     -9.722  0.2185E-01  0.9459E-02
     -9.633  0.2313E-01  0.1153E-01
     -9.543  0.3325E-01  0.1451E-01
     -9.453  0.3447E-01  0.1759E-01
     -9.364  0.4419E-01  0.2155E-01
     -9.274  0.3189E-01  0.2440E-01
     -9.185  0.2816E-01  0.2693E-01
     -9.095  0.3065E-01  0.2967E-01
     -9.006  0.2496E-01  0.3190E-01
     -8.916  0.3228E-01  0.3479E-01
     -8.827  0.4712E-01  0.3901E-01
     -8.737  0.4935E-01  0.4343E-01
     -8.648  0.3959E-01  0.4698E-01
     -8.558  0.6340E-01  0.5265E-01
     -8.469  0.5446E-01  0.5753E-01
     -8.379  0.5567E-01  0.6251E-01
     -8.289  0.5695E-01  0.6761E-01
     -8.200  0.4547E-01  0.7168E-01
     -8.110  0.8420E-01  0.7922E-01
     -8.021  0.7764E-01  0.8617E-01
     -7.931  0.6154E-01  0.9169E-01
     -7.842  0.6773E-01  0.9775E-01
     -7.752  0.4722E-01  0.1020E+00
     -7.663  0.9018E-01  0.1101E+00
     -7.573  0.6790E-01  0.1161E+00
     -7.484  0.3788E-01  0.1195E+00
     -7.394  0.6119E-02  0.1201E+00
     -7.305 -0.9442E-03  0.1200E+00
     -7.215  0.1356E-03  0.1200E+00
     -7.125  0.1439E-04  0.1200E+00
     -7.036  0.1465E-06  0.1200E+00
     -6.946  0.2446E-09  0.1200E+00
     -6.857  0.7494E-13  0.1200E+00
     -6.767  0.4305E-17  0.1200E+00
     -6.678  0.0000E+00  0.1200E+00
     -6.588  0.0000E+00  0.1200E+00
     -6.499  0.0000E+00  0.1200E+00
     -6.409  0.0000E+00  0.1200E+00
     -6.320  0.0000E+00  0.1200E+00
     -6.230  0.0000E+00  0.1200E+00
     -6.141  0.0000E+00  0.1200E+00
     -6.051  0.0000E+00  0.1200E+00
     -5.961  0.0000E+00  0.1200E+00
     -5.872  0.0000E+00  0.1200E+00
     -5.782  0.0000E+00  0.1200E+00
     -5.693  0.0000E+00  0.1200E+00
     -5.603  0.0000E+00  0.1200E+00
     -5.514  0.0000E+00  0.1200E+00
     -5.424  0.0000E+00  0.1200E+00
     -5.335  0.0000E+00  0.1200E+00
     -5.245  0.0000E+00  0.1200E+00
     -5.156  0.0000E+00  0.1200E+00
     -5.066  0.0000E+00  0.1200E+00
     -4.977  0.0000E+00  0.1200E+00
     -4.887  0.0000E+00  0.1200E+00
     -4.797  0.0000E+00  0.1200E+00
     -4.708  0.0000E+00  0.1200E+00
     -4.618  0.0000E+00  0.1200E+00
     -4.529  0.0000E+00  0.1200E+00
     -4.439  0.0000E+00  0.1200E+00
     -4.350  0.0000E+00  0.1200E+00
     -4.260  0.0000E+00  0.1200E+00
     -4.171  0.0000E+00  0.1200E+00
     -4.081  0.6938E-29  0.1200E+00
     -3.992  0.3664E-23  0.1200E+00
     -3.902  0.3687E-18  0.1200E+00
     -3.813  0.6955E-14  0.1200E+00
     -3.723  0.2379E-10  0.1200E+00
     -3.633  0.1404E-07  0.1200E+00
     -3.544  0.1297E-05  0.1200E+00
     -3.454  0.1436E-04  0.1200E+00
     -3.365 -0.3424E-04  0.1200E+00
     -3.275  0.8072E-04  0.1200E+00
     -3.186  0.5949E-02  0.1205E+00
     -3.096  0.1199E-01  0.1216E+00
     -3.007  0.8614E-02  0.1224E+00
     -2.917  0.1695E-01  0.1239E+00
     -2.828  0.5721E-02  0.1244E+00
     -2.738  0.1089E-01  0.1254E+00
     -2.649  0.1159E-01  0.1264E+00
     -2.559  0.8185E-02  0.1272E+00
     -2.470  0.8490E-02  0.1279E+00
     -2.380  0.8747E-02  0.1287E+00
     -2.290  0.1477E-01  0.1300E+00
     -2.201  0.2610E-01  0.1324E+00
     -2.111  0.1700E-01  0.1339E+00
     -2.022  0.2469E-01  0.1361E+00
     -1.932  0.3169E-01  0.1389E+00
     -1.843  0.4669E-01  0.1431E+00
     -1.753  0.5115E-01  0.1477E+00
     -1.664  0.5672E-01  0.1528E+00
     -1.574  0.7610E-01  0.1596E+00
     -1.485  0.5956E-01  0.1649E+00
     -1.395  0.2224E-01  0.1669E+00
     -1.306  0.2417E-01  0.1691E+00
     -1.216  0.4841E-01  0.1734E+00
     -1.126  0.4526E-01  0.1775E+00
     -1.037  0.4410E-01  0.1814E+00
     -0.947  0.6503E-01  0.1872E+00
     -0.858  0.4753E-01  0.1915E+00
     -0.768  0.5297E-01  0.1962E+00
     -0.679  0.5220E-01  0.2009E+00
     -0.589  0.5708E-01  0.2060E+00
     -0.500  0.5044E-01  0.2105E+00
     -0.410  0.3796E-01  0.2139E+00
     -0.321  0.4084E-01  0.2176E+00
     -0.231  0.2724E-01  0.2200E+00
     -0.142  0.3185E-01  0.2229E+00
     -0.052  0.2518E-01  0.2251E+00
      0.038  0.2619E-01  0.2275E+00
      0.127  0.3674E-01  0.2308E+00
      0.217  0.3144E-01  0.2336E+00
      0.306  0.5793E-01  0.2388E+00
      0.396  0.7878E-01  0.2458E+00
      0.485  0.3140E-01  0.2486E+00
      0.575  0.1945E-01  0.2504E+00
      0.664  0.3833E-01  0.2538E+00
      0.754  0.3720E-01  0.2571E+00
      0.843  0.4379E-01  0.2611E+00
      0.933  0.3252E-01  0.2640E+00
      1.022  0.3526E-01  0.2671E+00
      1.112  0.6298E-01  0.2728E+00
      1.202  0.8147E-01  0.2801E+00
      1.291  0.5150E-01  0.2847E+00
      1.381  0.6940E-01  0.2909E+00
      1.470  0.5288E-01  0.2956E+00
      1.560  0.5241E-01  0.3003E+00
      1.649  0.3962E-01  0.3039E+00
      1.739  0.3950E-01  0.3074E+00
      1.828  0.3850E-01  0.3108E+00
      1.918  0.4488E-01  0.3149E+00
      2.007  0.6670E-01  0.3208E+00
      2.097  0.6102E-01  0.3263E+00
      2.186  0.7170E-01  0.3327E+00
      2.276  0.5328E-01  0.3375E+00
      2.366  0.7664E-01  0.3443E+00
      2.455  0.6774E-01  0.3504E+00
      2.545  0.4052E-01  0.3540E+00
      2.634  0.6112E-01  0.3595E+00
      2.724  0.5832E-01  0.3647E+00
      2.813  0.3942E-01  0.3683E+00
      2.903  0.3912E-01  0.3718E+00
      2.992  0.5766E-01  0.3769E+00
      3.082  0.5542E-01  0.3819E+00
      3.171  0.3743E-01  0.3852E+00
      3.261  0.5751E-01  0.3904E+00
      3.350  0.6127E-01  0.3959E+00
      3.440  0.5156E-01  0.4005E+00
      3.530  0.4594E-01  0.4046E+00
      3.619  0.3847E-01  0.4081E+00
      3.709  0.6257E-01  0.4137E+00
      3.798  0.8873E-01  0.4216E+00
      3.888  0.7113E-01  0.4280E+00
      3.977  0.9901E-01  0.4368E+00
      4.067  0.1236E+00  0.4479E+00
      4.156  0.9607E-01  0.4565E+00
      4.246  0.7140E-01  0.4629E+00
      4.335  0.4724E-01  0.4671E+00
      4.425  0.3554E-01  0.4703E+00
      4.514  0.1082E-01  0.4713E+00
      4.604  0.3171E-01  0.4741E+00
      4.694  0.3698E-01  0.4774E+00
      4.783  0.1712E-01  0.4790E+00
      4.873  0.2096E-01  0.4808E+00
      4.962  0.2757E-01  0.4833E+00
      5.052  0.1512E-01  0.4847E+00
      5.141  0.2985E-01  0.4873E+00
      5.231  0.5629E-01  0.4924E+00
      5.320  0.6126E-01  0.4979E+00
      5.410  0.5188E-01  0.5025E+00
      5.499  0.3839E-01  0.5059E+00
      5.589  0.6656E-01  0.5119E+00
      5.678  0.7600E-01  0.5187E+00
      5.768  0.6160E-01  0.5242E+00
      5.858  0.7245E-01  0.5307E+00
      5.947  0.5777E-01  0.5359E+00
      6.037  0.4380E-01  0.5398E+00
      6.126  0.3971E-01  0.5434E+00
      6.216  0.4482E-01  0.5474E+00
      6.305  0.3337E-01  0.5504E+00
      6.395  0.3248E-01  0.5533E+00
      6.484  0.2132E-01  0.5552E+00
      6.574  0.1459E-01  0.5565E+00
      6.663  0.1115E-01  0.5575E+00
      6.753  0.1239E-01  0.5586E+00
      6.842  0.2499E-01  0.5608E+00
      6.932  0.1965E-01  0.5626E+00
      7.021  0.2975E-01  0.5653E+00
      7.111  0.3175E-01  0.5681E+00
      7.201  0.4165E-01  0.5718E+00
      7.290  0.3026E-01  0.5745E+00
      7.380  0.1825E-01  0.5762E+00
      7.469  0.2328E-01  0.5783E+00
      7.559  0.2992E-01  0.5809E+00
      7.648  0.1569E-01  0.5823E+00
      7.738  0.1983E-01  0.5841E+00
      7.827  0.1512E-01  0.5855E+00
      7.917  0.2130E-01  0.5874E+00
      8.006  0.1973E-01  0.5891E+00
      8.096  0.2892E-01  0.5917E+00
      8.185  0.3437E-01  0.5948E+00
      8.275  0.9480E-02  0.5957E+00
      8.365  0.1465E-01  0.5970E+00
      8.454  0.2042E-01  0.5988E+00
      8.544  0.1557E-01  0.6002E+00
      8.633  0.5603E-02  0.6007E+00
      8.723  0.2528E-01  0.6030E+00
      8.812  0.2692E-01  0.6054E+00
      8.902  0.2063E-01  0.6072E+00
      8.991  0.1060E-01  0.6082E+00
      9.081  0.1859E-01  0.6098E+00
      9.170  0.4050E-01  0.6135E+00
      9.260  0.4312E-01  0.6173E+00
      9.349  0.4103E-01  0.6210E+00
      9.439  0.3897E-01  0.6245E+00
      9.529  0.1947E-01  0.6262E+00
      9.618  0.2713E-01  0.6286E+00
      9.708  0.5351E-01  0.6334E+00
      9.797  0.2810E-01  0.6360E+00
      9.887  0.2331E-01  0.6380E+00
      9.976  0.2656E-01  0.6404E+00
     10.066  0.3014E-01  0.6431E+00
     10.155  0.3218E-01  0.6460E+00
     10.245  0.1741E-01  0.6476E+00
     10.334  0.2806E-01  0.6501E+00
     10.424  0.5396E-01  0.6549E+00
     10.513  0.5611E-01  0.6599E+00
     10.603  0.5365E-01  0.6647E+00
     10.693  0.4576E-01  0.6688E+00
     10.782  0.2114E-01  0.6707E+00
     10.872  0.3131E-01  0.6735E+00
     10.961  0.3740E-01  0.6769E+00
     11.051  0.2919E-01  0.6795E+00
     11.140  0.2138E-01  0.6814E+00
     11.230  0.4635E-01  0.6856E+00
     11.319  0.5380E-01  0.6904E+00
     11.409  0.4339E-01  0.6943E+00
     11.498  0.3653E-01  0.6975E+00
     11.588  0.3811E-01  0.7009E+00
     11.677  0.3837E-01  0.7044E+00
     11.767  0.3579E-01  0.7076E+00
     11.857  0.3861E-01  0.7110E+00
     11.946  0.4763E-01  0.7153E+00
     12.036  0.4442E-01  0.7193E+00
     12.125  0.6739E-01  0.7253E+00
     12.215  0.5861E-01  0.7306E+00
     12.304  0.6376E-01  0.7363E+00
     12.394  0.8596E-01  0.7440E+00
     12.483  0.6401E-01  0.7497E+00
     12.573  0.4437E-01  0.7537E+00
     12.662  0.6160E-01  0.7592E+00
     12.752  0.3160E-01  0.7620E+00
     12.841  0.2832E-01  0.7645E+00
     12.931  0.3672E-01  0.7678E+00
     13.021  0.5149E-01  0.7724E+00
     13.110  0.3813E-01  0.7759E+00
     13.200  0.3674E-01  0.7791E+00
     13.289  0.4235E-01  0.7829E+00
     13.379  0.4548E-01  0.7870E+00
     13.468  0.3216E-01  0.7899E+00
     13.558  0.2728E-01  0.7923E+00
     13.647  0.2546E-01  0.7946E+00
     13.737  0.1923E-01  0.7963E+00
     13.826  0.1509E-01  0.7977E+00
     13.916  0.1010E-01  0.7986E+00
     14.005  0.8036E-02  0.7993E+00
     14.095  0.8196E-02  0.8000E+00
     14.185 -0.4919E-03  0.8000E+00
     14.274 -0.2010E-04  0.8000E+00
     14.364  0.2036E-04  0.8000E+00
     14.453  0.3244E-06  0.8000E+00
     14.543  0.7116E-09  0.8000E+00
     14.632  0.2713E-12  0.8000E+00
     14.722  0.1916E-16  0.8000E+00
     14.811  0.0000E+00  0.8000E+00
     14.901  0.0000E+00  0.8000E+00
     14.990  0.0000E+00  0.8000E+00
     15.080  0.0000E+00  0.8000E+00
     15.169  0.0000E+00  0.8000E+00
     15.259  0.0000E+00  0.8000E+00
