   14   14  100    1
  0.1165436E+02  0.8121297E-09  0.8121297E-09  0.2856504E-09  0.5000000E-15
  1.000000000000000E-004
  CAR 
 unknown system                          
     62     72     40
 
  0.3742002E-15  0.3742002E-15  0.3742002E-15  0.1736111E-02
    1      -10.381382   1.000000
    2       -9.349938   1.000000
    3       -9.349938   1.000000
    4       -8.747814   1.000000
    5       -8.747814   1.000000
    6       -8.588063   1.000000
    7       -2.354342   1.000000
    8       -2.354342   1.000000
    9       -2.085508   1.000000
   10       -1.558641   1.000000
   11       -0.443311   1.000000
   12        0.425668   1.000000
   13        0.425668   1.000000
   14        2.257587   1.000000
   15        2.257587   1.000000
   16        2.971437   1.000000
   17        3.319082   1.000000
   18        3.319082   1.000000
   19        3.680750   1.000000
   20        3.907399   1.000000
   21        4.414089   1.000000
   22        4.414089   1.000000
   23        4.881851   1.000000
   24        4.881851   1.000000
   25        5.061448   1.000000
   26        6.289079   1.000000
   27        6.364512   1.000000
   28        6.364512   1.000000
   29        8.169340   1.000000
   30        8.518968   1.000000
   31        8.518968   1.000000
   32       11.993970   0.000000
   33       11.993974   0.000000
   34       12.017203   0.000000
   35       12.521325   0.000000
   36       12.521326   0.000000
   37       13.594818   0.000000
   38       13.594951   0.000000
   39       13.685170   0.000000
   40       14.028748   0.000000
 
  0.1666667E+00  0.3899920E-15  0.3742002E-15  0.1041667E-01
    1      -10.333411   1.000000
    2       -9.448116   1.000000
    3       -9.388989   1.000000
    4       -8.897871   1.000000
    5       -8.688484   1.000000
    6       -8.378028   1.000000
    7       -2.661393   1.000000
    8       -2.328531   1.000000
    9       -2.015491   1.000000
   10       -1.239450   1.000000
   11       -0.566700   1.000000
   12        0.254941   1.000000
   13        0.556333   1.000000
   14        2.149411   1.000000
   15        2.291112   1.000000
   16        3.021385   1.000000
   17        3.088941   1.000000
   18        3.483473   1.000000
   19        3.934621   1.000000
   20        4.005023   1.000000
   21        4.375570   1.000000
   22        4.402945   1.000000
   23        4.837880   1.000000
   24        4.896843   1.000000
   25        5.114511   1.000000
   26        6.078024   1.000000
   27        6.128167   1.000000
   28        6.432240   1.000000
   29        8.095313   1.000000
   30        8.740202   1.000000
   31        8.799962   1.000000
   32       11.651204   0.000000
   33       11.927102   0.000000
   34       11.981441   0.000000
   35       12.431400   0.000000
   36       12.541134   0.000000
   37       13.307969   0.000000
   38       13.545657   0.000000
   39       13.716284   0.000000
   40       14.004658   0.000000
 
  0.3333333E+00  0.4136908E-15  0.3742002E-15  0.1041667E-01
    1      -10.193684   1.000000
    2       -9.694837   1.000000
    3       -9.452354   1.000000
    4       -8.981526   1.000000
    5       -8.582958   1.000000
    6       -8.168175   1.000000
    7       -3.026515   1.000000
    8       -2.270377   1.000000
    9       -1.824706   1.000000
   10       -1.048493   1.000000
   11       -0.683150   1.000000
   12       -0.052513   1.000000
   13        0.976923   1.000000
   14        1.969361   1.000000
   15        2.165217   1.000000
   16        2.733847   1.000000
   17        3.320961   1.000000
   18        3.735222   1.000000
   19        4.012629   1.000000
   20        4.273070   1.000000
   21        4.381571   1.000000
   22        4.453506   1.000000
   23        4.788493   1.000000
   24        4.924666   1.000000
   25        5.182472   1.000000
   26        5.548656   1.000000
   27        5.770397   1.000000
   28        6.797368   1.000000
   29        7.863639   1.000000
   30        9.096493   0.996650
   31        9.370137   0.113570
   32       10.862386   0.000000
   33       11.670708   0.000000
   34       11.895276   0.000000
   35       12.454479   0.000000
   36       12.596595   0.000000
   37       13.062933   0.000000
   38       13.440544   0.000000
   39       13.739616   0.000000
   40       13.846398   0.000000
 
  0.5000000E+00  0.4031110E-15  0.3742002E-15  0.5208333E-02
    1      -10.007195   1.000000
    2       -9.931775   1.000000
    3       -9.479250   1.000000
    4       -9.000278   1.000000
    5       -8.534085   1.000000
    6       -8.089669   1.000000
    7       -3.165128   1.000000
    8       -2.237168   1.000000
    9       -1.656678   1.000000
   10       -1.214178   1.000000
   11       -0.608769   1.000000
   12       -0.196247   1.000000
   13        1.465836   1.000000
   14        1.810568   1.000000
   15        1.892499   1.000000
   16        2.573296   1.000000
   17        3.548347   1.000000
   18        3.837853   1.000000
   19        4.100237   1.000000
   20        4.170631   1.000000
   21        4.372655   1.000000
   22        4.661401   1.000000
   23        4.773734   1.000000
   24        4.938312   1.000000
   25        5.209374   1.000000
   26        5.229901   1.000000
   27        5.650316   1.000000
   28        7.112839   1.000000
   29        7.620481   1.000000
   30        9.229473   1.051301
   31        9.990282   0.000000
   32       10.133966   0.000000
   33       11.536111   0.000000
   34       11.813379   0.000000
   35       12.553276   0.000000
   36       12.699253   0.000000
   37       12.903109   0.000000
   38       13.376490   0.000000
   39       13.595816   0.000000
   40       13.697584   0.000000
 
  0.1666667E+00  0.1666667E+00  0.3742002E-15  0.1041667E-01
    1      -10.239401   1.000000
    2       -9.556482   1.000000
    3       -9.527227   1.000000
    4       -8.919191   1.000000
    5       -8.639624   1.000000
    6       -8.207081   1.000000
    7       -2.963816   1.000000
    8       -2.241436   1.000000
    9       -1.880536   1.000000
   10       -1.091678   1.000000
   11       -0.740922   1.000000
   12        0.184048   1.000000
   13        0.749162   1.000000
   14        1.920869   1.000000
   15        2.420526   1.000000
   16        2.778580   1.000000
   17        3.118157   1.000000
   18        3.731964   1.000000
   19        3.987988   1.000000
   20        4.321417   1.000000
   21        4.343027   1.000000
   22        4.366803   1.000000
   23        4.811279   1.000000
   24        4.908132   1.000000
   25        5.169078   1.000000
   26        5.715662   1.000000
   27        5.834252   1.000000
   28        6.682008   1.000000
   29        7.947406   1.000000
   30        9.047778   0.999308
   31        9.168611   1.004645
   32       11.211114   0.000000
   33       11.391141   0.000000
   34       12.240181   0.000000
   35       12.263001   0.000000
   36       12.637874   0.000000
   37       13.180685   0.000000
   38       13.382743   0.000000
   39       13.774594   0.000000
   40       13.831920   0.000000
 
  0.3333333E+00  0.1666667E+00  0.3742002E-15  0.1041667E-01
    1      -10.060913   1.000000
    2       -9.804309   1.000000
    3       -9.605012   1.000000
    4       -8.891087   1.000000
    5       -8.601549   1.000000
    6       -8.079685   1.000000
    7       -3.193828   1.000000
    8       -2.096575   1.000000
    9       -1.654662   1.000000
   10       -1.266627   1.000000
   11       -0.980420   1.000000
   12        0.313250   1.000000
   13        1.145338   1.000000
   14        1.652331   1.000000
   15        2.251758   1.000000
   16        2.658856   1.000000
   17        3.237690   1.000000
   18        3.916086   1.000000
   19        4.079563   1.000000
   20        4.223855   1.000000
   21        4.328605   1.000000
   22        4.647601   1.000000
   23        4.807523   1.000000
   24        4.915123   1.000000
   25        5.211729   1.000000
   26        5.425167   1.000000
   27        5.554876   1.000000
   28        7.070085   1.000000
   29        7.674626   1.000000
   30        9.353058   0.251820
   31        9.640512   0.000167
   32       10.448951   0.000000
   33       11.091099   0.000000
   34       12.026217   0.000000
   35       12.565658   0.000000
   36       12.808751   0.000000
   37       13.030011   0.000000
   38       13.215846   0.000000
   39       13.585125   0.000000
   40       13.838361   0.000000
 
  0.5000000E+00  0.1666667E+00  0.3742002E-15  0.1041667E-01
    1      -10.060906   1.000000
    2       -9.804318   1.000000
    3       -9.605032   1.000000
    4       -8.891081   1.000000
    5       -8.601539   1.000000
    6       -8.079662   1.000000
    7       -3.193898   1.000000
    8       -2.094537   1.000000
    9       -1.664057   1.000000
   10       -1.249429   1.000000
   11       -0.989985   1.000000
   12        0.310281   1.000000
   13        1.150052   1.000000
   14        1.647614   1.000000
   15        2.309607   1.000000
   16        2.568006   1.000000
   17        3.270527   1.000000
   18        3.936482   1.000000
   19        4.079579   1.000000
   20        4.224176   1.000000
   21        4.328388   1.000000
   22        4.640711   1.000000
   23        4.807149   1.000000
   24        4.914435   1.000000
   25        5.212302   1.000000
   26        5.337735   1.000000
   27        5.631446   1.000000
   28        7.075701   1.000000
   29        7.670793   1.000000
   30        9.308783   0.702199
   31        9.716005   0.000002
   32       10.376308   0.000000
   33       11.156644   0.000000
   34       11.998777   0.000000
   35       12.550503   0.000000
   36       12.823044   0.000000
   37       12.962753   0.000000
   38       13.342349   0.000000
   39       13.549010   0.000000
   40       13.856121   0.000000
 
  0.3333333E+00  0.3333333E+00  0.3742002E-15  0.3472222E-02
    1       -9.868968   1.000000
    2       -9.868968   1.000000
    3       -9.807064   1.000000
    4       -8.723098   1.000000
    5       -8.723098   1.000000
    6       -8.036054   1.000000
    7       -3.279885   1.000000
    8       -1.700500   1.000000
    9       -1.700499   1.000000
   10       -1.371383   1.000000
   11       -1.371382   1.000000
   12        0.953309   1.000000
   13        0.953310   1.000000
   14        1.375557   1.000000
   15        2.250194   1.000000
   16        2.922265   1.000000
   17        2.922265   1.000000
   18        3.986213   1.000000
   19        4.135712   1.000000
   20        4.234921   1.000000
   21        4.234921   1.000000
   22        4.748456   1.000000
   23        4.865463   1.000000
   24        4.865463   1.000000
   25        5.225483   1.000000
   26        5.432452   1.000000
   27        5.432452   1.000000
   28        7.400625   1.000000
   29        7.400626   1.000000
   30        9.584080   0.001741
   31        9.936023   0.000000
   32        9.936023   0.000000
   33       10.870040   0.000000
   34       11.870615   0.000000
   35       12.892843   0.000000
   36       12.892846   0.000000
   37       13.053142   0.000000
   38       13.280815   0.000000
   39       13.280900   0.000000
   40       13.816380   0.000000
 
  0.3742002E-15  0.3742002E-15  0.6250000E-01  0.3472222E-02
    1      -10.332795   1.000000
    2       -9.307716   1.000000
    3       -9.307716   1.000000
    4       -8.709168   1.000000
    5       -8.709168   1.000000
    6       -8.554040   1.000000
    7       -2.314173   1.000000
    8       -2.314173   1.000000
    9       -2.028166   1.000000
   10       -1.507212   1.000000
   11       -0.416676   1.000000
   12        0.453204   1.000000
   13        0.453204   1.000000
   14        2.302685   1.000000
   15        2.302686   1.000000
   16        2.976037   1.000000
   17        3.322408   1.000000
   18        3.322409   1.000000
   19        3.646277   1.000000
   20        3.651095   1.000000
   21        4.169915   1.000000
   22        4.169915   1.000000
   23        4.624369   1.000000
   24        4.624369   1.000000
   25        4.783197   1.000000
   26        6.376318   1.000000
   27        6.376318   1.000000
   28        6.445740   1.000000
   29        8.127089   1.000000
   30        8.641628   1.000000
   31        8.641628   1.000000
   32       11.847634   0.000000
   33       11.847638   0.000000
   34       11.968726   0.000000
   35       12.667340   0.000000
   36       12.667362   0.000000
   37       13.279568   0.000000
   38       13.507617   0.000000
   39       13.515694   0.000000
   40       13.534302   0.000000
 
  0.1666667E+00  0.3899920E-15  0.6250000E-01  0.2083333E-01
    1      -10.285017   1.000000
    2       -9.404986   1.000000
    3       -9.346226   1.000000
    4       -8.859321   1.000000
    5       -8.650749   1.000000
    6       -8.344909   1.000000
    7       -2.614583   1.000000
    8       -2.287214   1.000000
    9       -1.958697   1.000000
   10       -1.193558   1.000000
   11       -0.536253   1.000000
   12        0.283523   1.000000
   13        0.581482   1.000000
   14        2.194294   1.000000
   15        2.321624   1.000000
   16        3.020320   1.000000
   17        3.081712   1.000000
   18        3.479685   1.000000
   19        3.685866   1.000000
   20        3.962444   1.000000
   21        4.142613   1.000000
   22        4.163977   1.000000
   23        4.564544   1.000000
   24        4.651872   1.000000
   25        4.877769   1.000000
   26        6.107644   1.000000
   27        6.157341   1.000000
   28        6.569054   1.000000
   29        8.061748   1.000000
   30        8.837245   1.000000
   31        8.892431   1.000000
   32       11.638132   0.000000
   33       11.885232   0.000000
   34       11.903596   0.000000
   35       12.448588   0.000000
   36       12.606741   0.000000
   37       13.150852   0.000000
   38       13.398373   0.000000
   39       13.527640   0.000000
   40       13.575974   0.000000
 
  0.3333333E+00  0.4136908E-15  0.6250000E-01  0.2083333E-01
    1      -10.145906   1.000000
    2       -9.649927   1.000000
    3       -9.408860   1.000000
    4       -8.942662   1.000000
    5       -8.546843   1.000000
    6       -8.137085   1.000000
    7       -2.974696   1.000000
    8       -2.226620   1.000000
    9       -1.769533   1.000000
   10       -0.999873   1.000000
   11       -0.651639   1.000000
   12       -0.023042   1.000000
   13        0.993206   1.000000
   14        2.015190   1.000000
   15        2.180218   1.000000
   16        2.725634   1.000000
   17        3.273371   1.000000
   18        3.702047   1.000000
   19        3.809192   1.000000
   20        3.993823   1.000000
   21        4.172370   1.000000
   22        4.407689   1.000000
   23        4.551532   1.000000
   24        4.699405   1.000000
   25        5.004685   1.000000
   26        5.596438   1.000000
   27        5.795324   1.000000
   28        6.894452   1.000000
   29        7.856460   1.000000
   30        9.144562   0.996387
   31        9.429017  -0.050924
   32       10.929255   0.000000
   33       11.705374   0.000000
   34       11.883389   0.000000
   35       12.363551   0.000000
   36       12.595700   0.000000
   37       12.864882   0.000000
   38       13.296289   0.000000
   39       13.433597   0.000000
   40       13.642651   0.000000
 
  0.5000000E+00  0.4031110E-15  0.6250000E-01  0.1041667E-01
    1       -9.960408   1.000000
    2       -9.885362   1.000000
    3       -9.435492   1.000000
    4       -8.961267   1.000000
    5       -8.498714   1.000000
    6       -8.059376   1.000000
    7       -3.111584   1.000000
    8       -2.191849   1.000000
    9       -1.603583   1.000000
   10       -1.162386   1.000000
   11       -0.576644   1.000000
   12       -0.166633   1.000000
   13        1.465742   1.000000
   14        1.830791   1.000000
   15        1.939398   1.000000
   16        2.573581   1.000000
   17        3.424294   1.000000
   18        3.771154   1.000000
   19        3.904189   1.000000
   20        3.973252   1.000000
   21        4.189024   1.000000
   22        4.521296   1.000000
   23        4.598921   1.000000
   24        4.718330   1.000000
   25        5.107730   1.000000
   26        5.263287   1.000000
   27        5.659891   1.000000
   28        7.172023   1.000000
   29        7.642352   1.000000
   30        9.258428   1.021100
   31       10.031752   0.000000
   32       10.200416   0.000000
   33       11.609540   0.000000
   34       11.826466   0.000000
   35       12.415736   0.000000
   36       12.681187   0.000000
   37       12.729720   0.000000
   38       13.217979   0.000000
   39       13.495817   0.000000
   40       13.505968   0.000000
 
  0.1666667E+00  0.1666667E+00  0.6250000E-01  0.2083333E-01
    1      -10.191413   1.000000
    2       -9.512487   1.000000
    3       -9.483380   1.000000
    4       -8.880841   1.000000
    5       -8.602818   1.000000
    6       -8.175558   1.000000
    7       -2.912888   1.000000
    8       -2.198672   1.000000
    9       -1.825290   1.000000
   10       -1.044722   1.000000
   11       -0.706763   1.000000
   12        0.209681   1.000000
   13        0.770612   1.000000
   14        1.962519   1.000000
   15        2.434822   1.000000
   16        2.772152   1.000000
   17        3.113477   1.000000
   18        3.646698   1.000000
   19        3.806260   1.000000
   20        4.068408   1.000000
   21        4.104940   1.000000
   22        4.340838   1.000000
   23        4.552138   1.000000
   24        4.676324   1.000000
   25        4.974442   1.000000
   26        5.748570   1.000000
   27        5.873942   1.000000
   28        6.792053   1.000000
   29        7.929434   1.000000
   30        9.116069   0.995339
   31        9.226293   1.050373
   32       11.280711   0.000000
   33       11.414878   0.000000
   34       12.126481   0.000000
   35       12.340143   0.000000
   36       12.520530   0.000000
   37       12.956245   0.000000
   38       13.350713   0.000000
   39       13.455895   0.000000
   40       13.633866   0.000000
 
  0.3333333E+00  0.1666667E+00  0.6250000E-01  0.2083333E-01
    1      -10.013868   1.000000
    2       -9.758704   1.000000
    3       -9.560602   1.000000
    4       -8.852919   1.000000
    5       -8.565606   1.000000
    6       -8.049517   1.000000
    7       -3.140460   1.000000
    8       -2.052286   1.000000
    9       -1.602405   1.000000
   10       -1.216009   1.000000
   11       -0.941631   1.000000
   12        0.334619   1.000000
   13        1.157914   1.000000
   14        1.686102   1.000000
   15        2.268400   1.000000
   16        2.654568   1.000000
   17        3.199549   1.000000
   18        3.749204   1.000000
   19        3.950346   1.000000
   20        3.974411   1.000000
   21        4.157032   1.000000
   22        4.525779   1.000000
   23        4.619298   1.000000
   24        4.689557   1.000000
   25        5.085913   1.000000
   26        5.469426   1.000000
   27        5.569847   1.000000
   28        7.136885   1.000000
   29        7.684096   1.000000
   30        9.370265   0.112690
   31        9.706155   0.000004
   32       10.510990   0.000000
   33       11.150536   0.000000
   34       12.111768   0.000000
   35       12.380122   0.000000
   36       12.603516   0.000000
   37       12.896497   0.000000
   38       13.167897   0.000000
   39       13.510071   0.000000
   40       13.634601   0.000000
 
  0.5000000E+00  0.1666667E+00  0.6250000E-01  0.2083333E-01
    1      -10.013867   1.000000
    2       -9.758720   1.000000
    3       -9.560581   1.000000
    4       -8.852924   1.000000
    5       -8.565629   1.000000
    6       -8.049485   1.000000
    7       -3.140577   1.000000
    8       -2.050060   1.000000
    9       -1.612364   1.000000
   10       -1.197528   1.000000
   11       -0.951891   1.000000
   12        0.331605   1.000000
   13        1.162347   1.000000
   14        1.681559   1.000000
   15        2.324831   1.000000
   16        2.569401   1.000000
   17        3.225917   1.000000
   18        3.757128   1.000000
   19        3.900839   1.000000
   20        4.085750   1.000000
   21        4.104453   1.000000
   22        4.551882   1.000000
   23        4.590545   1.000000
   24        4.689886   1.000000
   25        5.091351   1.000000
   26        5.370566   1.000000
   27        5.654052   1.000000
   28        7.140992   1.000000
   29        7.681100   1.000000
   30        9.341801   0.360996
   31        9.757228   0.000000
   32       10.451739   0.000000
   33       11.204652   0.000000
   34       12.106252   0.000000
   35       12.351420   0.000000
   36       12.620907   0.000000
   37       12.840171   0.000000
   38       13.268741   0.000000
   39       13.494339   0.000000
   40       13.638929   0.000000
 
  0.3333333E+00  0.3333333E+00  0.6250000E-01  0.6944444E-02
    1       -9.823007   1.000000
    2       -9.823007   1.000000
    3       -9.761381   1.000000
    4       -8.686260   1.000000
    5       -8.686260   1.000000
    6       -8.006328   1.000000
    7       -3.225895   1.000000
    8       -1.657171   1.000000
    9       -1.657171   1.000000
   10       -1.319929   1.000000
   11       -1.319929   1.000000
   12        0.962649   1.000000
   13        0.962649   1.000000
   14        1.415181   1.000000
   15        2.267152   1.000000
   16        2.903829   1.000000
   17        2.903830   1.000000
   18        3.778751   1.000000
   19        4.016404   1.000000
   20        4.016405   1.000000
   21        4.066573   1.000000
   22        4.627879   1.000000
   23        4.627879   1.000000
   24        4.662916   1.000000
   25        5.144818   1.000000
   26        5.456924   1.000000
   27        5.456924   1.000000
   28        7.433217   1.000000
   29        7.433217   1.000000
   30        9.572297   0.002485
   31       10.015578   0.000000
   32       10.015578   0.000000
   33       10.915907   0.000000
   34       12.011822   0.000000
   35       12.502291   0.000000
   36       12.502294   0.000000
   37       13.128794   0.000000
   38       13.389083   0.000000
   39       13.389619   0.000000
   40       13.537743   0.000000
 
  0.3742002E-15  0.3742002E-15  0.1250000E+00  0.3472222E-02
    1      -10.188443   1.000000
    2       -9.183030   1.000000
    3       -9.183030   1.000000
    4       -8.596341   1.000000
    5       -8.596341   1.000000
    6       -8.455996   1.000000
    7       -2.198258   1.000000
    8       -2.198258   1.000000
    9       -1.856955   1.000000
   10       -1.354645   1.000000
   11       -0.350773   1.000000
   12        0.522772   1.000000
   13        0.522773   1.000000
   14        2.435962   1.000000
   15        2.435963   1.000000
   16        2.929054   1.000000
   17        3.006484   1.000000
   18        3.285826   1.000000
   19        3.285826   1.000000
   20        3.446202   1.000000
   21        3.555804   1.000000
   22        3.555804   1.000000
   23        4.052437   1.000000
   24        4.052437   1.000000
   25        4.395667   1.000000
   26        6.395058   1.000000
   27        6.395058   1.000000
   28        6.719224   1.000000
   29        7.948836   1.000000
   30        8.913686   1.000000
   31        8.913687   1.000000
   32       11.239764   0.000000
   33       11.239765   0.000000
   34       11.437912   0.000000
   35       12.120666   0.000000
   36       12.931807   0.000000
   37       12.931847   0.000000
   38       12.998899   0.000000
   39       12.998906   0.000000
   40       14.005329   0.000000
 
  0.1666667E+00  0.3899920E-15  0.1250000E+00  0.2083333E-01
    1      -10.141471   1.000000
    2       -9.277646   1.000000
    3       -9.220140   1.000000
    4       -8.746953   1.000000
    5       -8.540753   1.000000
    6       -8.249305   1.000000
    7       -2.477626   1.000000
    8       -2.168340   1.000000
    9       -1.789537   1.000000
   10       -1.060448   1.000000
   11       -0.456418   1.000000
   12        0.355833   1.000000
   13        0.642937   1.000000
   14        2.326198   1.000000
   15        2.373819   1.000000
   16        2.942559   1.000000
   17        2.979980   1.000000
   18        3.161002   1.000000
   19        3.350283   1.000000
   20        3.487809   1.000000
   21        3.642216   1.000000
   22        3.772243   1.000000
   23        3.984678   1.000000
   24        4.095266   1.000000
   25        4.577256   1.000000
   26        6.156941   1.000000
   27        6.203114   1.000000
   28        6.816154   1.000000
   29        7.909410   1.000000
   30        9.043464   0.999421
   31        9.099885   0.996395
   32       11.282806   0.000000
   33       11.376670   0.000000
   34       11.419365   0.000000
   35       12.069990   0.000000
   36       12.351908   0.000000
   37       12.606783   0.000000
   38       13.033602   0.000000
   39       13.144537   0.000000
   40       14.016397   0.000000
 
  0.3333333E+00  0.4136908E-15  0.1250000E+00  0.2083333E-01
    1      -10.004549   1.000000
    2       -9.517278   1.000000
    3       -9.280730   1.000000
    4       -8.829232   1.000000
    5       -8.441799   1.000000
    6       -8.047870   1.000000
    7       -2.821491   1.000000
    8       -2.100933   1.000000
    9       -1.606347   1.000000
   10       -0.858012   1.000000
   11       -0.567051   1.000000
   12        0.052703   1.000000
   13        1.025694   1.000000
   14        2.148902   1.000000
   15        2.184856   1.000000
   16        2.646034   1.000000
   17        2.924937   1.000000
   18        3.314530   1.000000
   19        3.392164   1.000000
   20        3.547791   1.000000
   21        3.834860   1.000000
   22        3.968646   1.000000
   23        4.104511   1.000000
   24        4.166834   1.000000
   25        4.898902   1.000000
   26        5.679257   1.000000
   27        5.841513   1.000000
   28        7.069574   1.000000
   29        7.777557   1.000000
   30        9.225175   1.049919
   31        9.558528   0.003496
   32       11.058188   0.000000
   33       11.385323   0.000000
   34       11.573974   0.000000
   35       11.714377   0.000000
   36       12.085897   0.000000
   37       12.304286   0.000000
   38       13.022820   0.000000
   39       13.220158   0.000000
   40       13.906908   0.000000
 
  0.5000000E+00  0.4031110E-15  0.1250000E+00  0.1041667E-01
    1       -9.822371   1.000000
    2       -9.748112   1.000000
    3       -9.306479   1.000000
    4       -8.847511   1.000000
    5       -8.396059   1.000000
    6       -7.972787   1.000000
    7       -2.953096   1.000000
    8       -2.062289   1.000000
    9       -1.447542   1.000000
   10       -1.010021   1.000000
   11       -0.490058   1.000000
   12       -0.090132   1.000000
   13        1.444141   1.000000
   14        1.868493   1.000000
   15        2.076195   1.000000
   16        2.518705   1.000000
   17        2.893405   1.000000
   18        3.286777   1.000000
   19        3.385175   1.000000
   20        3.693288   1.000000
   21        3.959327   1.000000
   22        4.098852   1.000000
   23        4.170609   1.000000
   24        4.177688   1.000000
   25        5.137800   1.000000
   26        5.327985   1.000000
   27        5.679430   1.000000
   28        7.273480   1.000000
   29        7.636524   1.000000
   30        9.288746   0.872856
   31       10.116122   0.000000
   32       10.352580   0.000000
   33       11.433900   0.000000
   34       11.516347   0.000000
   35       11.775101   0.000000
   36       12.027950   0.000000
   37       12.322925   0.000000
   38       12.969977   0.000000
   39       13.412551   0.000000
   40       13.827788   0.000000
 
  0.1666667E+00  0.1666667E+00  0.1250000E+00  0.2083333E-01
    1      -10.049308   1.000000
    2       -9.382534   1.000000
    3       -9.353940   1.000000
    4       -8.768815   1.000000
    5       -8.495544   1.000000
    6       -8.084980   1.000000
    7       -2.762824   1.000000
    8       -2.075746   1.000000
    9       -1.661408   1.000000
   10       -0.908757   1.000000
   11       -0.613138   1.000000
   12        0.274221   1.000000
   13        0.820083   1.000000
   14        2.078652   1.000000
   15        2.403579   1.000000
   16        2.720786   1.000000
   17        2.985268   1.000000
   18        3.190090   1.000000
   19        3.390821   1.000000
   20        3.500783   1.000000
   21        3.813788   1.000000
   22        3.942652   1.000000
   23        4.035077   1.000000
   24        4.158156   1.000000
   25        4.812582   1.000000
   26        5.811556   1.000000
   27        5.940376   1.000000
   28        6.992330   1.000000
   29        7.824554   1.000000
   30        9.224831   1.049767
   31        9.375237   0.080315
   32       11.270200   0.000000
   33       11.344321   0.000000
   34       11.536460   0.000000
   35       11.807675   0.000000
   36       11.942289   0.000000
   37       12.454609   0.000000
   38       12.994973   0.000000
   39       13.230410   0.000000
   40       14.011609   0.000000
 
  0.3333333E+00  0.1666667E+00  0.1250000E+00  0.2083333E-01
    1       -9.874701   1.000000
    2       -9.623886   1.000000
    3       -9.429430   1.000000
    4       -8.741588   1.000000
    5       -8.460960   1.000000
    6       -7.963054   1.000000
    7       -2.982100   1.000000
    8       -1.925589   1.000000
    9       -1.449775   1.000000
   10       -1.066948   1.000000
   11       -0.830892   1.000000
   12        0.384472   1.000000
   13        1.175146   1.000000
   14        1.775265   1.000000
   15        2.300168   1.000000
   16        2.555891   1.000000
   17        2.899233   1.000000
   18        3.226096   1.000000
   19        3.397218   1.000000
   20        3.677561   1.000000
   21        3.952953   1.000000