       N       E                     dE             d eps       ncg     rms          rms(c)
DAV:   1     0.224986441195E+03    0.22499E+03   -0.25206E+04  5816   0.114E+03
DAV:   2    -0.809877480660E+02   -0.30597E+03   -0.29312E+03  7256   0.237E+02
DAV:   3    -0.103651751925E+03   -0.22664E+02   -0.22223E+02  7304   0.678E+01
DAV:   4    -0.104218893177E+03   -0.56714E+00   -0.56284E+00  7360   0.111E+01
DAV:   5    -0.104232564332E+03   -0.13671E-01   -0.13662E-01  7336   0.167E+00    0.221E+01
RMM:   6    -0.957994854381E+02    0.84331E+01   -0.46819E+01  5760   0.234E+01    0.101E+01
RMM:   7    -0.953436674522E+02    0.45582E+00   -0.10899E+00  5817   0.365E+00    0.574E+00
RMM:   8    -0.952607993875E+02    0.82868E-01   -0.66315E-01  5773   0.270E+00    0.955E-01
RMM:   9    -0.952430860198E+02    0.17713E-01   -0.18475E-01  5797   0.152E+00    0.513E-01
RMM:  10    -0.952415288953E+02    0.15571E-02   -0.11494E-02  5778   0.452E-01    0.135E-01
RMM:  11    -0.952422022392E+02   -0.67334E-03   -0.47868E-03  5798   0.258E-01    0.948E-02
RMM:  12    -0.952421507901E+02    0.51449E-04   -0.76122E-04  5359   0.107E-01
   1 F= -.95242151E+02 E0= -.95241858E+02  d E =-.952422E+02
       N       E                     dE             d eps       ncg     rms          rms(c)
DAV:   1    -0.952566008842E+02   -0.14399E-01   -0.35549E+00  6640   0.104E+01    0.396E-01
RMM:   2    -0.952597943978E+02   -0.31935E-02   -0.71230E-02  5776   0.125E+00    0.259E-01
RMM:   3    -0.952586394914E+02    0.11549E-02   -0.83174E-03  5902   0.340E-01    0.141E-01
RMM:   4    -0.952585600942E+02    0.79397E-04   -0.11531E-03  5700   0.125E-01    0.701E-02
RMM:   5    -0.952585745519E+02   -0.14458E-04   -0.97567E-05  3497   0.445E-02
   2 F= -.95258575E+02 E0= -.95258329E+02  d E =-.164238E-01
       N       E                     dE             d eps       ncg     rms          rms(c)
DAV:   1    -0.952617710453E+02   -0.32110E-02   -0.29556E-01  6736   0.299E+00    0.118E-01
RMM:   2    -0.952620110965E+02   -0.24005E-03   -0.57307E-03  5784   0.354E-01    0.752E-02
RMM:   3    -0.952619159952E+02    0.95101E-04   -0.61488E-04  5089   0.954E-02
   3 F= -.95261916E+02 E0= -.95261618E+02  d E =-.197652E-01
