 vasp.5.4.4.18Apr17-6-g9f103f2a35 (build Nov 01 2019 12:17:22) complex          
  
 executed on             LinuxIFC date 2023.05.19  18:18:47
 running on   16 total cores
 distrk:  each k-point on   16 cores,    1 groups
 distr:  one band on NCORES_PER_BAND=   4 cores,    4 groups


--------------------------------------------------------------------------------------------------------


 INCAR:
 POTCAR:    PAW_PBE N 08Apr2002                   
 POTCAR:    PAW_PBE Si 05Jan2001                  
 POTCAR:    PAW_PBE N 08Apr2002                   
   VRHFIN =N: s2p3                                                              
   LEXCH  = PE                                                                  
   EATOM  =   264.5486 eV,   19.4438 Ry                                         
                                                                                
   TITEL  = PAW_PBE N 08Apr2002                                                 
   LULTRA =        F    use ultrasoft PP ?                                      
   IUNSCR =        1    unscreen: 0-lin 1-nonlin 2-no                           
   RPACOR =    1.200    partial core radius                                     
   POMASS =   14.001; ZVAL   =    5.000    mass and valenz                      
   RCORE  =    1.500    outmost cutoff radius                                   
   RWIGS  =    1.400; RWIGS  =    0.741    wigner-seitz radius (au A)           
   ENMAX  =  400.000; ENMIN  =  300.000 eV                                      
   ICORE  =        2    local potential                                         
   LCOR   =        T    correct aug charges                                     
   LPAW   =        T    paw PP                                                  
   EAUG   =  627.112                                                            
   DEXC   =    0.000                                                            
   RMAX   =    1.529    core radius for proj-oper                               
   RAUG   =    1.300    factor for augmentation sphere                          
   RDEP   =    1.514    radius for radial grids                                 
   RDEPT  =    1.338    core radius for aug-charge                              
                                                                                
   Atomic configuration                                                         
    4 entries                                                                   
     n  l   j            E        occ.                                          
     1  0  0.50      -384.7179   2.0000                                         
     2  0  0.50       -18.5828   2.0000                                         
     2  1  0.50        -7.0898   3.0000                                         
     3  2  1.50        -6.8029   0.0000                                         
   Description                                                                  
     l       E           TYP  RCUT    TYP  RCUT                                 
     0    -18.5828119     23  1.200                                             
     0    -13.5018863     23  1.200                                             
     1     -7.0897853     23  1.500                                             
     1      9.5240782     23  1.500                                             
     2     -6.8029130      7  1.500                                             
  local pseudopotential read in
  partial core-charges read in
  partial kinetic energy density read in
  atomic valenz-charges read in
  non local Contribution for L=           0  read in
    real space projection operators read in
  non local Contribution for L=           0  read in
    real space projection operators read in
  non local Contribution for L=           1  read in
    real space projection operators read in
  non local Contribution for L=           1  read in
    real space projection operators read in
    PAW grid and wavefunctions read in
 
   number of l-projection  operators is LMAX  =           4
   number of lm-projection operators is LMMAX =           8
 
 POTCAR:    PAW_PBE Si 05Jan2001                  
   VRHFIN =Si: s2p2                                                             
   LEXCH  = PE                                                                  
   EATOM  =   103.0669 eV,    7.5752 Ry                                         
                                                                                
   TITEL  = PAW_PBE Si 05Jan2001                                                
   LULTRA =        F    use ultrasoft PP ?                                      
   IUNSCR =        1    unscreen: 0-lin 1-nonlin 2-no                           
   RPACOR =    1.500    partial core radius                                     
   POMASS =   28.085; ZVAL   =    4.000    mass and valenz                      
   RCORE  =    1.900    outmost cutoff radius                                   
   RWIGS  =    2.480; RWIGS  =    1.312    wigner-seitz radius (au A)           
   ENMAX  =  245.345; ENMIN  =  184.009 eV                                      
   ICORE  =        2    local potential                                         
   LCOR   =        T    correct aug charges                                     
   LPAW   =        T    paw PP                                                  
   EAUG   =  322.069                                                            
   DEXC   =    0.000                                                            
   RMAX   =    1.950    core radius for proj-oper                               
   RAUG   =    1.300    factor for augmentation sphere                          
   RDEP   =    1.993    radius for radial grids                                 
   RDEPT  =    1.837    core radius for aug-charge                              
                                                                                
   Atomic configuration                                                         
    6 entries                                                                   
     n  l   j            E        occ.                                          
     1  0  0.50     -1785.8828   2.0000                                         
     2  0  0.50      -139.4969   2.0000                                         
     2  1  1.50       -95.5546   6.0000                                         
     3  0  0.50       -10.8127   2.0000                                         
     3  1  0.50        -4.0811   2.0000                                         
     3  2  1.50        -4.0817   0.0000                                         
   Description                                                                  
     l       E           TYP  RCUT    TYP  RCUT                                 
     0    -10.8127223     23  1.900                                             
     0     -7.6451159     23  1.900                                             
     1     -4.0811372     23  1.900                                             
     1      2.4879257     23  1.900                                             
     2     -4.0817478      7  1.900                                             
  local pseudopotential read in
  partial core-charges read in
  partial kinetic energy density read in
  atomic valenz-charges read in
  non local Contribution for L=           0  read in
    real space projection operators read in
  non local Contribution for L=           0  read in
    real space projection operators read in
  non local Contribution for L=           1  read in
    real space projection operators read in
  non local Contribution for L=           1  read in
    real space projection operators read in
    PAW grid and wavefunctions read in
 
   number of l-projection  operators is LMAX  =           4
   number of lm-projection operators is LMMAX =           8
 
 Optimization of the real space projectors (new method)

 maximal supplied QI-value         = 25.13
 optimisation between [QCUT,QGAM] = [ 10.05, 20.36] = [ 28.30,116.06] Ry 
 Optimized for a Real-space Cutoff    1.70 Angstroem

   l    n(q)    QCUT    max X(q) W(low)/X(q) W(high)/X(q)  e(spline) 
   0     10    10.053    79.467    0.61E-04    0.98E-04    0.61E-06
   0     10    10.053    66.151    0.60E-04    0.98E-04    0.61E-06
   1     10    10.053     8.350    0.17E-03    0.71E-03    0.45E-05
   1     10    10.053     5.531    0.18E-03    0.77E-03    0.49E-05
 Optimization of the real space projectors (new method)

 maximal supplied QI-value         = 19.84
 optimisation between [QCUT,QGAM] = [ 10.12, 20.44] = [ 28.68,116.96] Ry 
 Optimized for a Real-space Cutoff    1.38 Angstroem

   l    n(q)    QCUT    max X(q) W(low)/X(q) W(high)/X(q)  e(spline) 
   0      8    10.119   159.560    0.58E-04    0.11E-03    0.54E-07
   0      8    10.119   115.863    0.56E-04    0.11E-03    0.54E-07
   1      8    10.119    88.339    0.22E-03    0.17E-03    0.19E-06
   1      8    10.119    48.592    0.22E-03    0.17E-03    0.18E-06
  PAW_PBE N 08Apr2002                   :
 energy of atom  1       EATOM= -264.5486
 kinetic energy error for atom=    0.0736 (will be added to EATOM!!)
  PAW_PBE Si 05Jan2001                  :
 energy of atom  2       EATOM= -103.0669
 kinetic energy error for atom=    0.0012 (will be added to EATOM!!)
 
 
 POSCAR: Si6 N8                                  
  positions in direct lattice
  No initial velocities read in
 exchange correlation table for  LEXCH =        8
   RHO(1)=    0.500       N(1)  =     2000
   RHO(2)=  100.500       N(2)  =     4000
 


--------------------------------------------------------------------------------------------------------


 ion  position               nearest neighbor table
   1  0.197  0.832  0.750-   9 1.84  10 1.85  10 1.85   7 2.12
   2  0.366  0.197  0.250-  10 1.84  12 1.85  12 1.85   8 2.12
   3  0.832  0.634  0.250-  11 1.84   9 1.85   9 1.85   8 2.12
   4  0.168  0.366  0.750-  12 1.84  13 1.85  13 1.85   7 2.12
   5  0.634  0.803  0.750-  14 1.84  11 1.85  11 1.85   7 2.12
   6  0.803  0.168  0.250-  13 1.84  14 1.85  14 1.85   8 2.12
   7  0.333  0.667  0.750-   5 2.12   4 2.12   1 2.12  11 2.74  11 2.74  13 2.74  13 2.74  10 2.74
                            10 2.74  12 2.81  14 2.81   9 2.81
   8  0.667  0.333  0.250-   2 2.12   3 2.12   6 2.12  12 2.74  12 2.74   9 2.74   9 2.74  14 2.74
                            14 2.74  11 2.81  10 2.81  13 2.81
   9  0.964  0.612  0.750-   1 1.84   3 1.85   3 1.85  13 2.61  13 2.61   8 2.74   8 2.74   7 2.81

  10  0.351  0.964  0.250-   2 1.84   1 1.85   1 1.85  14 2.61  14 2.61   7 2.74   7 2.74   8 2.81

  11  0.612  0.649  0.250-   3 1.84   5 1.85   5 1.85  12 2.61  12 2.61   7 2.74   7 2.74   8 2.81

  12  0.388  0.351  0.750-   4 1.84   2 1.85   2 1.85  11 2.61  11 2.61   8 2.74   8 2.74   7 2.81

  13  0.036  0.388  0.250-   6 1.84   4 1.85   4 1.85   9 2.61   9 2.61   7 2.74   7 2.74   8 2.81

  14  0.649  0.036  0.750-   5 1.84   6 1.85   6 1.85  10 2.61  10 2.61   8 2.74   8 2.74   7 2.81

 
  LATTYP: Found a hexagonal cell.
 ALAT       =     8.1212967708
 C/A-ratio  =     0.3517300815
  
  Lattice vectors:
  
 A1 = (   4.0606483907,  -7.0332493121,   0.0000000000)
 A2 = (   4.0606483801,   7.0332493182,   0.0000000000)
 A3 = (   0.0000000000,   0.0000000000,   2.8565043747)


Analysis of symmetry for initial positions (statically):
=====================================================================
 Subroutine PRICEL returns:
 Original cell was already a primitive cell.
 

 Routine SETGRP: Setting up the symmetry group for a 
 hexagonal supercell.


 Subroutine GETGRP returns: Found 12 space group operations
 (whereof  6 operations were pure point group operations)
 out of a pool of 24 trial point group operations.


The static configuration has the point symmetry S_6 .
 The point group associated with its full space group is C_6h.


Analysis of symmetry for dynamics (positions and initial velocities):
=====================================================================
 Subroutine PRICEL returns:
 Original cell was already a primitive cell.
 

 Routine SETGRP: Setting up the symmetry group for a 
 hexagonal supercell.


 Subroutine GETGRP returns: Found 12 space group operations
 (whereof  6 operations were pure point group operations)
 out of a pool of 24 trial point group operations.


The dynamic configuration has the point symmetry S_6 .
 The point group associated with its full space group is C_6h.


 Subroutine INISYM returns: Found 12 space group operations
 (whereof  6 operations are pure point group operations),
 and found     1 'primitive' translations

 
 
 KPOINTS: Automatic mesh                          

Automatic generation of k-mesh.
 generate k-points for:    6    6   16
Space group operators:
 irot       det(A)        alpha          n_x          n_y          n_z        tau_x        tau_y        tau_z
    1     1.000000     0.000000     1.000000     0.000000     0.000000     0.000000     0.000000     0.000000
    2    -1.000000     0.000000     1.000000     0.000000     0.000000     0.000000     0.000000     0.000000
    3     1.000000   120.000000     0.000000     0.000000    -1.000000     0.000000     0.000000     0.000000
    4    -1.000000   120.000000     0.000000     0.000000    -1.000000     0.000000     0.000000     0.000000
    5     1.000000   120.000000     0.000000     0.000000     1.000000     0.000000     0.000000     0.000000
    6    -1.000000   120.000000     0.000000     0.000000     1.000000     0.000000     0.000000     0.000000
    7     1.000000    60.000000     0.000000     0.000000    -1.000000     0.000000     0.000000     0.500000
    8    -1.000000    60.000000     0.000000     0.000000    -1.000000     0.000000     0.000000     0.500000
    9     1.000000   180.000000     0.000000     0.000000     1.000000     0.000000     0.000000     0.500000
   10    -1.000000   180.000000     0.000000     0.000000     1.000000     0.000000     0.000000     0.500000
   11     1.000000    60.000000     0.000000     0.000000     1.000000     0.000000     0.000000     0.500000
   12    -1.000000    60.000000     0.000000     0.000000     1.000000     0.000000     0.000000     0.500000
 
 Subroutine IBZKPT returns following result:
 ===========================================
 
 Found     72 irreducible k-points:
 
 Following reciprocal coordinates:
            Coordinates               Weight
  0.000000  0.000000  0.000000      1.000000
  0.166667  0.000000  0.000000      6.000000
  0.333333  0.000000  0.000000      6.000000
  0.500000  0.000000  0.000000      3.000000
  0.166667  0.166667  0.000000      6.000000
  0.333333  0.166667  0.000000      6.000000
  0.500000  0.166667  0.000000      6.000000
  0.333333  0.333333  0.000000      2.000000
  0.000000  0.000000  0.062500      2.000000
  0.166667  0.000000  0.062500     12.000000
  0.333333  0.000000  0.062500     12.000000
  0.500000  0.000000  0.062500      6.000000
  0.166667  0.166667  0.062500     12.000000
  0.333333  0.166667  0.062500     12.000000
  0.500000  0.166667  0.062500     12.000000
  0.333333  0.333333  0.062500      4.000000
  0.000000  0.000000  0.125000      2.000000
  0.166667  0.000000  0.125000     12.000000
  0.333333  0.000000  0.125000     12.000000
  0.500000  0.000000  0.125000      6.000000
  0.166667  0.166667  0.125000     12.000000
  0.333333  0.166667  0.125000     12.000000
  0.500000  0.166667  0.125000     12.000000
  0.333333  0.333333  0.125000      4.000000
  0.000000  0.000000  0.187500      2.000000
  0.166667  0.000000  0.187500     12.000000
  0.333333  0.000000  0.187500     12.000000
  0.500000  0.000000  0.187500      6.000000
  0.166667  0.166667  0.187500     12.000000
  0.333333  0.166667  0.187500     12.000000
  0.500000  0.166667  0.187500     12.000000
  0.333333  0.333333  0.187500      4.000000
  0.000000  0.000000  0.250000      2.000000
  0.166667  0.000000  0.250000     12.000000
  0.333333  0.000000  0.250000     12.000000
  0.500000  0.000000  0.250000      6.000000
  0.166667  0.166667  0.250000     12.000000
  0.333333  0.166667  0.250000     12.000000
  0.500000  0.166667  0.250000     12.000000
  0.333333  0.333333  0.250000      4.000000
  0.000000  0.000000  0.312500      2.000000
  0.166667  0.000000  0.312500     12.000000
  0.333333  0.000000  0.312500     12.000000
  0.500000  0.000000  0.312500      6.000000
  0.166667  0.166667  0.312500     12.000000
  0.333333  0.166667  0.312500     12.000000
  0.500000  0.166667  0.312500     12.000000
  0.333333  0.333333  0.312500      4.000000
  0.000000  0.000000  0.375000      2.000000
  0.166667  0.000000  0.375000     12.000000
  0.333333  0.000000  0.375000     12.000000
  0.500000  0.000000  0.375000      6.000000
  0.166667  0.166667  0.375000     12.000000
  0.333333  0.166667  0.375000     12.000000
  0.500000  0.166667  0.375000     12.000000
  0.333333  0.333333  0.375000      4.000000
  0.000000  0.000000  0.437500      2.000000
  0.166667  0.000000  0.437500     12.000000
  0.333333  0.000000  0.437500     12.000000
  0.500000  0.000000  0.437500      6.000000
  0.166667  0.166667  0.437500     12.000000
  0.333333  0.166667  0.437500     12.000000
  0.500000  0.166667  0.437500     12.000000
  0.333333  0.333333  0.437500      4.000000
  0.000000  0.000000  0.500000      1.000000
  0.166667  0.000000  0.500000      6.000000
  0.333333  0.000000  0.500000      6.000000
  0.500000  0.000000  0.500000      3.000000
  0.166667  0.166667  0.500000      6.000000
  0.333333  0.166667  0.500000      6.000000
  0.500000  0.166667  0.500000      6.000000
  0.333333  0.333333  0.500000      2.000000
 
 Following cartesian coordinates:
            Coordinates               Weight
  0.000000  0.000000  0.000000      1.000000
  0.020522 -0.011848  0.000000      6.000000
  0.041044 -0.023697  0.000000      6.000000
  0.061567 -0.035545  0.000000      3.000000
  0.041044  0.000000  0.000000      6.000000
  0.061567 -0.011848  0.000000      6.000000
  0.082089 -0.023697  0.000000      6.000000
  0.082089  0.000000  0.000000      2.000000
  0.000000  0.000000  0.021880      2.000000
  0.020522 -0.011848  0.021880     12.000000
  0.041044 -0.023697  0.021880     12.000000
  0.061567 -0.035545  0.021880      6.000000
  0.041044  0.000000  0.021880     12.000000
  0.061567 -0.011848  0.021880     12.000000
  0.082089 -0.023697  0.021880     12.000000
  0.082089  0.000000  0.021880      4.000000
  0.000000  0.000000  0.043760      2.000000
  0.020522 -0.011848  0.043760     12.000000
  0.041044 -0.023697  0.043760     12.000000
  0.061567 -0.035545  0.043760      6.000000
  0.041044  0.000000  0.043760     12.000000
  0.061567 -0.011848  0.043760     12.000000
  0.082089 -0.023697  0.043760     12.000000
  0.082089  0.000000  0.043760      4.000000
  0.000000  0.000000  0.065640      2.000000
  0.020522 -0.011848  0.065640     12.000000
  0.041044 -0.023697  0.065640     12.000000
  0.061567 -0.035545  0.065640      6.000000
  0.041044  0.000000  0.065640     12.000000
  0.061567 -0.011848  0.065640     12.000000
  0.082089 -0.023697  0.065640     12.000000
  0.082089  0.000000  0.065640      4.000000
  0.000000  0.000000  0.087520      2.000000
  0.020522 -0.011848  0.087520     12.000000
  0.041044 -0.023697  0.087520     12.000000
  0.061567 -0.035545  0.087520      6.000000
  0.041044  0.000000  0.087520     12.000000
  0.061567 -0.011848  0.087520     12.000000
  0.082089 -0.023697  0.087520     12.000000
  0.082089  0.000000  0.087520      4.000000
  0.000000  0.000000  0.109399      2.000000
  0.020522 -0.011848  0.109399     12.000000
  0.041044 -0.023697  0.109399     12.000000
  0.061567 -0.035545  0.109399      6.000000
  0.041044  0.000000  0.109399     12.000000
  0.061567 -0.011848  0.109399     12.000000
  0.082089 -0.023697  0.109399     12.000000
  0.082089  0.000000  0.109399      4.000000
  0.000000  0.000000  0.131279      2.000000
  0.020522 -0.011848  0.131279     12.000000
  0.041044 -0.023697  0.131279     12.000000
  0.061567 -0.035545  0.131279      6.000000
  0.041044  0.000000  0.131279     12.000000
  0.061567 -0.011848  0.131279     12.000000
  0.082089 -0.023697  0.131279     12.000000
  0.082089  0.000000  0.131279      4.000000
  0.000000  0.000000  0.153159      2.000000
  0.020522 -0.011848  0.153159     12.000000
  0.041044 -0.023697  0.153159     12.000000
  0.061567 -0.035545  0.153159      6.000000
  0.041044  0.000000  0.153159     12.000000
  0.061567 -0.011848  0.153159     12.000000
  0.082089 -0.023697  0.153159     12.000000
  0.082089  0.000000  0.153159      4.000000
  0.000000  0.000000  0.175039      1.000000
  0.020522 -0.011848  0.175039      6.000000
  0.041044 -0.023697  0.175039      6.000000
  0.061567 -0.035545  0.175039      3.000000
  0.041044  0.000000  0.175039      6.000000
  0.061567 -0.011848  0.175039      6.000000
  0.082089 -0.023697  0.175039      6.000000
  0.082089  0.000000  0.175039      2.000000
 


--------------------------------------------------------------------------------------------------------




 Dimension of arrays:
   k-points           NKPTS =     72   k-points in BZ     NKDIM =     72   number of bands    NBANDS=     40
   number of dos      NEDOS =    301   number of ions     NIONS =     14
   non local maximal  LDIM  =      4   non local SUM 2l+1 LMDIM =      8
   total plane-waves  NPLWV =  58320
   max r-space proj   IRMAX =   7378   max aug-charges    IRDMAX=  12149
   dimension x,y,z NGX =    54 NGY =   54 NGZ =   20
   dimension x,y,z NGXF=   108 NGYF=  108 NGZF=   40
   support grid    NGXF=   108 NGYF=  108 NGZF=   40
   ions per type =               6   8
   NGX,Y,Z   is equivalent  to a cutoff of  11.05, 11.05, 11.64 a.u.
   NGXF,Y,Z  is equivalent  to a cutoff of  22.11, 22.11, 23.28 a.u.

 SYSTEM =  unknown system                          
 POSCAR =  Si6 N8                                  

 Startparameter for this run:
   NWRITE =      2    write-flag & timer
   PREC   = accura    normal or accurate (medium, high low for compatibility)
   ISTART =      0    job   : 0-new  1-cont  2-samecut
   ICHARG =      2    charge: 1-file 2-atom 10-const
   ISPIN  =      1    spin polarized calculation?
   LNONCOLLINEAR =      F non collinear calculations
   LSORBIT =      F    spin-orbit coupling
   INIWAV =      1    electr: 0-lowe 1-rand  2-diag
   LASPH  =      F    aspherical Exc in radial PAW
   METAGGA=      F    non-selfconsistent MetaGGA calc.

 Electronic Relaxation 1
   ENCUT  =  400.0 eV  29.40 Ry    5.42 a.u.  13.24 13.24  4.66*2*pi/ulx,y,z
   ENINI  =  400.0     initial cutoff
   ENAUG  =  627.1 eV  augmentation charge cutoff
   NELM   =     60;   NELMIN=  2; NELMDL= -5     # of ELM steps 
   EDIFF  = 0.1E-03   stopping-criterion for ELM
   LREAL  =      T    real-space projection
   NLSPLINE    = F    spline interpolate recip. space projectors
   LCOMPAT=      F    compatible to vasp.4.4
   GGA_COMPAT  = T    GGA compatible to vasp.4.4-vasp.4.6
   LMAXPAW     = -100 max onsite density
   LMAXMIX     =    2 max onsite mixed and CHGCAR
   VOSKOWN=      0    Vosko Wilk Nusair interpolation
   ROPT   =   -0.00025  -0.00025
 Ionic relaxation
   EDIFFG = 0.1E-02   stopping-criterion for IOM
   NSW    =    100    number of steps for IOM
   NBLOCK =      1;   KBLOCK =    100    inner block; outer block 
   IBRION =      2    ionic relax: 0-MD 1-quasi-New 2-CG
   NFREE  =      1    steps in history (QN), initial steepest desc. (CG)
   ISIF   =      2    stress and relaxation
   IWAVPR =     11    prediction:  0-non 1-charg 2-wave 3-comb
   ISYM   =      2    0-nonsym 1-usesym 2-fastsym
   LCORR  =      T    Harris-Foulkes like correction to forces

   POTIM  = 0.5000    time-step for ionic-motion
   TEIN   =    0.0    initial temperature
   TEBEG  =    0.0;   TEEND  =   0.0 temperature during run
   SMASS  =  -3.00    Nose mass-parameter (am)
   estimated Nose-frequenzy (Omega)   =  0.10E-29 period in steps =****** mass=  -0.151E-26a.u.
   SCALEE = 1.0000    scale energy and forces
   NPACO  =    256;   APACO  = 16.0  distance and # of slots for P.C.
   PSTRESS=    0.0 pullay stress

  Mass of Ions in am
   POMASS =  14.00 28.09
  Ionic Valenz
   ZVAL   =   5.00  4.00
  Atomic Wigner-Seitz radii
   RWIGS  =  -1.00 -1.00
  virtual crystal weights 
   VCA    =   1.00  1.00
   NELECT =      62.0000    total number of electrons
   NUPDOWN=      -1.0000    fix difference up-down

 DOS related values:
   EMIN   =  10.00;   EMAX   =-10.00  energy-range for DOS
   EFERMI =   0.00
   ISMEAR =     2;   SIGMA  =   0.10  broadening in eV -4-tet -1-fermi 0-gaus

 Electronic relaxation 2 (details)
   IALGO  =     68    algorithm
   LDIAG  =      T    sub-space diagonalisation (order eigenvalues)
   LSUBROT=      F    optimize rotation matrix (better conditioning)
   TURBO    =      0    0=normal 1=particle mesh
   IRESTART =      0    0=no restart 2=restart with 2 vectors
   NREBOOT  =      0    no. of reboots
   NMIN     =      0    reboot dimension
   EREF     =   0.00    reference energy to select bands
   IMIX   =      4    mixing-type and parameters
     AMIX     =   0.40;   BMIX     =  1.00
     AMIX_MAG =   1.60;   BMIX_MAG =  1.00
     AMIN     =   0.10
     WC   =   100.;   INIMIX=   1;  MIXPRE=   1;  MAXMIX= -45

 Intra band minimization:
   WEIMIN = 0.0010     energy-eigenvalue tresh-hold
   EBREAK =  0.63E-06  absolut break condition
   DEPER  =   0.30     relativ break condition  

   TIME   =   0.40     timestep for ELM

  volume/ion in A,a.u.               =      11.65        78.65
  Fermi-wavevector in a.u.,A,eV,Ry     =   1.185769  2.240778 19.130435  1.406047
  Thomas-Fermi vector in A             =   2.321955
 
 Write flags
   LWAVE        =      F    write WAVECAR
   LDOWNSAMPLE  =      F    k-point downsampling of WAVECAR
   LCHARG       =      F    write CHGCAR
   LVTOT        =      F    write LOCPOT, total local potential
   LVHAR        =      F    write LOCPOT, Hartree potential only
   LELF         =      F    write electronic localiz. function (ELF)
   LORBIT       =      0    0 simple, 1 ext, 2 COOP (PROOUT), +10 PAW based schemes


 Dipole corrections
   LMONO  =      F    monopole corrections only (constant potential shift)
   LDIPOL =      F    correct potential (dipole corrections)
   IDIPOL =      0    1-x, 2-y, 3-z, 4-all directions 
   EPSILON=  1.0000000 bulk dielectric constant

 Exchange correlation treatment:
   GGA     =    --    GGA type
   LEXCH   =     8    internal setting for exchange type
   VOSKOWN=      0    Vosko Wilk Nusair interpolation
   LHFCALC =     F    Hartree Fock is set to
   LHFONE  =     F    Hartree Fock one center treatment
   AEXX    =    0.0000 exact exchange contribution

 Linear response parameters
   LEPSILON=     F    determine dielectric tensor
   LRPA    =     F    only Hartree local field effects (RPA)
   LNABLA  =     F    use nabla operator in PAW spheres
   LVEL    =     F    velocity operator in full k-point grid
   LINTERFAST=   F  fast interpolation
   KINTER  =     0    interpolate to denser k-point grid
   CSHIFT  =0.1000    complex shift for real part using Kramers Kronig
   OMEGAMAX=  -1.0    maximum frequency
   DEG_THRESHOLD= 0.2000000E-02 threshold for treating states as degnerate
   RTIME   =   -0.100 relaxation time in fs
  (WPLASMAI=    0.000 imaginary part of plasma frequency in eV, 0.658/RTIME)
   DFIELD  = 0.0000000 0.0000000 0.0000000 field for delta impulse in time
 
 Orbital magnetization related:
   ORBITALMAG=     F  switch on orbital magnetization
   LCHIMAG   =     F  perturbation theory with respect to B field
   DQ        =  0.001000  dq finite difference perturbation B field
   LLRAUG    =     F  two centre corrections for induced B field



--------------------------------------------------------------------------------------------------------


 conjugate gradient relaxation of ions
 charge density and potential will be updated during run
 non-spin polarized calculation
 RMM-DIIS sequential band-by-band and
  variant of blocked Davidson during initial phase
 perform sub-space diagonalisation
    before iterative eigenvector-optimisation
 modified Broyden-mixing scheme, WC =      100.0
 initial mixing is a Kerker type mixing with AMIX =  0.4000 and BMIX =      1.0000
 Hartree-type preconditioning will be used
 using additional bands            9
 real space projection scheme for non local part
 use partial core corrections
 calculate Harris-corrections to forces 
   (improved forces if not selfconsistent)
 use gradient corrections 
 use of overlap-Matrix (Vanderbilt PP)
 Methfessel and Paxton  Order N= 2 SIGMA  =   0.10


--------------------------------------------------------------------------------------------------------


  energy-cutoff  :      400.00
  volume of cell :      163.16
      direct lattice vectors                 reciprocal lattice vectors
     4.060648391 -7.033249312  0.000000000     0.123133045 -0.071090897  0.000000000
     4.060648380  7.033249318  0.000000000     0.123133045  0.071090897  0.000000000
     0.000000000  0.000000000  2.856504375     0.000000000  0.000000000  0.350078232

  length of vectors
     8.121296771  8.121296771  2.856504375     0.142181793  0.142181793  0.350078232


 
 k-points in units of 2pi/SCALE and weight: Automatic mesh                          
   0.00000000  0.00000000  0.00000000       0.002
   0.02052217 -0.01184848  0.00000000       0.010
   0.04104435 -0.02369697  0.00000000       0.010
   0.06156652 -0.03554545  0.00000000       0.005
   0.04104435  0.00000000  0.00000000       0.010
   0.06156652 -0.01184848  0.00000000       0.010
   0.08208870 -0.02369697  0.00000000       0.010
   0.08208870  0.00000000  0.00000000       0.003
   0.00000000  0.00000000  0.02187989       0.003
   0.02052217 -0.01184848  0.02187989       0.021
   0.04104435 -0.02369697  0.02187989       0.021
   0.06156652 -0.03554545  0.02187989       0.010
   0.04104435  0.00000000  0.02187989       0.021
   0.06156652 -0.01184848  0.02187989       0.021
   0.08208870 -0.02369697  0.02187989       0.021
   0.08208870  0.00000000  0.02187989       0.007
   0.00000000  0.00000000  0.04375978       0.003
   0.02052217 -0.01184848  0.04375978       0.021
   0.04104435 -0.02369697  0.04375978       0.021
   0.06156652 -0.03554545  0.04375978       0.010
   0.04104435  0.00000000  0.04375978       0.021
   0.06156652 -0.01184848  0.04375978       0.021
   0.08208870 -0.02369697  0.04375978       0.021
   0.08208870  0.00000000  0.04375978       0.007
   0.00000000  0.00000000  0.06563967       0.003
   0.02052217 -0.01184848  0.06563967       0.021
   0.04104435 -0.02369697  0.06563967       0.021
   0.06156652 -0.03554545  0.06563967       0.010
   0.04104435  0.00000000  0.06563967       0.021
   0.06156652 -0.01184848  0.06563967       0.021
   0.08208870 -0.02369697  0.06563967       0.021
   0.08208870  0.00000000  0.06563967       0.007
   0.00000000  0.00000000  0.08751956       0.003
   0.02052217 -0.01184848  0.08751956       0.021
   0.04104435 -0.02369697  0.08751956       0.021
   0.06156652 -0.03554545  0.08751956       0.010
   0.04104435  0.00000000  0.08751956       0.021
   0.06156652 -0.01184848  0.08751956       0.021
   0.08208870 -0.02369697  0.08751956       0.021
   0.08208870  0.00000000  0.08751956       0.007
   0.00000000  0.00000000  0.10939945       0.003
   0.02052217 -0.01184848  0.10939945       0.021
   0.04104435 -0.02369697  0.10939945       0.021
   0.06156652 -0.03554545  0.10939945       0.010
   0.04104435  0.00000000  0.10939945       0.021
   0.06156652 -0.01184848  0.10939945       0.021
   0.08208870 -0.02369697  0.10939945       0.021
   0.08208870  0.00000000  0.10939945       0.007
   0.00000000  0.00000000  0.13127934       0.003
   0.02052217 -0.01184848  0.13127934       0.021
   0.04104435 -0.02369697  0.13127934       0.021
   0.06156652 -0.03554545  0.13127934       0.010
   0.04104435  0.00000000  0.13127934       0.021
   0.06156652 -0.01184848  0.13127934       0.021
   0.08208870 -0.02369697  0.13127934       0.021
   0.08208870  0.00000000  0.13127934       0.007
   0.00000000  0.00000000  0.15315923       0.003
   0.02052217 -0.01184848  0.15315923       0.021
   0.04104435 -0.02369697  0.15315923       0.021
   0.06156652 -0.03554545  0.15315923       0.010
   0.04104435  0.00000000  0.15315923       0.021
   0.06156652 -0.01184848  0.15315923       0.021
   0.08208870 -0.02369697  0.15315923       0.021
   0.08208870  0.00000000  0.15315923       0.007
   0.00000000  0.00000000  0.17503912       0.002
   0.02052217 -0.01184848  0.17503912       0.010
   0.04104435 -0.02369697  0.17503912       0.010
   0.06156652 -0.03554545  0.17503912       0.005
   0.04104435  0.00000000  0.17503912       0.010
   0.06156652 -0.01184848  0.17503912       0.010
   0.08208870 -0.02369697  0.17503912       0.010
   0.08208870  0.00000000  0.17503912       0.003
 
 k-points in reciprocal lattice and weights: Automatic mesh                          
   0.00000000  0.00000000  0.00000000       0.002
   0.16666667  0.00000000  0.00000000       0.010
   0.33333333  0.00000000  0.00000000       0.010
   0.50000000  0.00000000  0.00000000       0.005
   0.16666667  0.16666667  0.00000000       0.010
   0.33333333  0.16666667  0.00000000       0.010
   0.50000000  0.16666667  0.00000000       0.010
   0.33333333  0.33333333  0.00000000       0.003
   0.00000000  0.00000000  0.06250000       0.003
   0.16666667  0.00000000  0.06250000       0.021
   0.33333333  0.00000000  0.06250000       0.021
   0.50000000  0.00000000  0.06250000       0.010
   0.16666667  0.16666667  0.06250000       0.021
   0.33333333  0.16666667  0.06250000       0.021
   0.50000000  0.16666667  0.06250000       0.021
   0.33333333  0.33333333  0.06250000       0.007
   0.00000000  0.00000000  0.12500000       0.003
   0.16666667  0.00000000  0.12500000       0.021
   0.33333333  0.00000000  0.12500000       0.021
   0.50000000  0.00000000  0.12500000       0.010
   0.16666667  0.16666667  0.12500000       0.021
   0.33333333  0.16666667  0.12500000       0.021
   0.50000000  0.16666667  0.12500000       0.021
   0.33333333  0.33333333  0.12500000       0.007
   0.00000000  0.00000000  0.18750000       0.003
   0.16666667  0.00000000  0.18750000       0.021
   0.33333333  0.00000000  0.18750000       0.021
   0.50000000  0.00000000  0.18750000       0.010
   0.16666667  0.16666667  0.18750000       0.021
   0.33333333  0.16666667  0.18750000       0.021
   0.50000000  0.16666667  0.18750000       0.021
   0.33333333  0.33333333  0.18750000       0.007
   0.00000000  0.00000000  0.25000000       0.003
   0.16666667  0.00000000  0.25000000       0.021
   0.33333333  0.00000000  0.25000000       0.021
   0.50000000  0.00000000  0.25000000       0.010
   0.16666667  0.16666667  0.25000000       0.021
   0.33333333  0.16666667  0.25000000       0.021
   0.50000000  0.16666667  0.25000000       0.021
   0.33333333  0.33333333  0.25000000       0.007
   0.00000000  0.00000000  0.31250000       0.003
   0.16666667  0.00000000  0.31250000       0.021
   0.33333333  0.00000000  0.31250000       0.021
   0.50000000  0.00000000  0.31250000       0.010
   0.16666667  0.16666667  0.31250000       0.021
   0.33333333  0.16666667  0.31250000       0.021
   0.50000000  0.16666667  0.31250000       0.021
   0.33333333  0.33333333  0.31250000       0.007
   0.00000000  0.00000000  0.37500000       0.003
   0.16666667  0.00000000  0.37500000       0.021
   0.33333333  0.00000000  0.37500000       0.021
   0.50000000  0.00000000  0.37500000       0.010
   0.16666667  0.16666667  0.37500000       0.021
   0.33333333  0.16666667  0.37500000       0.021
   0.50000000  0.16666667  0.37500000       0.021
   0.33333333  0.33333333  0.37500000       0.007
   0.00000000  0.00000000  0.43750000       0.003
   0.16666667  0.00000000  0.43750000       0.021
   0.33333333  0.00000000  0.43750000       0.021
   0.50000000  0.00000000  0.43750000       0.010
   0.16666667  0.16666667  0.43750000       0.021
   0.33333333  0.16666667  0.43750000       0.021
   0.50000000  0.16666667  0.43750000       0.021
   0.33333333  0.33333333  0.43750000       0.007
   0.00000000  0.00000000  0.50000000       0.002
   0.16666667  0.00000000  0.50000000       0.010
   0.33333333  0.00000000  0.50000000       0.010
   0.50000000  0.00000000  0.50000000       0.005
   0.16666667  0.16666667  0.50000000       0.010
   0.33333333  0.16666667  0.50000000       0.010
   0.50000000  0.16666667  0.50000000       0.010
   0.33333333  0.33333333  0.50000000       0.003
 
 position of ions in fractional coordinates (direct lattice) 
   0.19708959  0.83151770  0.75000000
   0.36557189  0.19708959  0.25000000
   0.83151770  0.63442811  0.25000000
   0.16848230  0.36557189  0.75000000
   0.63442811  0.80291041  0.75000000
   0.80291041  0.16848230  0.25000000
   0.33333333  0.66666667  0.75000000
   0.66666667  0.33333333  0.25000000
   0.96358754  0.61246345  0.75000000
   0.35112409  0.96358754  0.25000000
   0.61246345  0.64887591  0.25000000
   0.38753655  0.35112409  0.75000000
   0.03641246  0.38753655  0.25000000
   0.64887591  0.03641246  0.75000000
 
 position of ions in cartesian coordinates  (Angst):
   4.17681255  4.46209107  2.14237828
   2.28477044 -1.18497800  0.71412609
   5.95269050 -1.38618024  0.71412609
   2.16860627  1.38618024  2.14237828
   5.83652633  1.18497801  2.14237828
   3.94448422 -4.46209107  0.71412609
   4.06064838  2.34441644  2.14237828
   4.06064839 -2.34441644  0.71412609
   6.39978891 -2.46954327  2.14237828
   5.33858166  4.30760814  0.71412609
   5.12185563  0.25609791  0.71412609
   2.99944114 -0.25609790  2.14237828
   1.72150786  2.46954327  0.71412609
   2.78271511 -4.30760814  2.14237828
 


--------------------------------------------------------------------------------------------------------


 k-point  1 :   0.0000 0.0000 0.0000  plane waves:    2943
 k-point  2 :   0.1667 0.0000 0.0000  plane waves:    2959
 k-point  3 :   0.3333 0.0000 0.0000  plane waves:    2979
 k-point  4 :   0.5000 0.0000 0.0000  plane waves:    2984
 k-point  5 :   0.1667 0.1667 0.0000  plane waves:    2969
 k-point  6 :   0.3333 0.1667 0.0000  plane waves:    2982
 k-point  7 :   0.5000 0.1667 0.0000  plane waves:    2982
 k-point  8 :   0.3333 0.3333 0.0000  plane waves:    2991
 k-point  9 :   0.0000 0.0000 0.0625  plane waves:    2961
 k-point 10 :   0.1667 0.0000 0.0625  plane waves:    2967
 k-point 11 :   0.3333 0.0000 0.0625  plane waves:    2974
 k-point 12 :   0.5000 0.0000 0.0625  plane waves:    2966
 k-point 13 :   0.1667 0.1667 0.0625  plane waves:    2975
 k-point 14 :   0.3333 0.1667 0.0625  plane waves:    2983
 k-point 15 :   0.5000 0.1667 0.0625  plane waves:    2983
 k-point 16 :   0.3333 0.3333 0.0625  plane waves:    2988
 k-point 17 :   0.0000 0.0000 0.1250  plane waves:    2955
 k-point 18 :   0.1667 0.0000 0.1250  plane waves:    2969
 k-point 19 :   0.3333 0.0000 0.1250  plane waves:    2982
 k-point 20 :   0.5000 0.0000 0.1250  plane waves:    2970
 k-point 21 :   0.1667 0.1667 0.1250  plane waves:    2971
 k-point 22 :   0.3333 0.1667 0.1250  plane waves:    2975
 k-point 23 :   0.5000 0.1667 0.1250  plane waves:    2975
 k-point 24 :   0.3333 0.3333 0.1250  plane waves:    2973
 k-point 25 :   0.0000 0.0000 0.1875  plane waves:    2961
 k-point 26 :   0.1667 0.0000 0.1875  plane waves:    2965
 k-point 27 :   0.3333 0.0000 0.1875  plane waves:    2964
 k-point 28 :   0.5000 0.0000 0.1875  plane waves:    2984
 k-point 29 :   0.1667 0.1667 0.1875  plane waves:    2966
 k-point 30 :   0.3333 0.1667 0.1875  plane waves:    2970
 k-point 31 :   0.5000 0.1667 0.1875  plane waves:    2970
 k-point 32 :   0.3333 0.3333 0.1875  plane waves:    2973
 k-point 33 :   0.0000 0.0000 0.2500  plane waves:    2979
 k-point 34 :   0.1667 0.0000 0.2500  plane waves:    2965
 k-point 35 :   0.3333 0.0000 0.2500  plane waves:    2960
 k-point 36 :   0.5000 0.0000 0.2500  plane waves:    2960
 k-point 37 :   0.1667 0.1667 0.2500  plane waves:    2963
 k-point 38 :   0.3333 0.1667 0.2500  plane waves:    2963
 k-point 39 :   0.5000 0.1667 0.2500  plane waves:    2963
 k-point 40 :   0.3333 0.3333 0.2500  plane waves:    2958
 k-point 41 :   0.0000 0.0000 0.3125  plane waves:    2961
 k-point 42 :   0.1667 0.0000 0.3125  plane waves:    2951
 k-point 43 :   0.3333 0.0000 0.3125  plane waves:    2962
 k-point 44 :   0.5000 0.0000 0.3125  plane waves:    2966
 k-point 45 :   0.1667 0.1667 0.3125  plane waves:    2962
 k-point 46 :   0.3333 0.1667 0.3125  plane waves:    2955
 k-point 47 :   0.5000 0.1667 0.3125  plane waves:    2955
 k-point 48 :   0.3333 0.3333 0.3125  plane waves:    2928
 k-point 49 :   0.0000 0.0000 0.3750  plane waves:    2950
 k-point 50 :   0.1667 0.0000 0.3750  plane waves:    2962
 k-point 51 :   0.3333 0.0000 0.3750  plane waves:    2964
 k-point 52 :   0.5000 0.0000 0.3750  plane waves:    2948
 k-point 53 :   0.1667 0.1667 0.3750  plane waves:    2955
 k-point 54 :   0.3333 0.1667 0.3750  plane waves:    2948
 k-point 55 :   0.5000 0.1667 0.3750  plane waves:    2948
 k-point 56 :   0.3333 0.3333 0.3750  plane waves:    2934
 k-point 57 :   0.0000 0.0000 0.4375  plane waves:    2962
 k-point 58 :   0.1667 0.0000 0.4375  plane waves:    2965
 k-point 59 :   0.3333 0.0000 0.4375  plane waves:    2957
 k-point 60 :   0.5000 0.0000 0.4375  plane waves:    2954
 k-point 61 :   0.1667 0.1667 0.4375  plane waves:    2959
 k-point 62 :   0.3333 0.1667 0.4375  plane waves:    2951
 k-point 63 :   0.5000 0.1667 0.4375  plane waves:    2951
 k-point 64 :   0.3333 0.3333 0.4375  plane waves:    2952
 k-point 65 :   0.0000 0.0000 0.5000  plane waves:    2998
 k-point 66 :   0.1667 0.0000 0.5000  plane waves:    2954
 k-point 67 :   0.3333 0.0000 0.5000  plane waves:    2964
 k-point 68 :   0.5000 0.0000 0.5000  plane waves:    2968
 k-point 69 :   0.1667 0.1667 0.5000  plane waves:    2950
 k-point 70 :   0.3333 0.1667 0.5000  plane waves:    2956
 k-point 71 :   0.5000 0.1667 0.5000  plane waves:    2956
 k-point 72 :   0.3333 0.3333 0.5000  plane waves:    2946

 maximum and minimum number of plane-waves per node :       774      725

 maximum number of plane-waves:      2998
 maximum index in each direction: 
   IXMAX=   13   IYMAX=   13   IZMAX=    4
   IXMIN=  -13   IYMIN=  -13   IZMIN=   -5


 real space projection operators:
  total allocation   :       4584.88 KBytes
  max/ min on nodes  :       1186.50       1107.50


 parallel 3D FFT for wavefunctions:
    minimum data exchange during FFTs selected (reduces bandwidth)
 parallel 3D FFT for charge:
    minimum data exchange during FFTs selected (reduces bandwidth)


 total amount of memory used by VASP MPI-rank0    46176. kBytes
=======================================================================

   base      :      30000. kBytes
   nonlr-proj:       3203. kBytes
   fftplans  :       1514. kBytes
   grid      :       2370. kBytes
   one-center:         12. kBytes
   wavefun   :       9077. kBytes
 
     INWAV:  cpu time    0.0001: real time    0.0001
 Broyden mixing: mesh for mixing (old mesh)
   NGX = 27   NGY = 27   NGZ =  9
  (NGX  =108   NGY  =108   NGZ  = 40)
  gives a total of   6561 points

 initial charge density was supplied:
 charge density of overlapping atoms calculated
 number of electron      62.0000000 magnetization 
 keeping initial charge density in first step


--------------------------------------------------------------------------------------------------------


 Maximum index for non-local projection operator         1879
 Maximum index for augmentation-charges          948 (set IRDMAX)


--------------------------------------------------------------------------------------------------------


 First call to EWALD:  gamma=   0.324
 Maximum number of real-space cells 2x 2x 5
 Maximum number of reciprocal cells 4x 4x 2

    FEWALD:  cpu time    0.0021: real time    0.0022


--------------------------------------- Iteration      1(   1)  ---------------------------------------


    POTLOK:  cpu time    0.0696: real time    0.0714
    SETDIJ:  cpu time    0.0921: real time    0.0921
     EDDAV:  cpu time    3.0299: real time    3.0310
       DOS:  cpu time    0.0026: real time    0.0026
    --------------------------------------------
      LOOP:  cpu time    3.1942: real time    3.1971

 eigenvalue-minimisations  :  5816
 total energy-change (2. order) : 0.2249864E+03  (-0.2520641E+04)
 number of electron      62.0000000 magnetization 
 augmentation part       62.0000000 magnetization 

 Free energy of the ion-electron system (eV)
  ---------------------------------------------------
  alpha Z        PSCENC =        74.71473658
  Ewald energy   TEWEN  =     -2202.06396803
  -Hartree energ DENC   =      -525.41983799
  -exchange      EXHF   =         0.00000000
  -V(xc)+E(xc)   XCENC  =        50.93659099
  PAW double counting   =      1934.58678659    -1800.98643654
  entropy T*S    EENTRO =        -0.00166141
  eigenvalues    EBANDS =       281.84424670
  atomic energy  EATOM  =      2411.37598431
  Solvation  Ediel_sol  =         0.00000000
  ---------------------------------------------------
  free energy    TOTEN  =       224.98644119 eV

  energy without entropy =      224.98810261  energy(sigma->0) =      224.98685655


--------------------------------------------------------------------------------------------------------




--------------------------------------- Iteration      1(   2)  ---------------------------------------


     EDDAV:  cpu time    3.0071: real time    3.0082
       DOS:  cpu time    0.0031: real time    0.0031
    --------------------------------------------
      LOOP:  cpu time    3.0102: real time    3.0113

 eigenvalue-minimisations  :  7256
 total energy-change (2. order) :-0.3059742E+03  (-0.2931171E+03)
 number of electron      62.0000000 magnetization 
 augmentation part       62.0000000 magnetization 

 Free energy of the ion-electron system (eV)
  ---------------------------------------------------
  alpha Z        PSCENC =        74.71473658
  Ewald energy   TEWEN  =     -2202.06396803
  -Hartree energ DENC   =      -525.41983799
  -exchange      EXHF   =         0.00000000
  -V(xc)+E(xc)   XCENC  =        50.93659099
  PAW double counting   =      1934.58678659    -1800.98643654
  entropy T*S    EENTRO =         0.00100894
  eigenvalues    EBANDS =       -24.13261292
  atomic energy  EATOM  =      2411.37598431
  Solvation  Ediel_sol  =         0.00000000
  ---------------------------------------------------
  free energy    TOTEN  =       -80.98774807 eV

  energy without entropy =      -80.98875701  energy(sigma->0) =      -80.98800030


--------------------------------------------------------------------------------------------------------




--------------------------------------- Iteration      1(   3)  ---------------------------------------


     EDDAV:  cpu time    9.6876: real time    9.6848
       DOS:  cpu time    0.0029: real time    0.0029
    --------------------------------------------
      LOOP:  cpu time    9.6905: real time    9.6877

 eigenvalue-minimisations  :  7304
 total energy-change (2. order) :-0.2266400E+02  (-0.2222262E+02)
 number of electron      62.0000000 magnetization 
 augmentation part       62.0000000 magnetization 

 Free energy of the ion-electron system (eV)
  ---------------------------------------------------
  alpha Z        PSCENC =        74.71473658
  Ewald energy   TEWEN  =     -2202.06396803
  -Hartree energ DENC   =      -525.41983799
  -exchange      EXHF   =         0.00000000
  -V(xc)+E(xc)   XCENC  =        50.93659099
  PAW double counting   =      1934.58678659    -1800.98643654
  entropy T*S    EENTRO =        -0.00175327
  eigenvalues    EBANDS =       -46.79385457
  atomic energy  EATOM  =      2411.37598431
  Solvation  Ediel_sol  =         0.00000000
  ---------------------------------------------------
  free energy    TOTEN  =      -103.65175192 eV

  energy without entropy =     -103.64999866  energy(sigma->0) =     -103.65131361


--------------------------------------------------------------------------------------------------------




--------------------------------------- Iteration      1(   4)  ---------------------------------------


     EDDAV:  cpu time    8.3778: real time    8.3779
       DOS:  cpu time    0.0030: real time    0.0030
    --------------------------------------------
      LOOP:  cpu time    8.3808: real time    8.3809

 eigenvalue-minimisations  :  7360
 total energy-change (2. order) :-0.5671413E+00  (-0.5628421E+00)
 number of electron      62.0000000 magnetization 
 augmentation part       62.0000000 magnetization 

 Free energy of the ion-electron system (eV)
  ---------------------------------------------------
  alpha Z        PSCENC =        74.71473658
  Ewald energy   TEWEN  =     -2202.06396803
  -Hartree energ DENC   =      -525.41983799
  -exchange      EXHF   =         0.00000000
  -V(xc)+E(xc)   XCENC  =        50.93659099
  PAW double counting   =      1934.58678659    -1800.98643654
  entropy T*S    EENTRO =        -0.00048578
  eigenvalues    EBANDS =       -47.36226331
  atomic energy  EATOM  =      2411.37598431
  Solvation  Ediel_sol  =         0.00000000
  ---------------------------------------------------
  free energy    TOTEN  =      -104.21889318 eV

  energy without entropy =     -104.21840740  energy(sigma->0) =     -104.21877173


--------------------------------------------------------------------------------------------------------




--------------------------------------- Iteration      1(   5)  ---------------------------------------


     EDDAV:  cpu time    2.9392: real time    2.9395
       DOS:  cpu time    0.0032: real time    0.0032
    CHARGE:  cpu time    0.1465: real time    0.1465
    MIXING:  cpu time    0.0007: real time    0.0007
    --------------------------------------------
      LOOP:  cpu time    3.0896: real time    3.0899

 eigenvalue-minimisations  :  7336
 total energy-change (2. order) :-0.1367116E-01  (-0.1366165E-01)
 number of electron      62.0000003 magnetization 
 augmentation part        0.3488905 magnetization 

 Broyden mixing:
  rms(total) = 0.22090E+01    rms(broyden)= 0.22085E+01
  rms(prec ) = 0.32612E+01
  weight for this iteration     100.00

 Free energy of the ion-electron system (eV)
  ---------------------------------------------------
  alpha Z        PSCENC =        74.71473658
  Ewald energy   TEWEN  =     -2202.06396803
  -Hartree energ DENC   =      -525.41983799
  -exchange      EXHF   =         0.00000000
  -V(xc)+E(xc)   XCENC  =        50.93659099
  PAW double counting   =      1934.58678659    -1800.98643654
  entropy T*S    EENTRO =        -0.00043453
  eigenvalues    EBANDS =       -47.37598572
  atomic energy  EATOM  =      2411.37598431
  Solvation  Ediel_sol  =         0.00000000
  ---------------------------------------------------
  free energy    TOTEN  =      -104.23256433 eV

  energy without entropy =     -104.23212980  energy(sigma->0) =     -104.23245570


--------------------------------------------------------------------------------------------------------




--------------------------------------- Iteration      1(   6)  ---------------------------------------


    POTLOK:  cpu time    0.0201: real time    0.0220
    SETDIJ:  cpu time    0.0027: real time    0.0028
    EDDIAG:  cpu time    0.3803: real time    0.3803
  RMM-DIIS:  cpu time    1.7492: real time    1.7492
    ORTHCH:  cpu time    0.0353: real time    0.0353
       DOS:  cpu time    0.0028: real time    0.0028
    CHARGE:  cpu time    0.1518: real time    0.1518
    MIXING:  cpu time    0.0007: real time    0.0007
    --------------------------------------------
      LOOP:  cpu time    2.3430: real time    2.3448

 eigenvalue-minimisations  :  5760
 total energy-change (2. order) : 0.8433079E+01  (-0.4681863E+01)
 number of electron      62.0000000 magnetization 
 augmentation part       -0.4186733 magnetization 

 Broyden mixing:
  rms(total) = 0.10074E+01    rms(broyden)= 0.10068E+01
  rms(prec ) = 0.12092E+01
  weight for this iteration     100.00

 eigenvalues of (default mixing * dielectric matrix)
  average eigenvalue GAMMA=   1.0083
  1.0083

 Free energy of the ion-electron system (eV)
  ---------------------------------------------------
  alpha Z        PSCENC =        74.71473658
  Ewald energy   TEWEN  =     -2202.06396803
  -Hartree energ DENC   =      -603.58703017
  -exchange      EXHF   =         0.00000000
  -V(xc)+E(xc)   XCENC  =        56.45972950
  PAW double counting   =      3669.83127858    -3536.99776657
  entropy T*S    EENTRO =        -0.00114535
  eigenvalues    EBANDS =        34.46869572
  atomic energy  EATOM  =      2411.37598431
  Solvation  Ediel_sol  =         0.00000000
  ---------------------------------------------------
  free energy    TOTEN  =       -95.79948544 eV

  energy without entropy =      -95.79834009  energy(sigma->0) =      -95.79919910


--------------------------------------------------------------------------------------------------------




--------------------------------------- Iteration      1(   7)  ---------------------------------------


    POTLOK:  cpu time    0.0191: real time    0.0208
    SETDIJ:  cpu time    0.0023: real time    0.0023
    EDDIAG:  cpu time    0.3757: real time    0.3757
  RMM-DIIS:  cpu time    1.7633: real time    1.7633
    ORTHCH:  cpu time    0.0353: real time    0.0353
       DOS:  cpu time    0.0028: real time    0.0028
    CHARGE:  cpu time    0.1541: real time    0.1542
    MIXING:  cpu time    0.0007: real time    0.0007
    --------------------------------------------
      LOOP:  cpu time    2.3533: real time    2.3551

 eigenvalue-minimisations  :  5817
 total energy-change (2. order) : 0.4558180E+00  (-0.1089900E+00)
 number of electron      62.0000000 magnetization 
 augmentation part       -0.4110817 magnetization 

 Broyden mixing:
  rms(total) = 0.57407E+00    rms(broyden)= 0.57405E+00
  rms(prec ) = 0.67814E+00
  weight for this iteration     100.00

 eigenvalues of (default mixing * dielectric matrix)
  average eigenvalue GAMMA=   1.5595
  0.9989  2.1201

 Free energy of the ion-electron system (eV)
  ---------------------------------------------------
  alpha Z        PSCENC =        74.71473658
  Ewald energy   TEWEN  =     -2202.06396803
  -Hartree energ DENC   =      -602.81979746
  -exchange      EXHF   =         0.00000000
  -V(xc)+E(xc)   XCENC  =        56.60497500
  PAW double counting   =      4941.89496571    -4809.25673196
  entropy T*S    EENTRO =        -0.00039607
  eigenvalues    EBANDS =        34.20656447
  atomic energy  EATOM  =      2411.37598431
  Solvation  Ediel_sol  =         0.00000000
  ---------------------------------------------------
  free energy    TOTEN  =       -95.34366745 eV

  energy without entropy =      -95.34327138  energy(sigma->0) =      -95.34356843


--------------------------------------------------------------------------------------------------------




--------------------------------------- Iteration      1(   8)  ---------------------------------------


    POTLOK:  cpu time    0.0189: real time    0.0219
    SETDIJ:  cpu time    0.0022: real time    0.0022
    EDDIAG:  cpu time    0.3749: real time    0.3750
  RMM-DIIS:  cpu time    1.7522: real time    1.7521
    ORTHCH:  cpu time    0.0378: real time    0.0378
       DOS:  cpu time    0.0030: real time    0.0030
    CHARGE:  cpu time    0.1550: real time    0.1550
    MIXING:  cpu time    0.0007: real time    0.0007
    --------------------------------------------
      LOOP:  cpu time    2.3447: real time    2.3476

 eigenvalue-minimisations  :  5773
 total energy-change (2. order) : 0.8286806E-01  (-0.6631540E-01)
 number of electron      62.0000001 magnetization 
 augmentation part       -0.3657193 magnetization 

 Broyden mixing:
  rms(total) = 0.95495E-01    rms(broyden)= 0.95417E-01
  rms(prec ) = 0.17270E+00
  weight for this iteration     100.00

 eigenvalues of (default mixing * dielectric matrix)
  average eigenvalue GAMMA=   1.4928
  2.3444  1.0670  1.0670

 Free energy of the ion-electron system (eV)
  ---------------------------------------------------
  alpha Z        PSCENC =        74.71473658
  Ewald energy   TEWEN  =     -2202.06396803
  -Hartree energ DENC   =      -605.21208213
  -exchange      EXHF   =         0.00000000
  -V(xc)+E(xc)   XCENC  =        57.07032432
  PAW double counting   =      6846.04267125    -6713.67970312
  entropy T*S    EENTRO =        -0.00190936
  eigenvalues    EBANDS =        36.49314680
  atomic energy  EATOM  =      2411.37598431
  Solvation  Ediel_sol  =         0.00000000
  ---------------------------------------------------
  free energy    TOTEN  =       -95.26079939 eV

  energy without entropy =      -95.25889003  energy(sigma->0) =      -95.26032205


--------------------------------------------------------------------------------------------------------




--------------------------------------- Iteration      1(   9)  ---------------------------------------


    POTLOK:  cpu time    0.0188: real time    0.0206
    SETDIJ:  cpu time    0.0022: real time    0.0022
    EDDIAG:  cpu time    0.3724: real time    0.3724
  RMM-DIIS:  cpu time    1.7566: real time    1.7566
    ORTHCH:  cpu time    0.0360: real time    0.0360
       DOS:  cpu time    0.0028: real time    0.0028
    CHARGE:  cpu time    0.1507: real time    0.1507
    MIXING:  cpu time    0.0006: real time    0.0006
    --------------------------------------------
      LOOP:  cpu time    2.3401: real time    2.3420

 eigenvalue-minimisations  :  5797
 total energy-change (2. order) : 0.1771337E-01  (-0.1847520E-01)
 number of electron      62.0000001 magnetization 
 augmentation part       -0.4146962 magnetization 

 Broyden mixing:
  rms(total) = 0.51288E-01    rms(broyden)= 0.51255E-01
  rms(prec ) = 0.71680E-01
  weight for this iteration     100.00

 eigenvalues of (default mixing * dielectric matrix)
  average eigenvalue GAMMA=   1.6618
  2.3461  2.3461  0.9775  0.9775

 Free energy of the ion-electron system (eV)
  ---------------------------------------------------
  alpha Z        PSCENC =        74.71473658
  Ewald energy   TEWEN  =     -2202.06396803
  -Hartree energ DENC   =      -611.64495460
  -exchange      EXHF   =         0.00000000
  -V(xc)+E(xc)   XCENC  =        57.54293298
  PAW double counting   =      7058.71678399    -6926.41687134
  entropy T*S    EENTRO =        -0.00089212
  eigenvalues    EBANDS =        42.53316221
  atomic energy  EATOM  =      2411.37598431
  Solvation  Ediel_sol  =         0.00000000
  ---------------------------------------------------
  free energy    TOTEN  =       -95.24308602 eV

  energy without entropy =      -95.24219390  energy(sigma->0) =      -95.24286299


--------------------------------------------------------------------------------------------------------




--------------------------------------- Iteration      1(  10)  ---------------------------------------


    POTLOK:  cpu time    0.4145: real time    0.8344
    SETDIJ:  cpu time    0.0388: real time    0.0777
    EDDIAG:  cpu time    3.3048: real time    6.3268
  RMM-DIIS:  cpu time    2.9700: real time    2.9673
    ORTHCH:  cpu time    4.6555: real time    4.6511
       DOS:  cpu time    0.0030: real time    0.0030
    CHARGE:  cpu time    0.8817: real time    0.8810
    MIXING:  cpu time    0.2731: real time    0.2728
    --------------------------------------------
      LOOP:  cpu time   12.5415: real time   16.0142

 eigenvalue-minimisations  :  5778
 total energy-change (2. order) : 0.1557125E-02  (-0.1149447E-02)
 number of electron      62.0000001 magnetization 
 augmentation part       -0.4075054 magnetization 

 Broyden mixing:
  rms(total) = 0.13536E-01    rms(broyden)= 0.13535E-01
  rms(prec ) = 0.22410E-01
  weight for this iteration     100.00

 eigenvalues of (default mixing * dielectric matrix)
  average eigenvalue GAMMA=   1.6483
  2.5159  2.5159  1.0062  1.0062  1.1976

 Free energy of the ion-electron system (eV)
  ---------------------------------------------------
  alpha Z        PSCENC =        74.71473658
  Ewald energy   TEWEN  =     -2202.06396803
  -Hartree energ DENC   =      -610.57582412
  -exchange      EXHF   =         0.00000000
  -V(xc)+E(xc)   XCENC  =        57.46334827
  PAW double counting   =      6926.78927328    -6794.47692800
  entropy T*S    EENTRO =        -0.00103221
  eigenvalues    EBANDS =        41.53288102
  atomic energy  EATOM  =      2411.37598431
  Solvation  Ediel_sol  =         0.00000000
  ---------------------------------------------------
  free energy    TOTEN  =       -95.24152890 eV

  energy without entropy =      -95.24049669  energy(sigma->0) =      -95.24127084


--------------------------------------------------------------------------------------------------------




--------------------------------------- Iteration      1(  11)  ---------------------------------------


    POTLOK:  cpu time    0.9061: real time    0.9053
    SETDIJ:  cpu time    0.0905: real time    0.0906
    EDDIAG:  cpu time   41.2588: real time   41.2282
  RMM-DIIS:  cpu time   95.7259: real time   95.6548
    ORTHCH:  cpu time    0.0372: real time    0.0372
       DOS:  cpu time    0.0028: real time    0.0028
    CHARGE:  cpu time    0.1534: real time    0.1534
    MIXING:  cpu time    0.0007: real time    0.0007
    --------------------------------------------
      LOOP:  cpu time  138.1754: real time  138.0731

 eigenvalue-minimisations  :  5798
 total energy-change (2. order) :-0.6733439E-03  (-0.4786777E-03)
 number of electron      62.0000001 magnetization 
 augmentation part       -0.4010306 magnetization 

 Broyden mixing:
  rms(total) = 0.94843E-02    rms(broyden)= 0.94784E-02
  rms(prec ) = 0.14537E-01
  weight for this iteration     100.00

 eigenvalues of (default mixing * dielectric matrix)
  average eigenvalue GAMMA=   1.6907
  2.7808  2.4212  2.0174  0.9881  0.9881  0.9484

 Free energy of the ion-electron system (eV)
  ---------------------------------------------------
  alpha Z        PSCENC =        74.71473658
  Ewald energy   TEWEN  =     -2202.06396803
  -Hartree energ DENC   =      -610.43764273
  -exchange      EXHF   =         0.00000000
  -V(xc)+E(xc)   XCENC  =        57.45547620
  PAW double counting   =      6918.26434436    -6785.95268452
  entropy T*S    EENTRO =        -0.00119685
  eigenvalues    EBANDS =        41.40274845
  atomic energy  EATOM  =      2411.37598431
  Solvation  Ediel_sol  =         0.00000000
  ---------------------------------------------------
  free energy    TOTEN  =       -95.24220224 eV

  energy without entropy =      -95.24100538  energy(sigma->0) =      -95.24190303


--------------------------------------------------------------------------------------------------------




--------------------------------------- Iteration      1(  12)  ---------------------------------------


    POTLOK:  cpu time    0.0201: real time    0.0217
    SETDIJ:  cpu time    0.0027: real time    0.0028
    EDDIAG:  cpu time    0.3756: real time    0.3760
  RMM-DIIS:  cpu time    1.6724: real time    1.6743
    ORTHCH:  cpu time    0.0353: real time    0.0370
       DOS:  cpu time    0.0031: real time    0.0031
    --------------------------------------------
      LOOP:  cpu time    2.1093: real time    2.1148

 eigenvalue-minimisations  :  5359
 total energy-change (2. order) : 0.5144908E-04  (-0.7612239E-04)
 number of electron      62.0000001 magnetization 
 augmentation part       -0.4010306 magnetization 

 Free energy of the ion-electron system (eV)
  ---------------------------------------------------
  alpha Z        PSCENC =        74.71473658
  Ewald energy   TEWEN  =     -2202.06396803
  -Hartree energ DENC   =      -610.87917367
  -exchange      EXHF   =         0.00000000
  -V(xc)+E(xc)   XCENC  =        57.48145152
  PAW double counting   =      6906.22697705    -6773.91518149
  entropy T*S    EENTRO =        -0.00117238
  eigenvalues    EBANDS =        41.81819532
  atomic energy  EATOM  =      2411.37598431
  Solvation  Ediel_sol  =         0.00000000
  ---------------------------------------------------
  free energy    TOTEN  =       -95.24215079 eV

  energy without entropy =      -95.24097841  energy(sigma->0) =      -95.24185769


--------------------------------------------------------------------------------------------------------




 average (electrostatic) potential at core
  the test charge radii are     0.7089  0.9892
  (the norm of the test charge is              1.0000)
       1 -60.9652       2 -60.9652       3 -60.9652       4 -60.9652       5 -60.9652
       6 -60.9652       7 -82.2180       8 -82.2180       9 -81.7499      10 -81.7499
      11 -81.7499      12 -81.7499      13 -81.7499      14 -81.7499
 
 
 
 E-fermi :   9.2525     XC(G=0): -10.7942     alpha+bet :-14.9550


 k-point     1 :       0.0000    0.0000    0.0000
  band No.  band energies     occupation 
      1     -10.3485      2.00000
      2      -9.2999      2.00000
      3      -9.2999      2.00000
      4      -8.7018      2.00000
      5      -8.7018      2.00000
      6      -8.5382      2.00000
      7      -2.4057      2.00000
      8      -2.4057      2.00000
      9      -2.1227      2.00000
     10      -1.5443      2.00000
     11      -0.4747      2.00000
     12       0.4425      2.00000
     13       0.4425      2.00000
     14       2.2567      2.00000
     15       2.2567      2.00000
     16       2.9274      2.00000
     17       3.3573      2.00000
     18       3.3573      2.00000
     19       3.6667      2.00000
     20       3.9812      2.00000
     21       4.4988      2.00000
     22       4.4988      2.00000
     23       4.9720      2.00000
     24       4.9720      2.00000
     25       5.1562      2.00000
     26       6.2743      2.00000
     27       6.3190      2.00000
     28       6.3190      2.00000
     29       8.1588      2.00000
     30       8.4351      2.00000
     31       8.4351      2.00000
     32      11.9891      0.00000
     33      11.9892      0.00000
     34      12.0152      0.00000
     35      12.4782      0.00000
     36      12.4785      0.00000
     37      13.5982      0.00000
     38      13.6095      0.00000
     39      13.6558      0.00000
     40      14.1476      0.00000

 k-point     2 :       0.1667    0.0000    0.0000
  band No.  band energies     occupation 
      1     -10.3001      2.00000
      2      -9.4008      2.00000
      3      -9.3407      2.00000
      4      -8.8522      2.00000
      5      -8.6397      2.00000
      6      -8.3249      2.00000
      7      -2.7065      2.00000
      8      -2.3779      2.00000
      9      -2.0529      2.00000
     10      -1.2300      2.00000
     11      -0.5971      2.00000
     12       0.2553      2.00000
     13       0.5721      2.00000
     14       2.1500      2.00000
     15       2.2968      2.00000
     16       3.0125      2.00000
     17       3.1231      2.00000
     18       3.5215      2.00000
     19       3.9624      2.00000
     20       4.0089      2.00000
     21       4.4592      2.00000
     22       4.4871      2.00000
     23       4.9276      2.00000
     24       4.9878      2.00000
     25       5.2102      2.00000
     26       6.0305      2.00000
     27       6.0806      2.00000
     28       6.4187      2.00000
     29       8.0845      2.00000
     30       8.6599      2.00000
     31       8.7174      2.00000
     32      11.6216      0.00000
     33      11.9118      0.00000
     34      11.9679      0.00000
     35      12.3998      0.00000
     36      12.5072      0.00000
     37      13.3348      0.00000
     38      13.5662      0.00000
     39      13.6426      0.00000
     40      14.0140      0.00000

 k-point     3 :       0.3333    0.0000    0.0000
  band No.  band energies     occupation 
      1     -10.1591      2.00000
      2      -9.6527      2.00000
      3      -9.4063      2.00000
      4      -8.9348      2.00000
      5      -8.5298      2.00000
      6      -8.1111      2.00000
      7      -3.0728      2.00000
      8      -2.3149      2.00000
      9      -1.8629      2.00000
     10      -1.0611      2.00000
     11      -0.6857      2.00000
     12      -0.0764      2.00000
     13       0.9927      2.00000
     14       1.9712      2.00000
     15       2.1938      2.00000
     16       2.7552      2.00000
     17       3.3366      2.00000
     18       3.7757      2.00000
     19       4.0885      2.00000
     20       4.3539      2.00000
     21       4.3852      2.00000
     22       4.4648      2.00000
     23       4.8777      2.00000
     24       5.0171      2.00000
     25       5.2796      2.00000
     26       5.4950      2.00000
     27       5.7202      2.00000
     28       6.7891      2.00000
     29       7.8546      2.00000
     30       9.0213      1.99319
     31       9.2865      0.34243
     32      10.7966      0.00000
     33      11.6469      0.00000
     34      11.8606      0.00000
     35      12.4455      0.00000
     36      12.5871      0.00000
     37      13.0936      0.00000
     38      13.4935      0.00000
     39      13.7682      0.00000
     40      13.8892      0.00000

 k-point     4 :       0.5000    0.0000    0.0000
  band No.  band energies     occupation 
      1      -9.9727      2.00000
      2      -9.8910      2.00000
      3      -9.4341      2.00000
      4      -8.9531      2.00000
      5      -8.4790      2.00000
      6      -8.0311      2.00000
      7      -3.2128      2.00000
      8      -2.2787      2.00000
      9      -1.6968      2.00000
     10      -1.2362      2.00000
     11      -0.5976      2.00000
     12      -0.2300      2.00000
     13       1.4852      2.00000
     14       1.8388      2.00000
     15       1.8988      2.00000
     16       2.5896      2.00000
     17       3.5771      2.00000
     18       3.8770      2.00000
     19       4.1788      2.00000
     20       4.2483      2.00000
     21       4.4555      2.00000
     22       4.5882      2.00000
     23       4.8628      2.00000
     24       5.0314      2.00000
     25       5.1696      2.00000
     26       5.3071      2.00000
     27       5.5987      2.00000
     28       7.1064      2.00000
     29       7.6136      2.00000
     30       9.1567      2.10325
     31       9.9033      0.00000
     32      10.0581      0.00000
     33      11.5127      0.00000
     34      11.7714      0.00000
     35      12.5475      0.00000
     36      12.7042      0.00000
     37      12.9212      0.00000
     38      13.4241      0.00000
     39      13.6066      0.00000
     40      13.8206      0.00000

 k-point     5 :       0.1667    0.1667    0.0000
  band No.  band energies     occupation 
      1     -10.2052      2.00000
      2      -9.5106      2.00000
      3      -9.4841      2.00000
      4      -8.8711      2.00000
      5      -8.5884      2.00000
      6      -8.1508      2.00000
      7      -3.0098      2.00000
      8      -2.2869      2.00000
      9      -1.9192      2.00000
     10      -1.0901      2.00000
     11      -0.7638      2.00000
     12       0.1711      2.00000
     13       0.7637      2.00000
     14       1.9322      2.00000
     15       2.4280      2.00000
     16       2.8081      2.00000
     17       3.1337      2.00000
     18       3.7697      2.00000
     19       4.0634      2.00000
     20       4.2783      2.00000
     21       4.4036      2.00000
     22       4.4496      2.00000
     23       4.9009      2.00000
     24       4.9999      2.00000
     25       5.2659      2.00000
     26       5.6643      2.00000
     27       5.7845      2.00000
     28       6.6729      2.00000
     29       7.9377      2.00000
     30       8.9700      1.99871
     31       9.0863      2.00303
     32      11.1481      0.00000
     33      11.3615      0.00000
     34      12.2311      0.00000
     35      12.2468      0.00000
     36      12.6194      0.00000
     37      13.2122      0.00000
     38      13.4146      0.00000
     39      13.7678      0.00000
     40      13.8387      0.00000

 k-point     6 :       0.3333    0.1667    0.0000
  band No.  band energies     occupation 
      1     -10.0252      2.00000
      2      -9.7639      2.00000
      3      -9.5619      2.00000
      4      -8.8415      2.00000
      5      -8.5478      2.00000
      6      -8.0209      2.00000
      7      -3.2422      2.00000
      8      -2.1366      2.00000
      9      -1.6959      2.00000
     10      -1.2826      2.00000
     11      -0.9977      2.00000
     12       0.3061      2.00000
     13       1.1569      2.00000
     14       1.6800      2.00000
     15       2.2570      2.00000
     16       2.6794      2.00000
     17       3.2640      2.00000
     18       3.9487      2.00000
     19       4.1572      2.00000
     20       4.3033      2.00000
     21       4.4103      2.00000
     22       4.5834      2.00000
     23       4.8976      2.00000
     24       5.0076      2.00000
     25       5.3095      2.00000
     26       5.3679      2.00000
     27       5.5023      2.00000
     28       7.0644      2.00000
     29       7.6671      2.00000
     30       9.2790      0.46982
     31       9.5567      0.00049
     32      10.3669      0.00000
     33      11.0592      0.00000
     34      12.0070      0.00000
     35      12.5715      0.00000
     36      12.8006      0.00000
     37      13.0566      0.00000
     38      13.2502      0.00000
     39      13.6097      0.00000
     40      13.7465      0.00000

 k-point     7 :       0.5000    0.1667    0.0000
  band No.  band energies     occupation 
      1     -10.0252      2.00000
      2      -9.7639      2.00000
      3      -9.5619      2.00000
      4      -8.8415      2.00000
      5      -8.5478      2.00000
      6      -8.0209      2.00000
      7      -3.2423      2.00000
      8      -2.1342      2.00000
      9      -1.7068      2.00000
     10      -1.2611      2.00000
     11      -1.0107      2.00000
     12       0.3023      2.00000
     13       1.1699      2.00000
     14       1.6611      2.00000
     15       2.3265      2.00000
     16       2.5831      2.00000
     17       3.2988      2.00000
     18       3.9717      2.00000
     19       4.1572      2.00000
     20       4.3036      2.00000
     21       4.4100      2.00000
     22       4.5732      2.00000
     23       4.8972      2.00000
     24       5.0070      2.00000
     25       5.2796      2.00000
     26       5.3101      2.00000
     27       5.5799      2.00000
     28       7.0695      2.00000
     29       7.6635      2.00000
     30       9.2343      1.37650
     31       9.6312      0.00001
     32      10.2997      0.00000
     33      11.1194      0.00000
     34      11.9802      0.00000
     35      12.5545      0.00000
     36      12.8162      0.00000
     37      12.9904      0.00000
     38      13.3715      0.00000
     39      13.5903      0.00000
     40      13.8358      0.00000

 k-point     8 :       0.3333    0.3333    0.0000
  band No.  band energies     occupation 
      1      -9.8326      2.00000
      2      -9.8326      2.00000
      3      -9.7623      2.00000
      4      -8.6706      2.00000
      5      -8.6706      2.00000
      6      -7.9765      2.00000
      7      -3.3296      2.00000
      8      -1.7374      2.00000
      9      -1.7374      2.00000
     10      -1.3952      2.00000
     11      -1.3952      2.00000
     12       0.9612      2.00000
     13       0.9612      2.00000
     14       1.3994      2.00000
     15       2.2515      2.00000
     16       2.9470      2.00000
     17       2.9470      2.00000
     18       4.0122      2.00000
     19       4.2154      2.00000
     20       4.3140      2.00000
     21       4.3140      2.00000
     22       4.6967      2.00000
     23       4.9570      2.00000
     24       4.9570      2.00000
     25       5.3236      2.00000
     26       5.3755      2.00000
     27       5.3755      2.00000
     28       7.3950      2.00000
     29       7.3950      2.00000
     30       9.5133      0.00293
     31       9.8494      0.00000
     32       9.8494      0.00000
     33      10.8321      0.00000
     34      11.8654      0.00000
     35      12.8994      0.00000
     36      12.9069      0.00000
     37      13.0922      0.00000
     38      13.2773      0.00000
     39      13.2817      0.00000
     40      13.7672      0.00000

 k-point     9 :       0.0000    0.0000    0.0625
  band No.  band energies     occupation 
      1     -10.2998      2.00000
      2      -9.2577      2.00000
      3      -9.2577      2.00000
      4      -8.6630      2.00000
      5      -8.6630      2.00000
      6      -8.5041      2.00000
      7      -2.3652      2.00000
      8      -2.3652      2.00000
      9      -2.0655      2.00000
     10      -1.4927      2.00000
     11      -0.4479      2.00000
     12       0.4703      2.00000
     13       0.4703      2.00000
     14       2.3019      2.00000
     15       2.3019      2.00000
     16       2.9370      2.00000
     17       3.3603      2.00000
     18       3.3603      2.00000
     19       3.6435      2.00000
     20       3.7181      2.00000
     21       4.2524      2.00000
     22       4.2524      2.00000
     23       4.7110      2.00000
     24       4.7110      2.00000
     25       4.8551      2.00000
     26       6.3324      2.00000
     27       6.3324      2.00000
     28       6.4392      2.00000
     29       8.1144      2.00000
     30       8.5587      2.00000
     31       8.5587      2.00000
     32      11.8297      0.00000
     33      11.8305      0.00000
     34      11.9310      0.00000
     35      12.6102      0.00000
     36      12.6120      0.00000
     37      13.4010      0.00000
     38      13.4217      0.00000
     39      13.5490      0.00000
     40      13.7016      0.00000

 k-point    10 :       0.1667    0.0000    0.0625
  band No.  band energies     occupation 
      1     -10.2516      2.00000
      2      -9.3576      2.00000
      3      -9.2979      2.00000
      4      -8.8135      2.00000
      5      -8.6019      2.00000
      6      -8.2918      2.00000
      7      -2.6596      2.00000
      8      -2.3363      2.00000
      9      -1.9963      2.00000
     10      -1.1837      2.00000
     11      -0.5666      2.00000
     12       0.2846      2.00000
     13       0.5976      2.00000
     14       2.1951      2.00000
     15       2.3279      2.00000
     16       3.0168      2.00000
     17       3.1141      2.00000
     18       3.5174      2.00000
     19       3.7572      2.00000
     20       3.9342      2.00000
     21       4.2184      2.00000
     22       4.2453      2.00000
     23       4.6492      2.00000
     24       4.7399      2.00000
     25       4.9535      2.00000
     26       6.0621      2.00000
     27       6.1113      2.00000
     28       6.5623      2.00000
     29       8.0493      2.00000
     30       8.7569      2.00000
     31       8.8096      2.00000
     32      11.6103      0.00000
     33      11.8579      0.00000
     34      11.8726      0.00000
     35      12.3839      0.00000
     36      12.5502      0.00000
     37      13.1093      0.00000
     38      13.3424      0.00000
     39      13.5401      0.00000
     40      13.6837      0.00000

 k-point    11 :       0.3333    0.0000    0.0625
  band No.  band energies     occupation 
      1     -10.1112      2.00000
      2      -9.6077      2.00000
      3      -9.3628      2.00000
      4      -8.8958      2.00000
[...]
     39      12.5490      0.00000
     40      12.5491      0.00000

 k-point    66 :       0.1667    0.0000    0.5000
  band No.  band energies     occupation 
      1      -8.1213      2.00000
      2      -8.1213      2.00000
      3      -7.6887      2.00000
      4      -7.6887      2.00000
      5      -7.6808      2.00000
      6      -7.6808      2.00000
      7      -1.5959      2.00000
      8      -1.5959      2.00000
      9      -1.3056      2.00000
     10      -1.3056      2.00000
     11      -0.9420      2.00000
     12      -0.9420      2.00000
     13       1.0237      2.00000
     14       1.0237      2.00000
     15       1.1112      2.00000
     16       1.1112      2.00000
     17       1.6195      2.00000
     18       1.6195      2.00000
     19       1.9194      2.00000
     20       1.9194      2.00000
     21       3.9222      2.00000
     22       3.9222      2.00000
     23       3.9784      2.00000
     24       3.9784      2.00000
     25       5.2430      2.00000
     26       5.2430      2.00000
     27       5.9152      2.00000
     28       5.9152      2.00000
     29       6.0990      2.00000
     30       6.0990      2.00000
     31       7.7783      2.00000
     32       7.7783      2.00000
     33       9.6787      0.00004
     34       9.6787      0.00004
     35      11.4750      0.00000
     36      11.4750      0.00000
     37      11.6994      0.00000
     38      11.6994      0.00000
     39      12.4064      0.00000
     40      12.4217      0.00000

 k-point    67 :       0.3333    0.0000    0.5000
  band No.  band energies     occupation 
      1      -8.1054      2.00000
      2      -8.1054      2.00000
      3      -7.7071      2.00000
      4      -7.7071      2.00000
      5      -7.6825      2.00000
      6      -7.6825      2.00000
      7      -1.7836      2.00000
      8      -1.7836      2.00000
      9      -1.1587      2.00000
     10      -1.1587      2.00000
     11      -0.6724      2.00000
     12      -0.6724      2.00000
     13       0.7180      2.00000
     14       0.7180      2.00000
     15       1.1330      2.00000
     16       1.1330      2.00000
     17       1.4400      2.00000
     18       1.4400      2.00000
     19       2.1181      2.00000
     20       2.1181      2.00000
     21       3.8266      2.00000
     22       3.8266      2.00000
     23       4.0005      2.00000
     24       4.0005      2.00000
     25       5.2260      2.00000
     26       5.2260      2.00000
     27       5.7538      2.00000
     28       5.7538      2.00000
     29       6.3333      2.00000
     30       6.3333      2.00000
     31       8.1138      2.00000
     32       8.1138      2.00000
     33       9.6774      0.00004
     34       9.6774      0.00004
     35      11.0419      0.00000
     36      11.0419      0.00000
     37      11.8205      0.00000
     38      11.8205      0.00000
     39      12.2911      0.00000
     40      12.2913      0.00000

 k-point    68 :       0.5000    0.0000    0.5000
  band No.  band energies     occupation 
      1      -8.0969      2.00000
      2      -8.0969      2.00000
      3      -7.7169      2.00000
      4      -7.7169      2.00000
      5      -7.6834      2.00000
      6      -7.6834      2.00000
      7      -1.8487      2.00000
      8      -1.8487      2.00000
      9      -1.0603      2.00000
     10      -1.0603      2.00000
     11      -0.5954      2.00000
     12      -0.5954      2.00000
     13       0.6258      2.00000
     14       0.6258      2.00000
     15       1.1352      2.00000
     16       1.1352      2.00000
     17       1.3386      2.00000
     18       1.3386      2.00000
     19       2.1817      2.00000
     20       2.1817      2.00000
     21       3.7732      2.00000
     22       3.7732      2.00000
     23       4.0070      2.00000
     24       4.0070      2.00000
     25       5.2585      2.00000
     26       5.2585      2.00000
     27       5.6538      2.00000
     28       5.6538      2.00000
     29       6.4644      2.00000
     30       6.4644      2.00000
     31       8.2836      2.00000
     32       8.2836      2.00000
     33       9.6696      0.00007
     34       9.6696      0.00007
     35      10.7860      0.00000
     36      10.7860      0.00000
     37      11.8446      0.00000
     38      11.8446      0.00000
     39      12.2711      0.00000
     40      12.2712      0.00000

 k-point    69 :       0.1667    0.1667    0.5000
  band No.  band energies     occupation 
      1      -8.1095      2.00000
      2      -8.1095      2.00000
      3      -7.7019      2.00000
      4      -7.7019      2.00000
      5      -7.6825      2.00000
      6      -7.6825      2.00000
      7      -1.7477      2.00000
      8      -1.7477      2.00000
      9      -1.1918      2.00000
     10      -1.1918      2.00000
     11      -0.7350      2.00000
     12      -0.7350      2.00000
     13       0.7788      2.00000
     14       0.7788      2.00000
     15       1.1287      2.00000
     16       1.1287      2.00000
     17       1.5063      2.00000
     18       1.5063      2.00000
     19       2.0627      2.00000
     20       2.0627      2.00000
     21       3.8604      2.00000
     22       3.8604      2.00000
     23       3.9905      2.00000
     24       3.9905      2.00000
     25       5.2188      2.00000
     26       5.2188      2.00000
     27       5.7710      2.00000
     28       5.7710      2.00000
     29       6.3189      2.00000
     30       6.3189      2.00000
     31       8.0049      2.00000
     32       8.0049      2.00000
     33       9.6792      0.00004
     34       9.6792      0.00004
     35      11.1819      0.00000
     36      11.1819      0.00000
     37      11.7659      0.00000
     38      11.7659      0.00000
     39      12.3560      0.00000
     40      12.3572      0.00000

 k-point    70 :       0.3333    0.1667    0.5000
  band No.  band energies     occupation 
      1      -8.0969      2.00000
      2      -8.0969      2.00000
      3      -7.7158      2.00000
      4      -7.7158      2.00000
      5      -7.6844      2.00000
      6      -7.6844      2.00000
      7      -1.8519      2.00000
      8      -1.8519      2.00000
      9      -1.0257      2.00000
     10      -1.0257      2.00000
     11      -0.6409      2.00000
     12      -0.6409      2.00000
     13       0.6277      2.00000
     14       0.6277      2.00000
     15       1.1503      2.00000
     16       1.1503      2.00000
     17       1.3724      2.00000
     18       1.3724      2.00000
     19       2.1373      2.00000
     20       2.1373      2.00000
     21       3.7966      2.00000
     22       3.7966      2.00000
     23       3.9900      2.00000
     24       3.9900      2.00000
     25       5.2477      2.00000
     26       5.2477      2.00000
     27       5.6136      2.00000
     28       5.6136      2.00000
     29       6.5882      2.00000
     30       6.5882      2.00000
     31       8.1767      2.00000
     32       8.1767      2.00000
     33       9.6696      0.00007
     34       9.6696      0.00007
     35      10.8181      0.00000
     36      10.8181      0.00000
     37      11.8900      0.00000
     38      11.8900      0.00000
     39      12.2796      0.00000
     40      12.2799      0.00000

 k-point    71 :       0.5000    0.1667    0.5000
  band No.  band energies     occupation 
      1      -8.0969      2.00000
      2      -8.0969      2.00000
      3      -7.7158      2.00000
      4      -7.7158      2.00000
      5      -7.6844      2.00000
      6      -7.6844      2.00000
      7      -1.8519      2.00000
      8      -1.8519      2.00000
      9      -1.0256      2.00000
     10      -1.0256      2.00000
     11      -0.6410      2.00000
     12      -0.6410      2.00000
     13       0.6288      2.00000
     14       0.6288      2.00000
     15       1.1448      2.00000
     16       1.1448      2.00000
     17       1.3775      2.00000
     18       1.3775      2.00000
     19       2.1365      2.00000
     20       2.1365      2.00000
     21       3.7925      2.00000
     22       3.7925      2.00000
     23       3.9967      2.00000
     24       3.9967      2.00000
     25       5.2342      2.00000
     26       5.2342      2.00000
     27       5.6283      2.00000
     28       5.6283      2.00000
     29       6.5845      2.00000
     30       6.5845      2.00000
     31       8.1759      2.00000
     32       8.1759      2.00000
     33       9.6694      0.00007
     34       9.6694      0.00007
     35      10.8366      0.00000
     36      10.8366      0.00000
     37      11.8246      0.00000
     38      11.8246      0.00000
     39      12.3224      0.00000
     40      12.3226      0.00000

 k-point    72 :       0.3333    0.3333    0.5000
  band No.  band energies     occupation 
      1      -8.0925      2.00000
      2      -8.0925      2.00000
      3      -7.7196      2.00000
      4      -7.7196      2.00000
      5      -7.6860      2.00000
      6      -7.6860      2.00000
      7      -1.8836      2.00000
      8      -1.8836      2.00000
      9      -0.8747      2.00000
     10      -0.8747      2.00000
     11      -0.7318      2.00000
     12      -0.7318      2.00000
     13       0.6131      2.00000
     14       0.6131      2.00000
     15       1.1534      2.00000
     16       1.1534      2.00000
     17       1.3596      2.00000
     18       1.3596      2.00000
     19       2.1155      2.00000
     20       2.1155      2.00000
     21       3.7902      2.00000
     22       3.7902      2.00000
     23       3.9794      2.00000
     24       3.9794      2.00000
     25       5.2454      2.00000
     26       5.2454      2.00000
     27       5.5527      2.00000
     28       5.5527      2.00000
     29       6.7948      2.00000
     30       6.7948      2.00000
     31       8.1093      2.00000
     32       8.1093      2.00000
     33       9.6647      0.00009
     34       9.6647      0.00009
     35      10.7357      0.00000
     36      10.7357      0.00000
     37      12.0636      0.00000
     38      12.0637      0.00000
     39      12.1071      0.00000
     40      12.1071      0.00000


--------------------------------------------------------------------------------------------------------


 soft charge-density along one line, spin component           1
         0         1         2         3         4         5         6         7         8         9
 total charge-density along one line
 
 pseudopotential strength for first ion, spin component:           1
 12.396  14.856   0.001   0.000  -0.001   0.004   0.000  -0.002
 14.856  17.806   0.002   0.000  -0.001   0.005   0.000  -0.002
  0.001   0.002  -5.802   0.000   0.001  -7.718   0.000   0.001
  0.000   0.000   0.000  -5.811   0.000   0.000  -7.733   0.000
 -0.001  -0.001   0.001   0.000  -5.826   0.001   0.000  -7.756
  0.004   0.005  -7.718   0.000   0.001  -9.549   0.000   0.002
  0.000   0.000   0.000  -7.733   0.000   0.000  -9.572   0.000
 -0.002  -0.002   0.001   0.000  -7.756   0.002   0.000  -9.607
 total augmentation occupancy for first ion, spin component:           1
  6.904  -3.140  -0.219  -0.000   0.099   0.105   0.000  -0.037
 -3.140   1.627   0.210   0.000  -0.080  -0.089  -0.000   0.027
 -0.219   0.210   1.932  -0.000  -0.036  -0.265   0.000   0.011
  0.000   0.000   0.000   2.193   0.000   0.000  -0.356   0.000
  0.099  -0.080  -0.036   0.000   2.261   0.011   0.000  -0.410
  0.105  -0.089  -0.265   0.000   0.011   0.050  -0.000  -0.004
  0.000   0.000   0.000  -0.356  -0.000  -0.000   0.068   0.000
 -0.037   0.027   0.011   0.000  -0.410  -0.004  -0.000   0.087


------------------------ aborting loop because EDIFF is reached ----------------------------------------


    CHARGE:  cpu time    0.1529: real time    0.1529
    FORLOC:  cpu time    0.0030: real time    0.0030
    FORNL :  cpu time    0.9126: real time    0.9126
    STRESS:  cpu time    2.8276: real time    2.8277
    FORCOR:  cpu time    0.0218: real time    0.0217
    FORHAR:  cpu time    0.0067: real time    0.0067
    MIXING:  cpu time    0.0006: real time    0.0006
    OFIELD:  cpu time    0.0000: real time    0.0000

  FORCE on cell =-STRESS in cart. coord.  units (eV):
  Direction    XX          YY          ZZ          XY          YZ          ZX
  --------------------------------------------------------------------------------------
  Alpha Z    74.71474    74.71474    74.71474
  Ewald    -841.87186  -841.87186  -513.42540     0.00000     0.00000     0.00000
  Hartree   134.17696   134.17696   346.83303    -0.00000     0.00000    -0.00000
  E(xc)    -235.23724  -235.23725  -235.30322     0.00000    -0.00000     0.00000
  Local    -146.61316  -146.61288  -688.92463     0.00000    -0.00000     0.00000
  n-local   206.42810   206.34624   210.96971    -0.57045     0.24720    -0.37621
  augment   -37.61899   -37.61924   -37.57396     0.00119     0.00000    -0.00000
  Kinetic   837.31809   840.20181   833.68045     0.16437     0.17038     0.32479
  Fock        0.00000     0.00000     0.00000     0.00000     0.00000     0.00000
  -------------------------------------------------------------------------------------
  Total      -7.30243    -7.30243    -9.02927    -0.00000     0.00000     0.00000
  in kB     -71.70702   -71.70702   -88.66396    -0.00000     0.00000     0.00000
  external pressure =      -77.36 kB  Pullay stress =        0.00 kB


 VOLUME and BASIS-vectors are now :
 -----------------------------------------------------------------------------
  energy-cutoff  :      400.00
  volume of cell :      163.16
      direct lattice vectors                 reciprocal lattice vectors
     4.060648391 -7.033249312  0.000000000     0.123133045 -0.071090897  0.000000000
     4.060648380  7.033249318  0.000000000     0.123133045  0.071090897  0.000000000
     0.000000000  0.000000000  2.856504375     0.000000000  0.000000000  0.350078232

  length of vectors
     8.121296771  8.121296771  2.856504375     0.142181793  0.142181793  0.350078232


 FORCES acting on ions
    electron-ion (+dipol)            ewald-force                    non-local-force                 convergence-correction
 -----------------------------------------------------------------------------------------------
   0.111E+02 -.741E+02 0.153E-07   -.127E+02 0.797E+02 0.111E-14   0.154E+01 -.551E+01 -.249E-17   0.207E-01 -.640E-01 -.102E-12
   0.697E+02 -.274E+02 0.218E-07   -.754E+02 0.288E+02 -.438E-14   0.554E+01 -.142E+01 -.769E-17   0.658E-01 -.141E-01 -.754E-13
   -.586E+02 -.467E+02 -.269E-07   0.626E+02 0.509E+02 -.225E-14   -.400E+01 -.409E+01 -.859E-18   -.451E-01 -.499E-01 0.138E-12
   0.586E+02 0.467E+02 0.269E-07   -.626E+02 -.509E+02 -.768E-15   0.400E+01 0.409E+01 -.156E-17   0.451E-01 0.499E-01 -.296E-12
   -.697E+02 0.274E+02 -.218E-07   0.754E+02 -.288E+02 -.437E-14   -.554E+01 0.142E+01 0.674E-18   -.658E-01 0.141E-01 0.897E-13
   -.111E+02 0.741E+02 -.153E-07   0.127E+02 -.797E+02 -.620E-15   -.154E+01 0.551E+01 0.110E-17   -.207E-01 0.640E-01 0.800E-13
   -.534E-07 -.442E-06 0.448E-08   -.213E-13 0.544E-11 0.829E-15   0.299E-17 0.204E-16 -.217E-16   0.269E-07 0.146E-06 -.181E-13
   0.534E-07 0.442E-06 -.448E-08   0.355E-13 -.534E-11 0.646E-15   -.102E-16 -.159E-16 -.216E-16   -.269E-07 -.146E-06 0.183E-13
   -.362E+01 0.100E+02 -.498E-07   0.145E+01 -.132E+02 -.331E-16   0.223E+01 0.325E+01 0.240E-17   -.145E-01 -.158E-01 -.113E-13
   -.105E+02 0.188E+01 0.110E-06   0.122E+02 -.537E+01 -.557E-14   -.170E+01 0.355E+01 -.148E-17   0.641E-02 -.205E-01 0.138E-13
   0.687E+01 0.814E+01 0.646E-07   -.107E+02 -.787E+01 0.312E-15   0.392E+01 -.307E+00 -.294E-17   -.209E-01 0.468E-02 0.101E-13
   -.687E+01 -.814E+01 -.646E-07   0.107E+02 0.787E+01 0.100E-14   -.392E+01 0.307E+00 0.133E-17   0.209E-01 -.468E-02 -.208E-13
   0.362E+01 -.100E+02 0.498E-07   -.145E+01 0.132E+02 -.733E-15   -.223E+01 -.325E+01 -.103E-16   0.145E-01 0.158E-01 0.261E-13
   0.105E+02 -.188E+01 -.110E-06   -.122E+02 0.537E+01 -.380E-14   0.170E+01 -.355E+01 -.369E-17   -.641E-02 0.205E-01 -.213E-13
 -----------------------------------------------------------------------------------------------
   0.577E-12 0.225E-11 0.337E-11   0.284E-13 0.329E-13 -.186E-13   -.888E-15 -.133E-14 -.689E-16   0.981E-13 -.976E-12 -.169E-12
 
 
 POSITION                                       TOTAL-FORCE (eV/Angst)
 -----------------------------------------------------------------------------------
      4.17959      4.45425      2.14238        -0.053553      0.017688     -0.000000
      2.29294     -1.18649      0.71413        -0.042095     -0.037534     -0.000000
      5.94729     -1.39250      0.71413        -0.011458      0.055222     -0.000000
      2.17401      1.39250      2.14238         0.011458     -0.055222      0.000000
      5.82835      1.18649      2.14238         0.042095      0.037534     -0.000000
      3.94171     -4.45425      0.71413         0.053553     -0.017688     -0.000000
      4.06065      2.34442      2.14238        -0.000000     -0.000000     -0.000000
      4.06065     -2.34442      0.71413        -0.000000     -0.000000     -0.000000
      6.40391     -2.45758      2.14238         0.040478      0.002470      0.000000
      5.33028      4.31716      0.71413         0.018100      0.036290     -0.000000
      5.13427      0.25851      0.71413         0.022378     -0.033820      0.000000
      2.98702     -0.25851      2.14238        -0.022378      0.033820     -0.000000
      1.71739      2.45758      0.71413        -0.040478     -0.002470      0.000000
      2.79101     -4.31716      2.14238        -0.018100     -0.036290      0.000000
 -----------------------------------------------------------------------------------
    total drift:                                0.000000      0.000000      0.000000


--------------------------------------------------------------------------------------------------------



  FREE ENERGIE OF THE ION-ELECTRON SYSTEM (eV)
  ---------------------------------------------------
  free  energy   TOTEN  =       -95.26191600 eV

  energy  without entropy=      -95.26072414  energy(sigma->0) =      -95.26161803
 
 d Force = 0.3378100E-02[ 0.221E-03, 0.654E-02]  d Energy = 0.3341443E-02 0.367E-04
 d Force = 0.1965387E+01[ 0.197E+01, 0.196E+01]  d Ewald  = 0.1965426E+01-0.389E-04


--------------------------------------------------------------------------------------------------------


    POTLOK:  cpu time    0.0215: real time    0.0215


--------------------------------------------------------------------------------------------------------




--------------------------------------------------------------------------------------------------------


  
 reached required accuracy - stopping structural energy minimisation
     LOOP+:  cpu time   11.2484: real time   11.2580
    4ORBIT:  cpu time    0.0000: real time    0.0000

 total amount of memory used by VASP MPI-rank0    46176. kBytes
=======================================================================

   base      :      30000. kBytes
   nonlr-proj:       3203. kBytes
   fftplans  :       1514. kBytes
   grid      :       2370. kBytes
   one-center:         12. kBytes
   wavefun   :       9077. kBytes
 
  
  
 General timing and accounting informations for this job:
 ========================================================
  
                  Total CPU time used (sec):      229.870
                            User time (sec):      229.113
                          System time (sec):        0.757
                         Elapsed time (sec):      235.726
  
                   Maximum memory used (kb):       62436.
                   Average memory used (kb):           0.
  
                          Minor page faults:        61142
                          Major page faults:            0
                 Voluntary context switches:         5150
