<?xml version="1.0" encoding="ISO-8859-1"?>
<modeling>
 <generator>
  <i name="program" type="string">vasp </i>
  <i name="version" type="string">5.4.4.18Apr17-6-g9f103f2a35  </i>
  <i name="subversion" type="string">(build Nov 01 2019 12:17:22) complex            parallel </i>
  <i name="platform" type="string">LinuxIFC </i>
  <i name="date" type="string">2023 05 19 </i>
  <i name="time" type="string">18:18:47 </i>
 </generator>
 <incar>
  <i type="string" name="PREC">accurate</i>
  <i type="string" name="ALGO"> Fast</i>
  <i type="int" name="IBRION">     2</i>
  <i type="int" name="NSW">   100</i>
  <i type="int" name="ISIF">     2</i>
  <i type="string" name="LREAL"> Auto</i>
  <i type="int" name="ISMEAR">     2</i>
  <i name="SIGMA">      0.10000000</i>
  <i type="logical" name="LWAVE"> F  </i>
  <i type="logical" name="LCHARG"> F  </i>
  <v type="int" name="KPOINT_BSE">    -1     0     0     0</v>
 </incar>
 <structure name="primitive_cell" >
  <crystal>
   <varray name="basis" >
    <v>       4.06064839      -7.03324931       0.00000000 </v>
    <v>       4.06064838       7.03324932       0.00000000 </v>
    <v>       0.00000000       0.00000000       2.85650437 </v>
   </varray>
   <i name="volume">    163.16097317 </i>
   <varray name="rec_basis" >
    <v>       0.12313304      -0.07109090       0.00000000 </v>
    <v>       0.12313304       0.07109090       0.00000000 </v>
    <v>       0.00000000       0.00000000       0.35007823 </v>
   </varray>
  </crystal>
  <varray name="positions" >
   <v>       0.19708959      -0.16848230      -0.25000000 </v>
   <v>      -0.03641246      -0.38753655      -0.25000000 </v>
   <v>       0.35112409      -0.03641246       0.25000000 </v>
   <v>       0.33333333      -0.33333333      -0.25000000 </v>
   <v>       0.36557189       0.19708959       0.25000000 </v>
   <v>      -0.16848230      -0.36557189       0.25000000 </v>
   <v>      -0.35112409       0.03641246      -0.25000000 </v>
   <v>       0.03641246       0.38753655       0.25000000 </v>
   <v>       0.16848230       0.36557189      -0.25000000 </v>
   <v>      -0.36557189      -0.19708959      -0.25000000 </v>
   <v>       0.38753655       0.35112409      -0.25000000 </v>
   <v>      -0.33333333       0.33333333       0.25000000 </v>
   <v>      -0.38753655      -0.35112409       0.25000000 </v>
   <v>      -0.19708959       0.16848230       0.25000000 </v>
  </varray>
 </structure>
 <varray name="primitive_index" >
  <v type="int" >        1 </v>
  <v type="int" >        9 </v>
  <v type="int" >       10 </v>
  <v type="int" >        7 </v>
  <v type="int" >        2 </v>
  <v type="int" >        3 </v>
  <v type="int" >       14 </v>
  <v type="int" >       13 </v>
  <v type="int" >        4 </v>
  <v type="int" >        5 </v>
  <v type="int" >       12 </v>
  <v type="int" >        8 </v>
  <v type="int" >       11 </v>
  <v type="int" >        6 </v>
 </varray>
 <kpoints>
  <generation param="Auto">
   <i name="subdivisionlength">     45.00000000 </i>
   <v type="int" name="divisions">       6        6       16 </v>
   <v name="usershift">      0.00000000       0.00000000       0.00000000 </v>
   <v name="genvec1">      0.16666667       0.00000000       0.00000000 </v>
   <v name="genvec2">     -0.00000000       0.16666667       0.00000000 </v>
   <v name="genvec3">      0.00000000       0.00000000       0.06250000 </v>
   <v name="shift">      0.00000000       0.00000000       0.00000000 </v>
  </generation>
  <varray name="kpointlist" >
   <v>       0.00000000       0.00000000       0.00000000 </v>
   <v>       0.16666667       0.00000000       0.00000000 </v>
   <v>       0.33333333       0.00000000       0.00000000 </v>
   <v>       0.50000000       0.00000000       0.00000000 </v>
   <v>       0.16666667       0.16666667       0.00000000 </v>
   <v>       0.33333333       0.16666667       0.00000000 </v>
   <v>       0.50000000       0.16666667       0.00000000 </v>
   <v>       0.33333333       0.33333333       0.00000000 </v>
   <v>       0.00000000       0.00000000       0.06250000 </v>
   <v>       0.16666667       0.00000000       0.06250000 </v>
   <v>       0.33333333       0.00000000       0.06250000 </v>
   <v>       0.50000000       0.00000000       0.06250000 </v>
   <v>       0.16666667       0.16666667       0.06250000 </v>
   <v>       0.33333333       0.16666667       0.06250000 </v>
   <v>       0.50000000       0.16666667       0.06250000 </v>
   <v>       0.33333333       0.33333333       0.06250000 </v>
   <v>       0.00000000       0.00000000       0.12500000 </v>
   <v>       0.16666667       0.00000000       0.12500000 </v>
   <v>       0.33333333       0.00000000       0.12500000 </v>
   <v>       0.50000000       0.00000000       0.12500000 </v>
   <v>       0.16666667       0.16666667       0.12500000 </v>
   <v>       0.33333333       0.16666667       0.12500000 </v>
   <v>       0.50000000       0.16666667       0.12500000 </v>
   <v>       0.33333333       0.33333333       0.12500000 </v>
   <v>       0.00000000       0.00000000       0.18750000 </v>
   <v>       0.16666667       0.00000000       0.18750000 </v>
   <v>       0.33333333       0.00000000       0.18750000 </v>
   <v>       0.50000000       0.00000000       0.18750000 </v>
   <v>       0.16666667       0.16666667       0.18750000 </v>
   <v>       0.33333333       0.16666667       0.18750000 </v>
   <v>       0.50000000       0.16666667       0.18750000 </v>
   <v>       0.33333333       0.33333333       0.18750000 </v>
   <v>       0.00000000       0.00000000       0.25000000 </v>
   <v>       0.16666667       0.00000000       0.25000000 </v>
   <v>       0.33333333       0.00000000       0.25000000 </v>
   <v>       0.50000000       0.00000000       0.25000000 </v>
   <v>       0.16666667       0.16666667       0.25000000 </v>
   <v>       0.33333333       0.16666667       0.25000000 </v>
   <v>       0.50000000       0.16666667       0.25000000 </v>
   <v>       0.33333333       0.33333333       0.25000000 </v>
   <v>       0.00000000       0.00000000       0.31250000 </v>
   <v>       0.16666667       0.00000000       0.31250000 </v>
   <v>       0.33333333       0.00000000       0.31250000 </v>
   <v>       0.50000000       0.00000000       0.31250000 </v>
   <v>       0.16666667       0.16666667       0.31250000 </v>
   <v>       0.33333333       0.16666667       0.31250000 </v>
   <v>       0.50000000       0.16666667       0.31250000 </v>
   <v>       0.33333333       0.33333333       0.31250000 </v>
   <v>       0.00000000       0.00000000       0.37500000 </v>
   <v>       0.16666667       0.00000000       0.37500000 </v>
   <v>       0.33333333       0.00000000       0.37500000 </v>
   <v>       0.50000000       0.00000000       0.37500000 </v>
   <v>       0.16666667       0.16666667       0.37500000 </v>
   <v>       0.33333333       0.16666667       0.37500000 </v>
   <v>       0.50000000       0.16666667       0.37500000 </v>
   <v>       0.33333333       0.33333333       0.37500000 </v>
   <v>       0.00000000       0.00000000       0.43750000 </v>
   <v>       0.16666667       0.00000000       0.43750000 </v>
   <v>       0.33333333       0.00000000       0.43750000 </v>
   <v>       0.50000000       0.00000000       0.43750000 </v>
   <v>       0.16666667       0.16666667       0.43750000 </v>
   <v>       0.33333333       0.16666667       0.43750000 </v>
   <v>       0.50000000       0.16666667       0.43750000 </v>
   <v>       0.33333333       0.33333333       0.43750000 </v>
   <v>       0.00000000       0.00000000       0.50000000 </v>
   <v>       0.16666667       0.00000000       0.50000000 </v>
   <v>       0.33333333       0.00000000       0.50000000 </v>
   <v>       0.50000000       0.00000000       0.50000000 </v>
   <v>       0.16666667       0.16666667       0.50000000 </v>
   <v>       0.33333333       0.16666667       0.50000000 </v>
   <v>       0.50000000       0.16666667       0.50000000 </v>
   <v>       0.33333333       0.33333333       0.50000000 </v>
  </varray>
  <varray name="weights" >
   <v>       0.00173611 </v>
   <v>       0.01041667 </v>
   <v>       0.01041667 </v>
   <v>       0.00520833 </v>
   <v>       0.01041667 </v>
   <v>       0.01041667 </v>
   <v>       0.01041667 </v>
   <v>       0.00347222 </v>
   <v>       0.00347222 </v>
   <v>       0.02083333 </v>
   <v>       0.02083333 </v>
   <v>       0.01041667 </v>
   <v>       0.02083333 </v>
   <v>       0.02083333 </v>
   <v>       0.02083333 </v>
   <v>       0.00694444 </v>
   <v>       0.00347222 </v>
   <v>       0.02083333 </v>
   <v>       0.02083333 </v>
   <v>       0.01041667 </v>
   <v>       0.02083333 </v>
   <v>       0.02083333 </v>
   <v>       0.02083333 </v>
   <v>       0.00694444 </v>
   <v>       0.00347222 </v>
   <v>       0.02083333 </v>
   <v>       0.02083333 </v>
   <v>       0.01041667 </v>
   <v>       0.02083333 </v>
   <v>       0.02083333 </v>
   <v>       0.02083333 </v>
   <v>       0.00694444 </v>
   <v>       0.00347222 </v>
   <v>       0.02083333 </v>
   <v>       0.02083333 </v>
   <v>       0.01041667 </v>
   <v>       0.02083333 </v>
   <v>       0.02083333 </v>
   <v>       0.02083333 </v>
   <v>       0.00694444 </v>
   <v>       0.00347222 </v>
   <v>       0.02083333 </v>
   <v>       0.02083333 </v>
   <v>       0.01041667 </v>
   <v>       0.02083333 </v>
   <v>       0.02083333 </v>
   <v>       0.02083333 </v>
   <v>       0.00694444 </v>
   <v>       0.00347222 </v>
   <v>       0.02083333 </v>
   <v>       0.02083333 </v>
   <v>       0.01041667 </v>
   <v>       0.02083333 </v>
   <v>       0.02083333 </v>
   <v>       0.02083333 </v>
   <v>       0.00694444 </v>
   <v>       0.00347222 </v>
   <v>       0.02083333 </v>
   <v>       0.02083333 </v>
   <v>       0.01041667 </v>
   <v>       0.02083333 </v>
   <v>       0.02083333 </v>
   <v>       0.02083333 </v>
   <v>       0.00694444 </v>
   <v>       0.00173611 </v>
   <v>       0.01041667 </v>
   <v>       0.01041667 </v>
   <v>       0.00520833 </v>
   <v>       0.01041667 </v>
   <v>       0.01041667 </v>
   <v>       0.01041667 </v>
   <v>       0.00347222 </v>
  </varray>
 </kpoints>
 <parameters>
  <separator name="general" >
   <i type="string" name="SYSTEM">unknown system</i>
   <i type="logical" name="LCOMPAT"> F  </i>
  </separator>
  <separator name="electronic" >
   <i type="string" name="PREC">accura</i>
   <i name="ENMAX">    400.00000000</i>
   <i name="ENAUG">    627.11200000</i>
   <i name="EDIFF">      0.00010000</i>
   <i type="int" name="IALGO">    68</i>
   <i type="int" name="IWAVPR">    11</i>
   <i type="int" name="NBANDS">    40</i>
   <i name="NELECT">     62.00000000</i>
   <i type="int" name="TURBO">     0</i>
   <i type="int" name="IRESTART">     0</i>
   <i type="int" name="NREBOOT">     0</i>
   <i type="int" name="NMIN">     0</i>
   <i name="EREF">      0.00000000</i>
   <separator name="electronic smearing" >
    <i type="int" name="ISMEAR">     2</i>
    <i name="SIGMA">      0.10000000</i>
    <i name="KSPACING">      0.50000000</i>
    <i type="logical" name="KGAMMA"> T  </i>
   </separator>
   <separator name="electronic projectors" >
    <i type="logical" name="LREAL"> T  </i>
    <v name="ROPT">     -0.00025000     -0.00025000</v>
    <i type="int" name="LMAXPAW">  -100</i>
    <i type="int" name="LMAXMIX">     2</i>
    <i type="logical" name="NLSPLINE"> F  </i>
   </separator>
   <separator name="electronic startup" >
    <i type="int" name="ISTART">     0</i>
    <i type="int" name="ICHARG">     2</i>
    <i type="int" name="INIWAV">     1</i>
   </separator>
   <separator name="electronic spin" >
    <i type="int" name="ISPIN">     1</i>
    <i type="logical" name="LNONCOLLINEAR"> F  </i>
    <v name="MAGMOM">      1.00000000      1.00000000      1.00000000      1.00000000      1.00000000      1.00000000      1.00000000      1.00000000      1.00000000      1.00000000      1.00000000      1.00000000      1.00000000      1.00000000</v>
    <i name="NUPDOWN">     -1.00000000</i>
    <i type="logical" name="LSORBIT"> F  </i>
    <v name="SAXIS">      0.00000000      0.00000000      1.00000000</v>
    <i type="logical" name="LSPIRAL"> F  </i>
    <v name="QSPIRAL">      0.00000000      0.00000000      0.00000000</v>
    <i type="logical" name="LZEROZ"> F  </i>
   </separator>
   <separator name="electronic exchange-correlation" >
    <i type="logical" name="LASPH"> F  </i>
    <i type="logical" name="LMETAGGA"> F  </i>
   </separator>
   <separator name="electronic convergence" >
    <i type="int" name="NELM">    60</i>
    <i type="int" name="NELMDL">    -5</i>
    <i type="int" name="NELMIN">     2</i>
    <i name="ENINI">    400.00000000</i>
    <separator name="electronic convergence detail" >
     <i type="logical" name="LDIAG"> T  </i>
     <i type="logical" name="LSUBROT"> F  </i>
     <i name="WEIMIN">      0.00100000</i>
     <i name="EBREAK">      0.00000063</i>
     <i name="DEPER">      0.30000000</i>
     <i type="int" name="NRMM">     4</i>
     <i name="TIME">      0.40000000</i>
    </separator>
   </separator>
   <separator name="electronic mixer" >
    <i name="AMIX">      0.40000000</i>
    <i name="BMIX">      1.00000000</i>
    <i name="AMIN">      0.10000000</i>
    <i name="AMIX_MAG">      1.60000000</i>
    <i name="BMIX_MAG">      1.00000000</i>
    <separator name="electronic mixer details" >
     <i type="int" name="IMIX">     4</i>
     <i type="logical" name="MIXFIRST"> F  </i>
     <i type="int" name="MAXMIX">   -45</i>
     <i name="WC">    100.00000000</i>
     <i type="int" name="INIMIX">     1</i>
     <i type="int" name="MIXPRE">     1</i>
     <i type="int" name="MREMOVE">     5</i>
    </separator>
   </separator>
   <separator name="electronic dipolcorrection" >
    <i type="logical" name="LDIPOL"> F  </i>
    <i type="logical" name="LMONO"> F  </i>
    <i type="int" name="IDIPOL">     0</i>
    <i name="EPSILON">      1.00000000</i>
    <v name="DIPOL">   -100.00000000   -100.00000000   -100.00000000</v>
    <i name="EFIELD">      0.00000000</i>
   </separator>
  </separator>
  <separator name="grids" >
   <i type="int" name="NGX">    54</i>
   <i type="int" name="NGY">    54</i>
   <i type="int" name="NGZ">    20</i>
   <i type="int" name="NGXF">   108</i>
   <i type="int" name="NGYF">   108</i>
   <i type="int" name="NGZF">    40</i>
   <i type="logical" name="ADDGRID"> F  </i>
  </separator>
  <separator name="ionic" >
   <i type="int" name="NSW">   100</i>
   <i type="int" name="IBRION">     2</i>
   <i type="int" name="MDALGO">     0</i>
   <i type="int" name="ISIF">     2</i>
   <i name="PSTRESS">      0.00000000</i>
   <i name="EDIFFG">      0.00100000</i>
   <i type="int" name="NFREE">     1</i>
   <i name="POTIM">      0.50000000</i>
   <i name="SMASS">     -3.00000000</i>
   <i name="SCALEE">      1.00000000</i>
  </separator>
  <separator name="ionic md" >
   <i name="TEBEG">      0.00010000</i>
   <i name="TEEND">      0.00010000</i>
   <i type="int" name="NBLOCK">     1</i>
   <i type="int" name="KBLOCK">   100</i>
   <i type="int" name="NPACO">   256</i>
   <i name="APACO">     16.00000000</i>
  </separator>
  <separator name="symmetry" >
   <i type="int" name="ISYM">     2</i>
   <i name="SYMPREC">      0.00001000</i>
  </separator>
  <separator name="dos" >
   <i type="int" name="LORBIT">     0</i>
   <v name="RWIGS">     -1.00000000     -1.00000000</v>
   <i type="int" name="NEDOS">   301</i>
   <i name="EMIN">     10.00000000</i>
   <i name="EMAX">    -10.00000000</i>
   <i name="EFERMI">      0.00000000</i>
  </separator>
  <separator name="writing" >
   <i type="int" name="NWRITE">     2</i>
   <i type="logical" name="LWAVE"> F  </i>
   <i type="logical" name="LDOWNSAMPLE"> F  </i>
   <i type="logical" name="LCHARG"> F  </i>
   <i type="logical" name="LPARD"> F  </i>
   <i type="logical" name="LVTOT"> F  </i>
   <i type="logical" name="LVHAR"> F  </i>
   <i type="logical" name="LELF"> F  </i>
   <i type="logical" name="LOPTICS"> F  </i>
   <v name="STM">      0.00000000      0.00000000      0.00000000      0.00000000      0.00000000      0.00000000      0.00000000</v>
  </separator>
  <separator name="performance" >
   <i type="int" name="NPAR">     4</i>
   <i type="int" name="NSIM">     4</i>
   <i type="int" name="NBLK">    -1</i>
   <i type="logical" name="LPLANE"> T  </i>
   <i type="logical" name="LSCALAPACK"> F  </i>
   <i type="logical" name="LSCAAWARE"> F  </i>
   <i type="logical" name="LSCALU"> F  </i>
   <i type="logical" name="LASYNC"> F  </i>
   <i type="logical" name="LORBITALREAL"> F  </i>
  </separator>
  <separator name="miscellaneous" >
   <i type="int" name="IDIOT">     3</i>
   <i type="int" name="ISPECIAL">     0</i>
   <i type="logical" name="LMUSIC"> F  </i>
   <v name="POMASS">     14.00100000     28.08500000</v>
   <v name="DARWINR">      0.00000000      0.00000000</v>
   <v name="DARWINV">      1.00000000      1.00000000</v>
   <i type="logical" name="LCORR"> T  </i>
  </separator>
  <i type="logical" name="GGA_COMPAT"> T  </i>
  <i type="logical" name="LBERRY"> F  </i>
  <i type="int" name="ICORELEVEL">     0</i>
  <i type="logical" name="LDAU"> F  </i>
  <i type="int" name="I_CONSTRAINED_M">     0</i>
  <separator name="electronic exchange-correlation" >
   <i type="string" name="GGA">--</i>
   <i type="int" name="VOSKOWN">     0</i>
   <i type="logical" name="LHFCALC"> F  </i>
   <i type="string" name="PRECFOCK"></i>
   <i type="logical" name="LSYMGRAD"> F  </i>
   <i type="logical" name="LHFONE"> F  </i>
   <i type="logical" name="LRHFCALC"> F  </i>
   <i type="logical" name="LTHOMAS"> F  </i>
   <i type="logical" name="LMODELHF"> F  </i>
   <i name="ENCUT4O">     -1.00000000</i>
   <i type="int" name="EXXOEP">     0</i>
   <i type="int" name="FOURORBIT">     0</i>
   <i name="AEXX">      0.00000000</i>
   <i name="HFALPHA">      0.00000000</i>
   <i name="MCALPHA">      0.00000000</i>
   <i name="ALDAX">      1.00000000</i>
   <i name="AGGAX">      1.00000000</i>
   <i name="ALDAC">      1.00000000</i>
   <i name="AGGAC">      1.00000000</i>
   <i type="int" name="NKREDX">     1</i>
   <i type="int" name="NKREDY">     1</i>
   <i type="int" name="NKREDZ">     1</i>
   <i type="logical" name="SHIFTRED"> F  </i>
   <i type="logical" name="ODDONLY"> F  </i>
   <i type="logical" name="EVENONLY"> F  </i>
   <i type="int" name="LMAXFOCK">     0</i>
   <i type="int" name="NMAXFOCKAE">     0</i>
   <i type="logical" name="LFOCKAEDFT"> F  </i>
   <i name="HFSCREEN">      0.00000000</i>
   <i name="HFSCREENC">      0.00000000</i>
   <i type="int" name="NBANDSGWLOW">     0</i>
  </separator>
  <separator name="vdW DFT" >
   <i type="logical" name="LUSE_VDW"> F  </i>
   <i name="Zab_VDW">     -0.84910000</i>
   <i name="PARAM1">      0.12340000</i>
   <i name="PARAM2">      1.00000000</i>
   <i name="PARAM3">      0.00000000</i>
  </separator>
  <separator name="model GW" >
   <i type="int" name="MODEL_GW">     0</i>
   <i name="MODEL_EPS0">      6.99261314</i>
   <i name="MODEL_ALPHA">      1.00000000</i>
  </separator>
  <separator name="linear response parameters" >
   <i type="logical" name="LEPSILON"> F  </i>
   <i type="logical" name="LRPA"> F  </i>
   <i type="logical" name="LNABLA"> F  </i>
   <i type="logical" name="LVEL"> F  </i>
   <i type="int" name="KINTER">     0</i>
   <i name="CSHIFT">      0.10000000</i>
   <i name="OMEGAMAX">     -1.00000000</i>
   <i name="DEG_THRESHOLD">      0.00200000</i>
   <i name="RTIME">     -0.10000000</i>
   <i name="WPLASMAI">      0.00000000</i>
   <v name="DFIELD">      0.00000000      0.00000000      0.00000000</v>
   <v name="WPLASMA">      0.00000000      0.00000000      0.00000000      0.00000000      0.00000000      0.00000000      0.00000000      0.00000000      0.00000000</v>
  </separator>
  <separator name="orbital magnetization" >
   <i type="logical" name="NUCIND"> F  </i>
   <v name="MAGPOS">      0.00000000      0.00000000      0.00000000</v>
   <i type="logical" name="LNICSALL"> T  </i>
   <i type="logical" name="ORBITALMAG"> F  </i>
   <i type="logical" name="LMAGBLOCH"> F  </i>
   <i type="logical" name="LCHIMAG"> F  </i>
   <i type="logical" name="LGAUGE"> T  </i>
   <i type="int" name="MAGATOM">     0</i>
   <v name="MAGDIPOL">      0.00000000      0.00000000      0.00000000</v>
   <v name="AVECCONST">      0.00000000      0.00000000      0.00000000</v>
  </separator>
  <separator name="response functions" >
   <i type="logical" name="LADDER"> F  </i>
   <i type="logical" name="LRPAFORCE"> F  </i>
   <i type="logical" name="LFXC"> F  </i>
   <i type="logical" name="LHARTREE"> T  </i>
   <i type="int" name="IBSE">     0</i>
   <v type="int" name="KPOINT">    -1     0     0     0</v>
   <i type="logical" name="LTCTE"> F  </i>
   <i type="logical" name="LTETE"> F  </i>
   <i type="logical" name="LTRIPLET"> F  </i>
   <i type="logical" name="LFXCEPS"> F  </i>
   <i type="logical" name="LFXHEG"> F  </i>
   <i type="int" name="NATURALO">     2</i>
   <i type="logical" name="L2ORDER"> F  </i>
   <i type="logical" name="LMP2LT"> F  </i>
   <i type="logical" name="LUSEW"> F  </i>
   <i name="ENCUTGW">     -2.00000000</i>
   <i name="ENCUTGWSOFT">     -2.00000000</i>
   <i name="ENCUTLF">     -1.00000000</i>
   <i type="int" name="LMAXMP2">    -1</i>
   <i name="SCISSOR">      0.00000000</i>
   <i type="int" name="NOMEGA">     0</i>
   <i type="int" name="NOMEGAR">     0</i>
   <i type="int" name="NBANDSGW">    -1</i>
   <i type="int" name="NBANDSO">    -1</i>
   <i type="int" name="NBANDSV">    -1</i>
   <i type="int" name="NELM">     1</i>
   <i type="int" name="NELMHF">     1</i>
   <i type="int" name="DIM">     3</i>
   <i type="int" name="ANTIRES">     0</i>
   <i name="OMEGAMAX">    -30.00000000</i>
   <i name="OMEGAMIN">    -30.00000000</i>
   <i name="OMEGATL">   -200.00000000</i>
   <i type="int" name="OMEGAGRID">   140</i>
   <i name="CSHIFT">     -0.10000000</i>
   <i type="logical" name="SELFENERGY"> F  </i>
   <i type="logical" name="LSPECTRAL"> F  </i>
   <i type="logical" name="LSPECTRALGW"> F  </i>
   <i type="logical" name="LSINGLES"> F  </i>
   <i type="logical" name="LFERMIGW"> F  </i>
   <i type="logical" name="ODDONLYGW"> F  </i>
   <i type="logical" name="EVENONLYGW"> F  </i>
   <i type="int" name="NKREDLFX">     1</i>
   <i type="int" name="NKREDLFY">     1</i>
   <i type="int" name="NKREDLFZ">     1</i>
   <i type="int" name="MAXMEM">  2800</i>
   <i type="int" name="TELESCOPE">     0</i>
   <i type="int" name="TAUPAR">     1</i>
   <i type="int" name="OMEGAPAR">    -1</i>
   <i name="LAMBDA">      1.00000000</i>
  </separator>
  <separator name="External order field" >
   <i name="OFIELD_KAPPA">      0.00000000</i>
   <v name="OFIELD_K">      0.00000000      0.00000000      0.00000000</v>
   <i name="OFIELD_Q6_NEAR">      0.00000000</i>
   <i name="OFIELD_Q6_FAR">      0.00000000</i>
   <i name="OFIELD_A">      0.00000000</i>
  </separator>
 </parameters>
 <atominfo>
  <atoms>      14 </atoms>
  <types>       2 </types>
  <array name="atoms" >
   <dimension dim="1">ion</dimension>
   <field type="string">element</field>
   <field type="int">atomtype</field>
   <set>
    <rc><c>N </c><c>   1</c></rc>
    <rc><c>N </c><c>   1</c></rc>
    <rc><c>N </c><c>   1</c></rc>
    <rc><c>N </c><c>   1</c></rc>
    <rc><c>N </c><c>   1</c></rc>
    <rc><c>N </c><c>   1</c></rc>
    <rc><c>Si</c><c>   2</c></rc>
    <rc><c>Si</c><c>   2</c></rc>
    <rc><c>Si</c><c>   2</c></rc>
    <rc><c>Si</c><c>   2</c></rc>
    <rc><c>Si</c><c>   2</c></rc>
    <rc><c>Si</c><c>   2</c></rc>
    <rc><c>Si</c><c>   2</c></rc>
    <rc><c>Si</c><c>   2</c></rc>
   </set>
  </array>
  <array name="atomtypes" >
   <dimension dim="1">type</dimension>
   <field type="int">atomspertype</field>
   <field type="string">element</field>
   <field>mass</field>
   <field>valence</field>
   <field type="string">pseudopotential</field>
   <set>
    <rc><c>   6</c><c>N </c><c>     14.00100000</c><c>      5.00000000</c><c>  PAW_PBE N 08Apr2002                   </c></rc>
    <rc><c>   8</c><c>Si</c><c>     28.08500000</c><c>      4.00000000</c><c>  PAW_PBE Si 05Jan2001                  </c></rc>
   </set>
  </array>
 </atominfo>
 <structure name="initialpos" >
  <crystal>
   <varray name="basis" >
    <v>       4.06064839      -7.03324931       0.00000000 </v>
    <v>       4.06064838       7.03324932       0.00000000 </v>
    <v>       0.00000000       0.00000000       2.85650437 </v>
   </varray>
   <i name="volume">    163.16097317 </i>
   <varray name="rec_basis" >
    <v>       0.12313304      -0.07109090       0.00000000 </v>
    <v>       0.12313304       0.07109090       0.00000000 </v>
    <v>       0.00000000       0.00000000       0.35007823 </v>
   </varray>
  </crystal>
  <varray name="positions" >
   <v>       0.19708959       0.83151770       0.75000000 </v>
   <v>       0.36557189       0.19708959       0.25000000 </v>
   <v>       0.83151770       0.63442811       0.25000000 </v>
   <v>       0.16848230       0.36557189       0.75000000 </v>
   <v>       0.63442811       0.80291041       0.75000000 </v>
   <v>       0.80291041       0.16848230       0.25000000 </v>
   <v>       0.33333333       0.66666667       0.75000000 </v>
   <v>       0.66666667       0.33333333       0.25000000 </v>
   <v>       0.96358754       0.61246345       0.75000000 </v>
   <v>       0.35112409       0.96358754       0.25000000 </v>
   <v>       0.61246345       0.64887591       0.25000000 </v>
   <v>       0.38753655       0.35112409       0.75000000 </v>
   <v>       0.03641246       0.38753655       0.25000000 </v>
   <v>       0.64887591       0.03641246       0.75000000 </v>
  </varray>
 </structure>
 <calculation>
  <scstep>
   <time name="dav">    3.03    3.03</time>
   <time name="total">    3.19    3.20</time>
   <energy>
    <i name="alphaZ">     74.71473658 </i>
    <i name="ewald">  -2202.06396803 </i>
    <i name="hartreedc">   -525.41983799 </i>
    <i name="XCdc">     50.93659099 </i>
    <i name="pawpsdc">   1934.58678659 </i>
    <i name="pawaedc">  -1800.98643654 </i>
    <i name="eentropy">     -0.00166141 </i>
    <i name="bandstr">    281.84424670 </i>
    <i name="atom">   2411.37598431 </i>
    <i name="e_fr_energy">    224.98644119 </i>
    <i name="e_wo_entrp">    224.98810261 </i>
    <i name="e_0_energy">    224.98685655 </i>
   </energy>
  </scstep>
  <scstep>
   <time name="dav">    3.01    3.01</time>
   <time name="total">    3.01    3.01</time>
   <energy>
    <i name="e_fr_energy">    -80.98774807 </i>
    <i name="e_wo_entrp">    -80.98875701 </i>
    <i name="e_0_energy">    -80.98800030 </i>
   </energy>
  </scstep>
  <scstep>
   <time name="dav">    9.69    9.68</time>
   <time name="total">    9.69    9.69</time>
   <energy>
    <i name="e_fr_energy">   -103.65175192 </i>
    <i name="e_wo_entrp">   -103.64999866 </i>
    <i name="e_0_energy">   -103.65131361 </i>
   </energy>
  </scstep>
  <scstep>
   <time name="dav">    8.38    8.38</time>
   <time name="total">    8.38    8.38</time>
   <energy>
    <i name="e_fr_energy">   -104.21889318 </i>
    <i name="e_wo_entrp">   -104.21840740 </i>
    <i name="e_0_energy">   -104.21877173 </i>
   </energy>
  </scstep>
  <scstep>
   <time name="dav">    2.94    2.94</time>
   <time name="total">    3.09    3.09</time>
   <energy>
    <i name="e_fr_energy">   -104.23256433 </i>
    <i name="e_wo_entrp">   -104.23212980 </i>
    <i name="e_0_energy">   -104.23245570 </i>
   </energy>
  </scstep>
  <scstep>
   <time name="diag">    0.38    0.38</time>
   <time name="diis">    1.75    1.75</time>
   <time name="orth">    0.04    0.04</time>
   <time name="total">    2.34    2.34</time>
   <energy>
    <i name="e_fr_energy">    -95.79948544 </i>
    <i name="e_wo_entrp">    -95.79834009 </i>
    <i name="e_0_energy">    -95.79919910 </i>
   </energy>
  </scstep>
  <scstep>
   <time name="diag">    0.38    0.38</time>
   <time name="diis">    1.76    1.76</time>
   <time name="orth">    0.04    0.04</time>
   <time name="total">    2.35    2.36</time>
   <energy>
    <i name="e_fr_energy">    -95.34366745 </i>
    <i name="e_wo_entrp">    -95.34327138 </i>
    <i name="e_0_energy">    -95.34356843 </i>
   </energy>
  </scstep>
  <scstep>
   <time name="diag">    0.37    0.37</time>
   <time name="diis">    1.75    1.75</time>
   <time name="orth">    0.04    0.04</time>
   <time name="total">    2.34    2.35</time>
   <energy>
    <i name="e_fr_energy">    -95.26079939 </i>
    <i name="e_wo_entrp">    -95.25889003 </i>
    <i name="e_0_energy">    -95.26032205 </i>
   </energy>
  </scstep>
  <scstep>
   <time name="diag">    0.37    0.37</time>
   <time name="diis">    1.76    1.76</time>
   <time name="orth">    0.04    0.04</time>
   <time name="total">    2.34    2.34</time>
   <energy>
    <i name="e_fr_energy">    -95.24308602 </i>
    <i name="e_wo_entrp">    -95.24219390 </i>
    <i name="e_0_energy">    -95.24286299 </i>
   </energy>
  </scstep>
  <scstep>
   <time name="diag">    3.30    6.33</time>
   <time name="diis">    2.97    2.97</time>
   <time name="orth">    4.66    4.65</time>
   <time name="total">   12.54   16.01</time>
   <energy>
    <i name="e_fr_energy">    -95.24152890 </i>
    <i name="e_wo_entrp">    -95.24049669 </i>
    <i name="e_0_energy">    -95.24127084 </i>
   </energy>
  </scstep>
  <scstep>
   <time name="diag">   41.26   41.23</time>
   <time name="diis">   95.73   95.65</time>
   <time name="orth">    0.04    0.04</time>
   <time name="total">  138.18  138.07</time>
   <energy>
    <i name="e_fr_energy">    -95.24220224 </i>
    <i name="e_wo_entrp">    -95.24100538 </i>
    <i name="e_0_energy">    -95.24190303 </i>
   </energy>
  </scstep>
  <scstep>
   <time name="diag">    0.38    0.38</time>
   <time name="diis">    1.67    1.67</time>
   <time name="orth">    0.04    0.04</time>
   <time name="total">    2.11    2.11</time>
   <energy>
    <i name="alphaZ">     74.71473658 </i>
    <i name="ewald">  -2202.06396803 </i>
    <i name="hartreedc">   -610.87917367 </i>
    <i name="XCdc">     57.48145152 </i>
    <i name="pawpsdc">   6906.22697705 </i>
    <i name="pawaedc">  -6773.91518149 </i>
    <i name="eentropy">     -0.00117238 </i>
    <i name="bandstr">     41.81819532 </i>
    <i name="atom">   2411.37598431 </i>
    <i name="e_fr_energy">    -95.24215079 </i>
    <i name="e_wo_entrp">    -95.24097841 </i>
    <i name="e_0_energy">    -95.24185769 </i>
   </energy>
  </scstep>
  <structure>
   <crystal>
    <varray name="basis" >
     <v>       4.06064839      -7.03324931       0.00000000 </v>
     <v>       4.06064838       7.03324932       0.00000000 </v>
     <v>       0.00000000       0.00000000       2.85650437 </v>
    </varray>
    <i name="volume">    163.16097317 </i>
    <varray name="rec_basis" >
     <v>       0.12313304      -0.07109090       0.00000000 </v>
     <v>       0.12313304       0.07109090       0.00000000 </v>
     <v>       0.00000000       0.00000000       0.35007823 </v>
    </varray>
   </crystal>
   <varray name="positions" >
    <v>       0.19708959       0.83151770       0.75000000 </v>
    <v>       0.36557189       0.19708959       0.25000000 </v>
    <v>       0.83151770       0.63442811       0.25000000 </v>
    <v>       0.16848230       0.36557189       0.75000000 </v>
    <v>       0.63442811       0.80291041       0.75000000 </v>
    <v>       0.80291041       0.16848230       0.25000000 </v>
    <v>       0.33333333       0.66666667       0.75000000 </v>
    <v>       0.66666667       0.33333333       0.25000000 </v>
    <v>       0.96358754       0.61246345       0.75000000 </v>
    <v>       0.35112409       0.96358754       0.25000000 </v>
    <v>       0.61246345       0.64887591       0.25000000 </v>
    <v>       0.38753655       0.35112409       0.75000000 </v>
    <v>       0.03641246       0.38753655       0.25000000 </v>
    <v>       0.64887591       0.03641246       0.75000000 </v>
   </varray>
  </structure>
  <varray name="forces" >
   <v>       0.08075857      -0.22808333      -0.00000000 </v>
   <v>       0.23790524      -0.04410269      -0.00000000 </v>
   <v>      -0.15714667      -0.18398064      -0.00000000 </v>
   <v>       0.15714667       0.18398064      -0.00000000 </v>
   <v>      -0.23790524       0.04410269      -0.00000000 </v>
   <v>      -0.08075857       0.22808333       0.00000000 </v>
   <v>      -0.00000000       0.00000000      -0.00000000 </v>
   <v>      -0.00000000       0.00000000      -0.00000000 </v>
   <v>       0.11987289       0.34814306      -0.00000000 </v>
   <v>      -0.24156429       0.27788450       0.00000000 </v>
   <v>       0.36143718       0.07025856       0.00000000 </v>
   <v>      -0.36143718      -0.07025856      -0.00000000 </v>
   <v>      -0.11987289      -0.34814306      -0.00000000 </v>
   <v>       0.24156429      -0.27788450      -0.00000000 </v>
  </varray>
  <varray name="stress" >
   <v>     -77.51706700       0.00000034      -0.00000000 </v>
   <v>      -0.00000034     -77.51706700       0.00000000 </v>
   <v>       0.00000000      -0.00000000     -91.61767079 </v>
  </varray>
  <energy>
   <i name="e_fr_energy">    -95.24215079 </i>
   <i name="e_wo_entrp">    -95.24185769 </i>
   <i name="e_0_energy">     -0.00117238 </i>
  </energy>
  <time name="totalsc">  193.93  197.34</time>
 </calculation>
 <calculation>
  <scstep>
   <time name="dav">    3.87    4.91</time>
   <time name="total">    4.50    6.03</time>
   <energy>
    <i name="alphaZ">     74.71473658 </i>
    <i name="ewald">  -2195.19887060 </i>
    <i name="hartreedc">   -615.22079602 </i>
    <i name="XCdc">     57.60258904 </i>
    <i name="pawpsdc">   6907.18095684 </i>
    <i name="pawaedc">  -6774.86877300 </i>
    <i name="eentropy">     -0.00099828 </i>
    <i name="bandstr">     39.15857024 </i>
    <i name="atom">   2411.37598431 </i>
    <i name="e_fr_energy">    -95.25660088 </i>
    <i name="e_wo_entrp">    -95.25560260 </i>
    <i name="e_0_energy">    -95.25635131 </i>
   </energy>
  </scstep>
  <scstep>
   <time name="diag">    0.38    0.38</time>
   <time name="diis">    1.95    1.95</time>
   <time name="orth">    0.80    0.80</time>
   <time name="total">    3.31    3.31</time>
   <energy>
    <i name="e_fr_energy">    -95.25979440 </i>
    <i name="e_wo_entrp">    -95.25878668 </i>
    <i name="e_0_energy">    -95.25954247 </i>
   </energy>
  </scstep>
  <scstep>
   <time name="diag">    0.37    0.37</time>
   <time name="diis">    1.76    1.76</time>
   <time name="orth">    0.03    0.03</time>
   <time name="total">    2.35    2.35</time>
   <energy>
    <i name="e_fr_energy">    -95.25863949 </i>
    <i name="e_wo_entrp">    -95.25765037 </i>
    <i name="e_0_energy">    -95.25839221 </i>
   </energy>
  </scstep>
  <scstep>
   <time name="diag">    0.37    0.37</time>
   <time name="diis">    1.73    1.73</time>
   <time name="orth">    0.04    0.04</time>
   <time name="total">    2.31    2.31</time>
   <energy>
    <i name="e_fr_energy">    -95.25856009 </i>
    <i name="e_wo_entrp">    -95.25757575 </i>
    <i name="e_0_energy">    -95.25831401 </i>
   </energy>
  </scstep>
  <scstep>
   <time name="diag">    0.37    0.37</time>
   <time name="diis">    1.17    1.17</time>
   <time name="orth">    0.03    0.03</time>
   <time name="total">    1.60    1.60</time>
   <energy>
    <i name="alphaZ">     74.71473658 </i>
    <i name="ewald">  -2195.19887060 </i>
    <i name="hartreedc">   -616.89248492 </i>
    <i name="XCdc">     57.68319672 </i>
    <i name="pawpsdc">   6992.99687080 </i>
    <i name="pawaedc">  -6860.71955040 </i>
    <i name="eentropy">     -0.00098417 </i>
    <i name="bandstr">     40.78252712 </i>
    <i name="atom">   2411.37598431 </i>
    <i name="e_fr_energy">    -95.25857455 </i>
    <i name="e_wo_entrp">    -95.25759038 </i>
    <i name="e_0_energy">    -95.25832851 </i>
   </energy>
  </scstep>
  <structure>
   <crystal>
    <varray name="basis" >
     <v>       4.06064839      -7.03324931       0.00000000 </v>
     <v>       4.06064838       7.03324932       0.00000000 </v>
     <v>       0.00000000       0.00000000       2.85650437 </v>
    </varray>
    <i name="volume">    163.16097317 </i>
    <varray name="rec_basis" >
     <v>       0.12313304      -0.07109090       0.00000000 </v>
     <v>       0.12313304       0.07109090       0.00000000 </v>
     <v>       0.00000000       0.00000000       0.35007823 </v>
    </varray>
   </crystal>
   <varray name="positions" >
    <v>       0.19835156       0.83121519       0.75000000 </v>
    <v>       0.36713637       0.19835156       0.25000000 </v>
    <v>       0.83121519       0.63286363       0.25000000 </v>
    <v>       0.16878481       0.36713637       0.75000000 </v>
    <v>       0.63286363       0.80164844       0.75000000 </v>
    <v>       0.80164844       0.16878481       0.25000000 </v>
    <v>       0.33333333       0.66666667       0.75000000 </v>
    <v>       0.66666667       0.33333333       0.25000000 </v>
    <v>       0.96310562       0.61436952       0.75000000 </v>
    <v>       0.34873610       0.96310562       0.25000000 </v>
    <v>       0.61436952       0.65126390       0.25000000 </v>
    <v>       0.38563048       0.34873610       0.75000000 </v>
    <v>       0.03689438       0.38563048       0.25000000 </v>
    <v>       0.65126390       0.03689438       0.75000000 </v>
   </varray>
  </structure>
  <varray name="forces" >
   <v>      -0.10646908       0.10640014      -0.00000000 </v>
   <v>      -0.14537977      -0.03900486      -0.00000000 </v>
   <v>       0.03891069       0.14540500      -0.00000000 </v>
   <v>      -0.03891069      -0.14540500       0.00000000 </v>
   <v>       0.14537977       0.03900486      -0.00000000 </v>
   <v>       0.10646908      -0.10640014      -0.00000000 </v>
   <v>      -0.00000000       0.00000000      -0.00000000 </v>
   <v>      -0.00000000       0.00000000      -0.00000000 </v>
   <v>       0.00926104      -0.13412082      -0.00000000 </v>
   <v>       0.12078256      -0.05904012       0.00000000 </v>
   <v>      -0.11152152      -0.07508070      -0.00000000 </v>
   <v>       0.11152152       0.07508070       0.00000000 </v>
   <v>      -0.00926104       0.13412082       0.00000000 </v>
   <v>      -0.12078256       0.05904012       0.00000000 </v>
  </varray>
  <varray name="stress" >
   <v>     -67.50200991       0.00000008      -0.00000000 </v>
   <v>      -0.00000008     -67.50200991       0.00000000 </v>
   <v>      -0.00000000      -0.00000000     -86.07184852 </v>
  </varray>
  <energy>
   <i name="e_fr_energy">    -95.25857455 </i>
   <i name="e_wo_entrp">    -95.25832851 </i>
   <i name="e_0_energy">     -0.00098417 </i>
  </energy>
  <time name="totalsc">   20.52   22.26</time>
 </calculation>
 <calculation>
  <scstep>
   <time name="dav">    2.78    2.78</time>
   <time name="total">    2.96    2.96</time>
   <energy>
    <i name="alphaZ">     74.71473658 </i>
    <i name="ewald">  -2197.16429677 </i>
    <i name="hartreedc">   -615.74453554 </i>
    <i name="XCdc">     57.65321882 </i>
    <i name="pawpsdc">   6999.50352060 </i>
    <i name="pawaedc">  -6867.22714831 </i>
    <i name="eentropy">     -0.00118669 </i>
    <i name="bandstr">     41.62793595 </i>
    <i name="atom">   2411.37598431 </i>
    <i name="e_fr_energy">    -95.26177105 </i>
    <i name="e_wo_entrp">    -95.26058436 </i>
    <i name="e_0_energy">    -95.26147437 </i>
   </energy>
  </scstep>
  <scstep>
   <time name="diag">    0.38    0.38</time>
   <time name="diis">    1.73    1.73</time>
   <time name="orth">    0.03    0.03</time>
   <time name="total">    2.32    2.32</time>
   <energy>
    <i name="e_fr_energy">    -95.26201110 </i>
    <i name="e_wo_entrp">    -95.26082935 </i>
    <i name="e_0_energy">    -95.26171566 </i>
   </energy>
  </scstep>
  <scstep>
   <time name="diag">    0.37    0.37</time>
   <time name="diis">    1.57    1.57</time>
   <time name="orth">    0.04    0.04</time>
   <time name="total">    2.01    2.01</time>
   <energy>
    <i name="alphaZ">     74.71473658 </i>
    <i name="ewald">  -2197.16429677 </i>
    <i name="hartreedc">   -615.33665084 </i>
    <i name="XCdc">     57.63223524 </i>
    <i name="pawpsdc">   6990.00453456 </i>
    <i name="pawaedc">  -6857.72020615 </i>
    <i name="eentropy">     -0.00119186 </i>
    <i name="bandstr">     41.23293892 </i>
    <i name="atom">   2411.37598431 </i>
    <i name="e_fr_energy">    -95.26191600 </i>
    <i name="e_wo_entrp">    -95.26072414 </i>
    <i name="e_0_energy">    -95.26161803 </i>
   </energy>
  </scstep>
  <structure>
   <crystal>
    <varray name="basis" >
     <v>       4.06064839      -7.03324931       0.00000000 </v>
     <v>       4.06064838       7.03324932       0.00000000 </v>
     <v>       0.00000000       0.00000000       2.85650437 </v>
    </varray>
    <i name="volume">    163.16097317 </i>
    <varray name="rec_basis" >
     <v>       0.12313304      -0.07109090       0.00000000 </v>
     <v>       0.12313304       0.07109090       0.00000000 </v>
     <v>       0.00000000       0.00000000       0.35007823 </v>
    </varray>
   </crystal>
   <varray name="positions" >
    <v>       0.19798834       0.83130226       0.75000000 </v>
    <v>       0.36668608       0.19798834       0.25000000 </v>
    <v>       0.83130226       0.63331392       0.25000000 </v>
    <v>       0.16869774       0.36668608       0.75000000 </v>
    <v>       0.63331392       0.80201166       0.75000000 </v>
    <v>       0.80201166       0.16869774       0.25000000 </v>
    <v>       0.33333333       0.66666667       0.75000000 </v>
    <v>       0.66666667       0.33333333       0.25000000 </v>
    <v>       0.96324433       0.61382092       0.75000000 </v>
    <v>       0.34942341       0.96324433       0.25000000 </v>
    <v>       0.61382092       0.65057659       0.25000000 </v>
    <v>       0.38617908       0.34942341       0.75000000 </v>
    <v>       0.03675567       0.38617908       0.25000000 </v>
    <v>       0.65057659       0.03675567       0.75000000 </v>
   </varray>
  </structure>
  <varray name="forces" >
   <v>      -0.05355286       0.01768817      -0.00000000 </v>
   <v>      -0.04209483      -0.03753405      -0.00000000 </v>
   <v>      -0.01145802       0.05522222      -0.00000000 </v>
   <v>       0.01145802      -0.05522222       0.00000000 </v>
   <v>       0.04209483       0.03753405      -0.00000000 </v>
   <v>       0.05355286      -0.01768817      -0.00000000 </v>
   <v>      -0.00000000      -0.00000000      -0.00000000 </v>
   <v>      -0.00000000      -0.00000000      -0.00000000 </v>
   <v>       0.04047761       0.00247015       0.00000000 </v>
   <v>       0.01809959       0.03628971      -0.00000000 </v>
   <v>       0.02237801      -0.03381956       0.00000000 </v>
   <v>      -0.02237801       0.03381956      -0.00000000 </v>
   <v>      -0.04047761      -0.00247015       0.00000000 </v>
   <v>      -0.01809959      -0.03628971       0.00000000 </v>
  </varray>
  <varray name="stress" >
   <v>     -71.70702307       0.00000010       0.00000000 </v>
   <v>      -0.00000010     -71.70702307      -0.00000000 </v>
   <v>       0.00000000       0.00000000     -88.66396066 </v>
  </varray>
  <energy>
   <i name="e_fr_energy">    -95.26191600 </i>
   <i name="e_wo_entrp">    -95.26161803 </i>
   <i name="e_0_energy">     -0.00119186 </i>
  </energy>
  <time name="totalsc">   11.25   11.26</time>
  <eigenvalues>
   <array>
    <dimension dim="1">band</dimension>
    <dimension dim="2">kpoint</dimension>
    <dimension dim="3">spin</dimension>
    <field>eigene</field>
    <field>occ</field>
    <set>
     <set comment="spin 1">
      <set comment="kpoint 1">
       <r>  -10.3814    1.0000 </r>
       <r>   -9.3499    1.0000 </r>
       <r>   -9.3499    1.0000 </r>
       <r>   -8.7478    1.0000 </r>
       <r>   -8.7478    1.0000 </r>
       <r>   -8.5881    1.0000 </r>
       <r>   -2.3543    1.0000 </r>
       <r>   -2.3543    1.0000 </r>
       <r>   -2.0855    1.0000 </r>
       <r>   -1.5586    1.0000 </r>
       <r>   -0.4433    1.0000 </r>
       <r>    0.4257    1.0000 </r>
       <r>    0.4257    1.0000 </r>
       <r>    2.2576    1.0000 </r>
       <r>    2.2576    1.0000 </r>
       <r>    2.9714    1.0000 </r>
       <r>    3.3191    1.0000 </r>
       <r>    3.3191    1.0000 </r>
       <r>    3.6808    1.0000 </r>
       <r>    3.9074    1.0000 </r>
       <r>    4.4141    1.0000 </r>
       <r>    4.4141    1.0000 </r>
       <r>    4.8819    1.0000 </r>
       <r>    4.8819    1.0000 </r>
       <r>    5.0614    1.0000 </r>
       <r>    6.2891    1.0000 </r>
       <r>    6.3645    1.0000 </r>
       <r>    6.3645    1.0000 </r>
       <r>    8.1693    1.0000 </r>
       <r>    8.5190    1.0000 </r>
       <r>    8.5190    1.0000 </r>
       <r>   11.9940    0.0000 </r>
       <r>   11.9940    0.0000 </r>
       <r>   12.0172    0.0000 </r>
       <r>   12.5213    0.0000 </r>
       <r>   12.5213    0.0000 </r>
       <r>   13.5948    0.0000 </r>
       <r>   13.5950    0.0000 </r>
       <r>   13.6852    0.0000 </r>
       <r>   14.0287    0.0000 </r>
      </set>
      <set comment="kpoint 2">
       <r>  -10.3334    1.0000 </r>
       <r>   -9.4481    1.0000 </r>
       <r>   -9.3890    1.0000 </r>
       <r>   -8.8979    1.0000 </r>
       <r>   -8.6885    1.0000 </r>
       <r>   -8.3780    1.0000 </r>
       <r>   -2.6614    1.0000 </r>
       <r>   -2.3285    1.0000 </r>
       <r>   -2.0155    1.0000 </r>
       <r>   -1.2395    1.0000 </r>
       <r>   -0.5667    1.0000 </r>
       <r>    0.2549    1.0000 </r>
       <r>    0.5563    1.0000 </r>
       <r>    2.1494    1.0000 </r>
       <r>    2.2911    1.0000 </r>
       <r>    3.0214    1.0000 </r>
       <r>    3.0889    1.0000 </r>
       <r>    3.4835    1.0000 </r>
       <r>    3.9346    1.0000 </r>
       <r>    4.0050    1.0000 </r>
       <r>    4.3756    1.0000 </r>
       <r>    4.4029    1.0000 </r>
       <r>    4.8379    1.0000 </r>
       <r>    4.8968    1.0000 </r>
       <r>    5.1145    1.0000 </r>
       <r>    6.0780    1.0000 </r>
       <r>    6.1282    1.0000 </r>
       <r>    6.4322    1.0000 </r>
       <r>    8.0953    1.0000 </r>
       <r>    8.7402    1.0000 </r>
       <r>    8.8000    1.0000 </r>
       <r>   11.6512    0.0000 </r>
       <r>   11.9271    0.0000 </r>
       <r>   11.9814    0.0000 </r>
       <r>   12.4314    0.0000 </r>
       <r>   12.5411    0.0000 </r>
       <r>   13.3080    0.0000 </r>
       <r>   13.5457    0.0000 </r>
       <r>   13.7163    0.0000 </r>
       <r>   14.0047    0.0000 </r>
      </set>
      <set comment="kpoint 3">
       <r>  -10.1937    1.0000 </r>
       <r>   -9.6948    1.0000 </r>
       <r>   -9.4524    1.0000 </r>
       <r>   -8.9815    1.0000 </r>
       <r>   -8.5830    1.0000 </r>
       <r>   -8.1682    1.0000 </r>
       <r>   -3.0265    1.0000 </r>
       <r>   -2.2704    1.0000 </r>
       <r>   -1.8247    1.0000 </r>
       <r>   -1.0485    1.0000 </r>
       <r>   -0.6832    1.0000 </r>
       <r>   -0.0525    1.0000 </r>
       <r>    0.9769    1.0000 </r>
       <r>    1.9694    1.0000 </r>
       <r>    2.1652    1.0000 </r>
       <r>    2.7338    1.0000 </r>
       <r>    3.3210    1.0000 </r>
       <r>    3.7352    1.0000 </r>
       <r>    4.0126    1.0000 </r>
       <r>    4.2731    1.0000 </r>
       <r>    4.3816    1.0000 </r>
       <r>    4.4535    1.0000 </r>
       <r>    4.7885    1.0000 </r>
       <r>    4.9247    1.0000 </r>
       <r>    5.1825    1.0000 </r>
       <r>    5.5487    1.0000 </r>
       <r>    5.7704    1.0000 </r>
       <r>    6.7974    1.0000 </r>
       <r>    7.8636    1.0000 </r>
       <r>    9.0965    0.9967 </r>
       <r>    9.3701    0.1136 </r>
       <r>   10.8624    0.0000 </r>
       <r>   11.6707    0.0000 </r>
       <r>   11.8953    0.0000 </r>
       <r>   12.4545    0.0000 </r>
       <r>   12.5966    0.0000 </r>
       <r>   13.0629    0.0000 </r>
       <r>   13.4405    0.0000 </r>
       <r>   13.7396    0.0000 </r>
       <r>   13.8464    0.0000 </r>
      </set>
      <set comment="kpoint 4">
       <r>  -10.0072    1.0000 </r>
       <r>   -9.9318    1.0000 </r>
       <r>   -9.4793    1.0000 </r>
       <r>   -9.0003    1.0000 </r>
       <r>   -8.5341    1.0000 </r>
       <r>   -8.0897    1.0000 </r>
       <r>   -3.1651    1.0000 </r>
       <r>   -2.2372    1.0000 </r>
       <r>   -1.6567    1.0000 </r>
       <r>   -1.2142    1.0000 </r>
       <r>   -0.6088    1.0000 </r>
       <r>   -0.1962    1.0000 </r>
       <r>    1.4658    1.0000 </r>
       <r>    1.8106    1.0000 </r>
       <r>    1.8925    1.0000 </r>
       <r>    2.5733    1.0000 </r>
       <r>    3.5483    1.0000 </r>
       <r>    3.8379    1.0000 </r>
       <r>    4.1002    1.0000 </r>
       <r>    4.1706    1.0000 </r>
       <r>    4.3727    1.0000 </r>
       <r>    4.6614    1.0000 </r>
       <r>    4.7737    1.0000 </r>
       <r>    4.9383    1.0000 </r>
       <r>    5.2094    1.0000 </r>
       <r>    5.2299    1.0000 </r>
       <r>    5.6503    1.0000 </r>
       <r>    7.1128    1.0000 </r>
       <r>    7.6205    1.0000 </r>
       <r>    9.2295    1.0513 </r>
       <r>    9.9903    0.0000 </r>
       <r>   10.1340    0.0000 </r>
       <r>   11.5361    0.0000 </r>
       <r>   11.8134    0.0000 </r>
       <r>   12.5533    0.0000 </r>
       <r>   12.6993    0.0000 </r>
       <r>   12.9031    0.0000 </r>
       <r>   13.3765    0.0000 </r>
       <r>   13.5958    0.0000 </r>
       <r>   13.6976    0.0000 </r>
      </set>
      <set comment="kpoint 5">
       <r>  -10.2394    1.0000 </r>
       <r>   -9.5565    1.0000 </r>
       <r>   -9.5272    1.0000 </r>
       <r>   -8.9192    1.0000 </r>
       <r>   -8.6396    1.0000 </r>
       <r>   -8.2071    1.0000 </r>
       <r>   -2.9638    1.0000 </r>
       <r>   -2.2414    1.0000 </r>
       <r>   -1.8805    1.0000 </r>
       <r>   -1.0917    1.0000 </r>
       <r>   -0.7409    1.0000 </r>
       <r>    0.1840    1.0000 </r>
       <r>    0.7492    1.0000 </r>
       <r>    1.9209    1.0000 </r>
       <r>    2.4205    1.0000 </r>
       <r>    2.7786    1.0000 </r>
       <r>    3.1182    1.0000 </r>
       <r>    3.7320    1.0000 </r>
       <r>    3.9880    1.0000 </r>
       <r>    4.3214    1.0000 </r>
       <r>    4.3430    1.0000 </r>
       <r>    4.3668    1.0000 </r>
       <r>    4.8113    1.0000 </r>
       <r>    4.9081    1.0000 </r>
       <r>    5.1691    1.0000 </r>
       <r>    5.7157    1.0000 </r>
       <r>    5.8343    1.0000 </r>
       <r>    6.6820    1.0000 </r>
       <r>    7.9474    1.0000 </r>
       <r>    9.0478    0.9993 </r>
       <r>    9.1686    1.0046 </r>
       <r>   11.2111    0.0000 </r>
       <r>   11.3911    0.0000 </r>
       <r>   12.2402    0.0000 </r>
       <r>   12.2630    0.0000 </r>
       <r>   12.6379    0.0000 </r>
       <r>   13.1807    0.0000 </r>
       <r>   13.3827    0.0000 </r>
       <r>   13.7746    0.0000 </r>
       <r>   13.8319    0.0000 </r>
      </set>
      <set comment="kpoint 6">
       <r>  -10.0609    1.0000 </r>
       <r>   -9.8043    1.0000 </r>
       <r>   -9.6050    1.0000 </r>
       <r>   -8.8911    1.0000 </r>
       <r>   -8.6015    1.0000 </r>
       <r>   -8.0797    1.0000 </r>
       <r>   -3.1938    1.0000 </r>
       <r>   -2.0966    1.0000 </r>
       <r>   -1.6547    1.0000 </r>
       <r>   -1.2666    1.0000 </r>
       <r>   -0.9804    1.0000 </r>
       <r>    0.3133    1.0000 </r>
       <r>    1.1453    1.0000 </r>
       <r>    1.6523    1.0000 </r>
       <r>    2.2518    1.0000 </r>
       <r>    2.6589    1.0000 </r>
       <r>    3.2377    1.0000 </r>
       <r>    3.9161    1.0000 </r>
       <r>    4.0796    1.0000 </r>
       <r>    4.2239    1.0000 </r>
       <r>    4.3286    1.0000 </r>
       <r>    4.6476    1.0000 </r>
       <r>    4.8075    1.0000 </r>
       <r>    4.9151    1.0000 </r>
       <r>    5.2117    1.0000 </r>
       <r>    5.4252    1.0000 </r>
       <r>    5.5549    1.0000 </r>
       <r>    7.0701    1.0000 </r>
       <r>    7.6746    1.0000 </r>
       <r>    9.3531    0.2518 </r>
       <r>    9.6405    0.0002 </r>
       <r>   10.4490    0.0000 </r>
       <r>   11.0911    0.0000 </r>
       <r>   12.0262    0.0000 </r>
       <r>   12.5657    0.0000 </r>
       <r>   12.8088    0.0000 </r>
       <r>   13.0300    0.0000 </r>
       <r>   13.2158    0.0000 </r>
       <r>   13.5851    0.0000 </r>
       <r>   13.8384    0.0000 </r>
      </set>
      <set comment="kpoint 7">
       <r>  -10.0609    1.0000 </r>
       <r>   -9.8043    1.0000 </r>
       <r>   -9.6050    1.0000 </r>
       <r>   -8.8911    1.0000 </r>
       <r>   -8.6015    1.0000 </r>
       <r>   -8.0797    1.0000 </r>
       <r>   -3.1939    1.0000 </r>
       <r>   -2.0945    1.0000 </r>
       <r>   -1.6641    1.0000 </r>
       <r>   -1.2494    1.0000 </r>
       <r>   -0.9900    1.0000 </r>
       <r>    0.3103    1.0000 </r>
       <r>    1.1501    1.0000 </r>
       <r>    1.6476    1.0000 </r>
       <r>    2.3096    1.0000 </r>
       <r>    2.5680    1.0000 </r>
       <r>    3.2705    1.0000 </r>
       <r>    3.9365    1.0000 </r>
       <r>    4.0796    1.0000 </r>
       <r>    4.2242    1.0000 </r>
       <r>    4.3284    1.0000 </r>
       <r>    4.6407    1.0000 </r>
       <r>    4.8071    1.0000 </r>
       <r>    4.9144    1.0000 </r>
       <r>    5.2123    1.0000 </r>
       <r>    5.3377    1.0000 </r>
       <r>    5.6314    1.0000 </r>
       <r>    7.0757    1.0000 </r>
       <r>    7.6708    1.0000 </r>
       <r>    9.3088    0.7022 </r>
       <r>    9.7160    0.0000 </r>
       <r>   10.3763    0.0000 </r>
       <r>   11.1566    0.0000 </r>
       <r>   11.9988    0.0000 </r>
       <r>   12.5505    0.0000 </r>
       <r>   12.8230    0.0000 </r>
       <r>   12.9628    0.0000 </r>
       <r>   13.3423    0.0000 </r>
       <r>   13.5490    0.0000 </r>
       <r>   13.8561    0.0000 </r>
      </set>
      <set comment="kpoint 8">
       <r>   -9.8690    1.0000 </r>
       <r>   -9.8690    1.0000 </r>
       <r>   -9.8071    1.0000 </r>
       <r>   -8.7231    1.0000 </r>
       <r>   -8.7231    1.0000 </r>
       <r>   -8.0361    1.0000 </r>
       <r>   -3.2799    1.0000 </r>
       <r>   -1.7005    1.0000 </r>
       <r>   -1.7005    1.0000 </r>
       <r>   -1.3714    1.0000 </r>
       <r>   -1.3714    1.0000 </r>
       <r>    0.9533    1.0000 </r>
       <r>    0.9533    1.0000 </r>
       <r>    1.3756    1.0000 </r>
       <r>    2.2502    1.0000 </r>
       <r>    2.9223    1.0000 </r>
       <r>    2.9223    1.0000 </r>
       <r>    3.9862    1.0000 </r>
       <r>    4.1357    1.0000 </r>
       <r>    4.2349    1.0000 </r>
       <r>    4.2349    1.0000 </r>
       <r>    4.7485    1.0000 </r>
       <r>    4.8655    1.0000 </r>
       <r>    4.8655    1.0000 </r>
       <r>    5.2255    1.0000 </r>
       <r>    5.4325    1.0000 </r>
       <r>    5.4325    1.0000 </r>
       <r>    7.4006    1.0000 </r>
       <r>    7.4006    1.0000 </r>
       <r>    9.5841    0.0017 </r>
       <r>    9.9360    0.0000 </r>
       <r>    9.9360    0.0000 </r>
       <r>   10.8700    0.0000 </r>
       <r>   11.8706    0.0000 </r>
       <r>   12.8928    0.0000 </r>
       <r>   12.8928    0.0000 </r>
       <r>   13.0531    0.0000 </r>
       <r>   13.2808    0.0000 </r>
       <r>   13.2809    0.0000 </r>
       <r>   13.8164    0.0000 </r>
      </set>
      <set comment="kpoint 9">
       <r>  -10.3328    1.0000 </r>
       <r>   -9.3077    1.0000 </r>
       <r>   -9.3077    1.0000 </r>
       <r>   -8.7092    1.0000 </r>
       <r>   -8.7092    1.0000 </r>
       <r>   -8.5540    1.0000 </r>
       <r>   -2.3142    1.0000 </r>
       <r>   -2.3142    1.0000 </r>
       <r>   -2.0282    1.0000 </r>
       <r>   -1.5072    1.0000 </r>
       <r>   -0.4167    1.0000 </r>
       <r>    0.4532    1.0000 </r>
       <r>    0.4532    1.0000 </r>
       <r>    2.3027    1.0000 </r>
       <r>    2.3027    1.0000 </r>
       <r>    2.9760    1.0000 </r>
       <r>    3.3224    1.0000 </r>
       <r>    3.3224    1.0000 </r>
       <r>    3.6463    1.0000 </r>
       <r>    3.6511    1.0000 </r>
       <r>    4.1699    1.0000 </r>
       <r>    4.1699    1.0000 </r>
       <r>    4.6244    1.0000 </r>
       <r>    4.6244    1.0000 </r>
       <r>    4.7832    1.0000 </r>
       <r>    6.3763    1.0000 </r>
       <r>    6.3763    1.0000 </r>
       <r>    6.4457    1.0000 </r>
       <r>    8.1271    1.0000 </r>
       <r>    8.6416    1.0000 </r>
       <r>    8.6416    1.0000 </r>
       <r>   11.8476    0.0000 </r>
       <r>   11.8476    0.0000 </r>
       <r>   11.9687    0.0000 </r>
       <r>   12.6673    0.0000 </r>
       <r>   12.6674    0.0000 </r>
       <r>   13.2796    0.0000 </r>
       <r>   13.5076    0.0000 </r>
       <r>   13.5157    0.0000 </r>
       <r>   13.5343    0.0000 </r>
      </set>
      <set comment="kpoint 10">
       <r>  -10.2850    1.0000 </r>
       <r>   -9.4050    1.0000 </r>
       <r>   -9.3462    1.0000 </r>
       <r>   -8.8593    1.0000 </r>
       <r>   -8.6507    1.0000 </r>
       <r>   -8.3449    1.0000 </r>
       <r>   -2.6146    1.0000 </r>
       <r>   -2.2872    1.0000 </r>
       <r>   -1.9587    1.0000 </r>
       <r>   -1.1936    1.0000 </r>
       <r>   -0.5363    1.0000 </r>
       <r>    0.2835    1.0000 </r>
       <r>    0.5815    1.0000 </r>
       <r>    2.1943    1.0000 </r>
       <r>    2.3216    1.0000 </r>
       <r>    3.0203    1.0000 </r>
       <r>    3.0817    1.0000 </r>
       <r>    3.4797    1.0000 </r>
       <r>    3.6859    1.0000 </r>
       <r>    3.9624    1.0000 </r>
       <r>    4.1426    1.0000 </r>
       <r>    4.1640    1.0000 </r>
       <r>    4.5645    1.0000 </r>
       <r>    4.6519    1.0000 </r>
       <r>    4.8778    1.0000 </r>
       <r>    6.1076    1.0000 </r>
       <r>    6.1573    1.0000 </r>
       <r>    6.5691    1.0000 </r>
       <r>    8.0617    1.0000 </r>
       <r>    8.8372    1.0000 </r>
       <r>    8.8924    1.0000 </r>
       <r>   11.6381    0.0000 </r>
       <r>   11.8852    0.0000 </r>
       <r>   11.9036    0.0000 </r>
       <r>   12.4486    0.0000 </r>
       <r>   12.6067    0.0000 </r>
       <r>   13.1509    0.0000 </r>
       <r>   13.3984    0.0000 </r>
       <r>   13.5276    0.0000 </r>
       <r>   13.5760    0.0000 </r>
      </set>
      <set comment="kpoint 11">
       <r>  -10.1459    1.0000 </r>
       <r>   -9.6499    1.0000 </r>
       <r>   -9.4089    1.0000 </r>
       <r>   -8.9427    1.0000 </r>
       <r>   -8.5468    1.0000 </r>
       <r>   -8.1371    1.0000 </r>
       <r>   -2.9747    1.0000 </r>
       <r>   -2.2266    1.0000 </r>
       <r>   -1.7695    1.0000 </r>
       <r>   -0.9999    1.0000 </r>
       <r>   -0.6516    1.0000 </r>
       <r>   -0.0230    1.0000 </r>
       <r>    0.9932    1.0000 </r>
       <r>    2.0152    1.0000 </r>
       <r>    2.1802    1.0000 </r>
       <r>    2.7256    1.0000 </r>
       <r>    3.2734    1.0000 </r>
       <r>    3.7020    1.0000 </r>
       <r>    3.8092    1.0000 </r>
       <r>    3.9938    1.0000 </r>
       <r>    4.1724    1.0000 </r>
       <r>    4.4077    1.0000 </r>
       <r>    4.5515    1.0000 </r>
       <r>    4.6994    1.0000 </r>
       <r>    5.0047    1.0000 </r>
       <r>    5.5964    1.0000 </r>
       <r>    5.7953    1.0000 </r>
       <r>    6.8945    1.0000 </r>
       <r>    7.8565    1.0000 </r>
       <r>    9.1446    0.9964 </r>
       <r>    9.4290   -0.0509 </r>
       <r>   10.9293    0.0000 </r>
       <r>   11.7054    0.0000 </r>
       <r>   11.8834    0.0000 </r>
       <r>   12.3636    0.0000 </r>
       <r>   12.5957    0.0000 </r>
       <r>   12.8649    0.0000 </r>
       <r>   13.2963    0.0000 </r>
       <r>   13.4336    0.0000 </r>
       <r>   13.6427    0.0000 </r>
      </set>
      <set comment="kpoint 12">
       <r>   -9.9604    1.0000 </r>
       <r>   -9.8854    1.0000 </r>
       <r>   -9.4355    1.0000 </r>
       <r>   -8.9613    1.0000 </r>
       <r>   -8.4987    1.0000 </r>
       <r>   -8.0594    1.0000 </r>
       <r>   -3.1116    1.0000 </r>
       <r>   -2.1918    1.0000 </r>
       <r>   -1.6036    1.0000 </r>
       <r>   -1.1624    1.0000 </r>
       <r>   -0.5766    1.0000 </r>
       <r>   -0.1666    1.0000 </r>
       <r>    1.4657    1.0000 </r>
       <r>    1.8308    1.0000 </r>
       <r>    1.9394    1.0000 </r>
       <r>    2.5736    1.0000 </r>
       <r>    3.4243    1.0000 </r>
       <r>    3.7712    1.0000 </r>
       <r>    3.9042    1.0000 </r>
       <r>    3.9733    1.0000 </r>
       <r>    4.1890    1.0000 </r>
       <r>    4.5213    1.0000 </r>
       <r>    4.5989    1.0000 </r>
       <r>    4.7183    1.0000 </r>
       <r>    5.1077    1.0000 </r>
       <r>    5.2633    1.0000 </r>
       <r>    5.6599    1.0000 </r>
       <r>    7.1720    1.0000 </r>
       <r>    7.6424    1.0000 </r>
       <r>    9.2584    1.0211 </r>
       <r>   10.0318    0.0000 </r>
       <r>   10.2004    0.0000 </r>
       <r>   11.6095    0.0000 </r>
       <r>   11.8265    0.0000 </r>
       <r>   12.4157    0.0000 </r>
       <r>   12.6812    0.0000 </r>
       <r>   12.7297    0.0000 </r>
       <r>   13.2180    0.0000 </r>
       <r>   13.4958    0.0000 </r>
       <r>   13.5060    0.0000 </r>
      </set>
      <set comment="kpoint 13">
       <r>  -10.1914    1.0000 </r>
       <r>   -9.5125    1.0000 </r>
       <r>   -9.4834    1.0000 </r>
       <r>   -8.8808    1.0000 </r>
       <r>   -8.6028    1.0000 </r>
       <r>   -8.1756    1.0000 </r>
       <r>   -2.9129    1.0000 </r>
       <r>   -2.1987    1.0000 </r>
       <r>   -1.8253    1.0000 </r>
       <r>   -1.0447    1.0000 </r>
       <r>   -0.7068    1.0000 </r>
       <r>    0.2097    1.0000 </r>
       <r>    0.7706    1.0000 </r>
       <r>    1.9625    1.0000 </r>
       <r>    2.4348    1.0000 </r>
       <r>    2.7722    1.0000 </r>
       <r>    3.1135    1.0000 </r>
       <r>    3.6467    1.0000 </r>
       <r>    3.8063    1.0000 </r>
       <r>    4.0684    1.0000 </r>
       <r>    4.1049    1.0000 </r>
       <r>    4.3408    1.0000 </r>
       <r>    4.5521    1.0000 </r>
       <r>    4.6763    1.0000 </r>
       <r>    4.9744    1.0000 </r>
       <r>    5.7486    1.0000 </r>
       <r>    5.8739    1.0000 </r>
       <r>    6.7921    1.0000 </r>
       <r>    7.9294    1.0000 </r>
       <r>    9.1161    0.9953 </r>
       <r>    9.2263    1.0504 </r>
       <r>   11.2807    0.0000 </r>
       <r>   11.4149    0.0000 </r>
       <r>   12.1265    0.0000 </r>
       <r>   12.3401    0.0000 </r>
       <r>   12.5205    0.0000 </r>
       <r>   12.9562    0.0000 </r>
       <r>   13.3507    0.0000 </r>
       <r>   13.4559    0.0000 </r>
       <r>   13.6339    0.0000 </r>
      </set>
      <set comment="kpoint 14">
       <r>  -10.0139    1.0000 </r>
       <r>   -9.7587    1.0000 </r>
       <r>   -9.5606    1.0000 </r>
       <r>   -8.8529    1.0000 </r>
       <r>   -8.5656    1.0000 </r>
       <r>   -8.0495    1.0000 </r>
       <r>   -3.1405    1.0000 </r>
       <r>   -2.0523    1.0000 </r>
       <r>   -1.6024    1.0000 </r>
       <r>   -1.2160    1.0000 </r>
       <r>   -0.9416    1.0000 </r>
       <r>    0.3346    1.0000 </r>
       <r>    1.1579    1.0000 </r>
       <r>    1.6861    1.0000 </r>
       <r>    2.2684    1.0000 </r>
       <r>    2.6546    1.0000 </r>
       <r>    3.1995    1.0000 </r>
       <r>    3.7492    1.0000 </r>
       <r>    3.9503    1.0000 </r>
       <r>    3.9744    1.0000 </r>
       <r>    4.1570    1.0000 </r>
       <r>    4.5258    1.0000 </r>
       <r>    4.6193    1.0000 </r>
       <r>    4.6896    1.0000 </r>
       <r>    5.0859    1.0000 </r>
       <r>    5.4694    1.0000 </r>
       <r>    5.5698    1.0000 </r>
       <r>    7.1369    1.0000 </r>
       <r>    7.6841    1.0000 </r>
       <r>    9.3703    0.1127 </r>
       <r>    9.7062    0.0000 </r>
       <r>   10.5110    0.0000 </r>
       <r>   11.1505    0.0000 </r>
       <r>   12.1118    0.0000 </r>
       <r>   12.3801    0.0000 </r>
       <r>   12.6035    0.0000 </r>
       <r>   12.8965    0.0000 </r>
       <r>   13.1679    0.0000 </r>
       <r>   13.5101    0.0000 </r>
       <r>   13.6346    0.0000 </r>
      </set>
      <set comment="kpoint 15">
       <r>  -10.0139    1.0000 </r>
       <r>   -9.7587    1.0000 </r>
       <r>   -9.5606    1.0000 </r>
       <r>   -8.8529    1.0000 </r>
       <r>   -8.5656    1.0000 </r>
       <r>   -8.0495    1.0000 </r>
       <r>   -3.1406    1.0000 </r>
       <r>   -2.0501    1.0000 </r>
       <r>   -1.6124    1.0000 </r>
       <r>   -1.1975    1.0000 </r>
       <r>   -0.9519    1.0000 </r>
       <r>    0.3316    1.0000 </r>
       <r>    1.1623    1.0000 </r>
       <r>    1.6816    1.0000 </r>
       <r>    2.3248    1.0000 </r>
       <r>    2.5694    1.0000 </r>
       <r>    3.2259    1.0000 </r>
       <r>    3.7571    1.0000 </r>
       <r>    3.9008    1.0000 </r>
       <r>    4.0858    1.0000 </r>
       <r>    4.1045    1.0000 </r>
       <r>    4.5519    1.0000 </r>
       <r>    4.5905    1.0000 </r>
       <r>    4.6899    1.0000 </r>
       <r>    5.0914    1.0000 </r>
       <r>    5.3706    1.0000 </r>
       <r>    5.6541    1.0000 </r>
       <r>    7.1410    1.0000 </r>
       <r>    7.6811    1.0000 </r>
       <r>    9.3418    0.3610 </r>
       <r>    9.7572    0.0000 </r>
       <r>   10.4517    0.0000 </r>
       <r>   11.2047    0.0000 </r>
       <r>   12.1063    0.0000 </r>
       <r>   12.3514    0.0000 </r>
       <r>   12.6209    0.0000 </r>
       <r>   12.8402    0.0000 </r>
       <r>   13.2687    0.0000 </r>
       <r>   13.4943    0.0000 </r>
       <r>   13.6389    0.0000 </r>
      </set>
      <set comment="kpoint 16">
       <r>   -9.8230    1.0000 </r>
       <r>   -9.8230    1.0000 </r>
       <r>   -9.7614    1.0000 </r>
       <r>   -8.6863    1.0000 </r>
       <r>   -8.6863    1.0000 </r>
       <r>   -8.0063    1.0000 </r>
       <r>   -3.2259    1.0000 </r>
       <r>   -1.6572    1.0000 </r>
       <r>   -1.6572    1.0000 </r>
       <r>   -1.3199    1.0000 </r>
       <r>   -1.3199    1.0000 </r>
       <r>    0.9626    1.0000 </r>
       <r>    0.9626    1.0000 </r>
       <r>    1.4152    1.0000 </r>
       <r>    2.2672    1.0000 </r>
       <r>    2.9038    1.0000 </r>
       <r>    2.9038    1.0000 </r>
       <r>    3.7788    1.0000 </r>
       <r>    4.0164    1.0000 </r>
       <r>    4.0164    1.0000 </r>
       <r>    4.0666    1.0000 </r>
       <r>    4.6279    1.0000 </r>
       <r>    4.6279    1.0000 </r>
       <r>    4.6629    1.0000 </r>
       <r>    5.1448    1.0000 </r>
       <r>    5.4569    1.0000 </r>
       <r>    5.4569    1.0000 </r>
       <r>    7.4332    1.0000 </r>
       <r>    7.4332    1.0000 </r>
       <r>    9.5723    0.0025 </r>
       <r>   10.0156    0.0000 </r>
       <r>   10.0156    0.0000 </r>
       <r>   10.9159    0.0000 </r>
       <r>   12.0118    0.0000 </r>
       <r>   12.5023    0.0000 </r>
       <r>   12.5023    0.0000 </r>
       <r>   13.1288    0.0000 </r>
       <r>   13.3891    0.0000 </r>
       <r>   13.3896    0.0000 </r>
       <r>   13.5377    0.0000 </r>
      </set>
      <set comment="kpoint 17">
       <r>  -10.1884    1.0000 </r>
       <r>   -9.1830    1.0000 </r>
       <r>   -9.1830    1.0000 </r>
       <r>   -8.5963    1.0000 </r>
       <r>   -8.5963    1.0000 </r>
       <r>   -8.4560    1.0000 </r>
       <r>   -2.1983    1.0000 </r>
       <r>   -2.1983    1.0000 </r>
       <r>   -1.8570    1.0000 </r>
       <r>   -1.3546    1.0000 </r>
       <r>   -0.3508    1.0000 </r>
       <r>    0.5228    1.0000 </r>
       <r>    0.5228    1.0000 </r>
       <r>    2.4360    1.0000 </r>
       <r>    2.4360    1.0000 </r>
       <r>    2.9291    1.0000 </r>
       <r>    3.0065    1.0000 </r>
       <r>    3.2858    1.0000 </r>
       <r>    3.2858    1.0000 </r>
       <r>    3.4462    1.0000 </r>
       <r>    3.5558    1.0000 </r>
       <r>    3.5558    1.0000 </r>
       <r>    4.0524    1.0000 </r>
       <r>    4.0524    1.0000 </r>
       <r>    4.3957    1.0000 </r>
       <r>    6.3951    1.0000 </r>
       <r>    6.3951    1.0000 </r>
       <r>    6.7192    1.0000 </r>
       <r>    7.9488    1.0000 </r>
       <r>    8.9137    1.0000 </r>
       <r>    8.9137    1.0000 </r>
       <r>   11.2398    0.0000 </r>
       <r>   11.2398    0.0000 </r>
       <r>   11.4379    0.0000 </r>
       <r>   12.1207    0.0000 </r>
       <r>   12.9318    0.0000 </r>
       <r>   12.9318    0.0000 </r>
       <r>   12.9989    0.0000 </r>
       <r>   12.9989    0.0000 </r>
       <r>   14.0053    0.0000 </r>
      </set>
      <set comment="kpoint 18">
       <r>  -10.1415    1.0000 </r>
       <r>   -9.2776    1.0000 </r>
       <r>   -9.2201    1.0000 </r>
       <r>   -8.7470    1.0000 </r>
       <r>   -8.5408    1.0000 </r>
       <r>   -8.2493    1.0000 </r>
       <r>   -2.4776    1.0000 </r>
       <r>   -2.1683    1.0000 </r>
       <r>   -1.7895    1.0000 </r>
       <r>   -1.0604    1.0000 </r>
       <r>   -0.4564    1.0000 </r>
       <r>    0.3558    1.0000 </r>
       <r>    0.6429    1.0000 </r>
       <r>    2.3262    1.0000 </r>
       <r>    2.3738    1.0000 </r>
       <r>    2.9426    1.0000 </r>
       <r>    2.9800    1.0000 </r>
       <r>    3.1610    1.0000 </r>
       <r>    3.3503    1.0000 </r>
       <r>    3.4878    1.0000 </r>
       <r>    3.6422    1.0000 </r>
       <r>    3.7722    1.0000 </r>
       <r>    3.9847    1.0000 </r>
       <r>    4.0953    1.0000 </r>
       <r>    4.5773    1.0000 </r>
       <r>    6.1569    1.0000 </r>
       <r>    6.2031    1.0000 </r>
       <r>    6.8162    1.0000 </r>
       <r>    7.9094    1.0000 </r>
       <r>    9.0435    0.9994 </r>
       <r>    9.0999    0.9964 </r>
       <r>   11.2828    0.0000 </r>
       <r>   11.3767    0.0000 </r>
       <r>   11.4194    0.0000 </r>
       <r>   12.0700    0.0000 </r>
       <r>   12.3519    0.0000 </r>
       <r>   12.6068    0.0000 </r>
       <r>   13.0336    0.0000 </r>
       <r>   13.1445    0.0000 </r>
       <r>   14.0164    0.0000 </r>
      </set>
      <set comment="kpoint 19">
       <r>  -10.0045    1.0000 </r>
       <r>   -9.5173    1.0000 </r>
       <r>   -9.2807    1.0000 </r>
       <r>   -8.8292    1.0000 </r>
       <r>   -8.4418    1.0000 </r>
       <r>   -8.0479    1.0000 </r>
       <r>   -2.8215    1.0000 </r>
       <r>   -2.1009    1.0000 </r>
       <r>   -1.6063    1.0000 </r>
       <r>   -0.8580    1.0000 </r>
       <r>   -0.5671    1.0000 </r>
       <r>    0.0527    1.0000 </r>
       <r>    1.0257    1.0000 </r>
       <r>    2.1489    1.0000 </r>
       <r>    2.1849    1.0000 </r>
       <r>    2.6460    1.0000 </r>
       <r>    2.9249    1.0000 </r>
       <r>    3.3145    1.0000 </r>
       <r>    3.3922    1.0000 </r>
       <r>    3.5478    1.0000 </r>
       <r>    3.8349    1.0000 </r>
       <r>    3.9686    1.0000 </r>
       <r>    4.1045    1.0000 </r>
       <r>    4.1668    1.0000 </r>
       <r>    4.8989    1.0000 </r>
       <r>    5.6793    1.0000 </r>
       <r>    5.8415    1.0000 </r>
       <r>    7.0696    1.0000 </r>
       <r>    7.7776    1.0000 </r>
       <r>    9.2252    1.0499 </r>
       <r>    9.5585    0.0035 </r>
       <r>   11.0582    0.0000 </r>
       <r>   11.3853    0.0000 </r>
       <r>   11.5740    0.0000 </r>
       <r>   11.7144    0.0000 </r>
       <r>   12.0859    0.0000 </r>
       <r>   12.3043    0.0000 </r>
       <r>   13.0228    0.0000 </r>
       <r>   13.2202    0.0000 </r>
       <r>   13.9069    0.0000 </r>
      </set>
      <set comment="kpoint 20">
       <r>   -9.8224    1.0000 </r>
       <r>   -9.7481    1.0000 </r>
       <r>   -9.3065    1.0000 </r>
       <r>   -8.8475    1.0000 </r>
       <r>   -8.3961    1.0000 </r>
       <r>   -7.9728    1.0000 </r>
       <r>   -2.9531    1.0000 </r>
       <r>   -2.0623    1.0000 </r>
       <r>   -1.4475    1.0000 </r>
       <r>   -1.0100    1.0000 </r>
       <r>   -0.4901    1.0000 </r>
       <r>   -0.0901    1.0000 </r>
       <r>    1.4441    1.0000 </r>
       <r>    1.8685    1.0000 </r>
       <r>    2.0762    1.0000 </r>
       <r>    2.5187    1.0000 </r>
       <r>    2.8934    1.0000 </r>
       <r>    3.2868    1.0000 </r>
       <r>    3.3852    1.0000 </r>
       <r>    3.6933    1.0000 </r>
       <r>    3.9593    1.0000 </r>
       <r>    4.0989    1.0000 </r>
       <r>    4.1706    1.0000 </r>
       <r>    4.1777    1.0000 </r>
       <r>    5.1378    1.0000 </r>
       <r>    5.3280    1.0000 </r>
       <r>    5.6794    1.0000 </r>
       <r>    7.2735    1.0000 </r>
       <r>    7.6365    1.0000 </r>
       <r>    9.2887    0.8729 </r>
       <r>   10.1161    0.0000 </r>
       <r>   10.3526    0.0000 </r>
       <r>   11.4339    0.0000 </r>
       <r>   11.5163    0.0000 </r>
       <r>   11.7751    0.0000 </r>
       <r>   12.0279    0.0000 </r>
       <r>   12.3229    0.0000 </r>
       <r>   12.9700    0.0000 </r>
       <r>   13.4126    0.0000 </r>
       <r>   13.8278    0.0000 </r>
      </set>
      <set comment="kpoint 21">
       <r>  -10.0493    1.0000 </r>
       <r>   -9.3825    1.0000 </r>
       <r>   -9.3539    1.0000 </r>
       <r>   -8.7688    1.0000 </r>
       <r>   -8.4955    1.0000 </r>
       <r>   -8.0850    1.0000 </r>
       <r>   -2.7628    1.0000 </r>
       <r>   -2.0757    1.0000 </r>
       <r>   -1.6614    1.0000 </r>
       <r>   -0.9088    1.0000 </r>
       <r>   -0.6131    1.0000 </r>
       <r>    0.2742    1.0000 </r>
       <r>    0.8201    1.0000 </r>
       <r>    2.0787    1.0000 </r>
       <r>    2.4036    1.0000 </r>
       <r>    2.7208    1.0000 </r>
       <r>    2.9853    1.0000 </r>
       <r>    3.1901    1.0000 </r>
       <r>    3.3908    1.0000 </r>
       <r>    3.5008    1.0000 </r>
       <r>    3.8138    1.0000 </r>
       <r>    3.9427    1.0000 </r>
       <r>    4.0351    1.0000 </r>
       <r>    4.1582    1.0000 </r>
       <r>    4.8126    1.0000 </r>
       <r>    5.8116    1.0000 </r>
       <r>    5.9404    1.0000 </r>
       <r>    6.9923    1.0000 </r>
       <r>    7.8246    1.0000 </r>
       <r>    9.2248    1.0498 </r>
       <r>    9.3752    0.0803 </r>
       <r>   11.2702    0.0000 </r>
       <r>   11.3443    0.0000 </r>
       <r>   11.5365    0.0000 </r>
       <r>   11.8077    0.0000 </r>
       <r>   11.9423    0.0000 </r>
       <r>   12.4546    0.0000 </r>
       <r>   12.9950    0.0000 </r>
       <r>   13.2304    0.0000 </r>
       <r>   14.0116    0.0000 </r>
      </set>
      <set comment="kpoint 22">
       <r>   -9.8747    1.0000 </r>
       <r>   -9.6239    1.0000 </r>
       <r>   -9.4294    1.0000 </r>
       <r>   -8.7416    1.0000 </r>
       <r>   -8.4610    1.0000 </r>
       <r>   -7.9631    1.0000 </r>
       <r>   -2.9821    1.0000 </r>
       <r>   -1.9256    1.0000 </r>
       <r>   -1.4498    1.0000 </r>
       <r>   -1.0669    1.0000 </r>
       <r>   -0.8309    1.0000 </r>
       <r>    0.3845    1.0000 </r>
       <r>    1.1751    1.0000 </r>
       <r>    1.7753    1.0000 </r>
       <r>    2.3002    1.0000 </r>
       <r>    2.5559    1.0000 </r>
       <r>    2.8992    1.0000 </r>
       <r>    3.2261    1.0000 </r>
       <r>    3.3972    1.0000 </r>
       <r>    3.6776    1.0000 </r>
       <r>    3.9530    1.0000 </r>
       <r>    3.9777    1.0000 </r>
       <r>    4.1270    1.0000 </r>
       <r>    4.2661    1.0000 </r>
       <r>    5.0725    1.0000 </r>
       <r>    5.5458    1.0000 </r>
       <r>    5.6026    1.0000 </r>
       <r>    7.2518    1.0000 </r>
       <r>    7.6563    1.0000 </r>
       <r>    9.3634    0.1638 </r>
       <r>    9.8602    0.0000 </r>
       <r>   10.6460    0.0000 </r>
       <r>   11.2598    0.0000 </r>
       <r>   11.4627    0.0000 </r>
       <r>   11.5708    0.0000 </r>
       <r>   12.2904    0.0000 </r>
       <r>   12.3826    0.0000 </r>
       <r>   12.9455    0.0000 </r>
       <r>   13.3703    0.0000 </r>
       <r>   13.7658    0.0000 </r>
      </set>
      <set comment="kpoint 23">
       <r>   -9.8747    1.0000 </r>
       <r>   -9.6239    1.0000 </r>
       <r>   -9.4294    1.0000 </r>
       <r>   -8.7416    1.0000 </r>
       <r>   -8.4610    1.0000 </r>
       <r>   -7.9630    1.0000 </r>
       <r>   -2.9822    1.0000 </r>
       <r>   -1.9233    1.0000 </r>
       <r>   -1.4608    1.0000 </r>
       <r>   -1.0444    1.0000 </r>
       <r>   -0.8441    1.0000 </r>
       <r>    0.3816    1.0000 </r>
       <r>    1.1783    1.0000 </r>
       <r>    1.7723    1.0000 </r>
       <r>    2.3542    1.0000 </r>
       <r>    2.4971    1.0000 </r>
       <r>    2.8870    1.0000 </r>
       <r>    3.2362    1.0000 </r>
       <r>    3.3922    1.0000 </r>
       <r>    3.7070    1.0000 </r>
       <r>    3.8803    1.0000 </r>
       <r>    4.0545    1.0000 </r>
       <r>    4.1289    1.0000 </r>
       <r>    4.2523    1.0000 </r>
       <r>    5.0882    1.0000 </r>
       <r>    5.4285    1.0000 </r>
       <r>    5.6968    1.0000 </r>
       <r>    7.2545    1.0000 </r>
       <r>    7.6546    1.0000 </r>
       <r>    9.3627    0.1693 </r>
       <r>    9.8634    0.0000 </r>
       <r>   10.6314    0.0000 </r>
       <r>   11.2227    0.0000 </r>
       <r>   11.4800    0.0000 </r>
       <r>   11.6486    0.0000 </r>
       <r>   12.1959    0.0000 </r>
       <r>   12.4325    0.0000 </r>
       <r>   12.9237    0.0000 </r>
       <r>   13.4062    0.0000 </r>
       <r>   13.7305    0.0000 </r>
      </set>
      <set comment="kpoint 24">
       <r>   -9.6872    1.0000 </r>
       <r>   -9.6872    1.0000 </r>
       <r>   -9.6262    1.0000 </r>
       <r>   -8.5790    1.0000 </r>
       <r>   -8.5790    1.0000 </r>
       <r>   -7.9211    1.0000 </r>
       <r>   -3.0653    1.0000 </r>
       <r>   -1.5355    1.0000 </r>
       <r>   -1.5355    1.0000 </r>
       <r>   -1.1661    1.0000 </r>
       <r>   -1.1661    1.0000 </r>
       <r>    0.9727    1.0000 </r>
       <r>    0.9727    1.0000 </r>
       <r>    1.5252    1.0000 </r>
       <r>    2.3075    1.0000 </r>
       <r>    2.7143    1.0000 </r>
       <r>    2.7143    1.0000 </r>
       <r>    3.1427    1.0000 </r>
       <r>    3.6273    1.0000 </r>
       <r>    3.6273    1.0000 </r>
       <r>    3.8881    1.0000 </r>
       <r>    4.0565    1.0000 </r>
       <r>    4.0565    1.0000 </r>
       <r>    4.3391    1.0000 </r>
       <r>    5.1669    1.0000 </r>
       <r>    5.5036    1.0000 </r>
       <r>    5.5036    1.0000 </r>
       <r>    7.4698    1.0000 </r>
       <r>    7.4698    1.0000 </r>
       <r>    9.4880   -0.0048 </r>
       <r>   10.2112    0.0000 </r>
       <r>   10.2112    0.0000 </r>
       <r>   10.9913    0.0000 </r>
       <r>   11.5019    0.0000 </r>
       <r>   11.5019    0.0000 </r>
       <r>   12.3289    0.0000 </r>
       <r>   12.4960    0.0000 </r>
       <r>   13.2551    0.0000 </r>
       <r>   13.2557    0.0000 </r>
       <r>   13.7517    0.0000 </r>
      </set>
      <set comment="kpoint 25">
       <r>   -9.9542    1.0000 </r>
       <r>   -8.9831    1.0000 </r>
       <r>   -8.9831    1.0000 </r>
       <r>   -8.4195    1.0000 </r>
       <r>   -8.4195    1.0000 </r>
       <r>   -8.3069    1.0000 </r>
       <r>   -2.0239    1.0000 </r>
       <r>   -2.0239    1.0000 </r>
       <r>   -1.5761    1.0000 </r>
       <r>   -1.1115    1.0000 </r>
       <r>   -0.2983    1.0000 </r>
       <r>    0.5809    1.0000 </r>
       <r>    0.5809    1.0000 </r>
       <r>    2.2782    1.0000 </r>
[...]
       <r>   10.8181    0.0000 </r>
       <r>   11.8900    0.0000 </r>
       <r>   11.8900    0.0000 </r>
       <r>   12.2796    0.0000 </r>
       <r>   12.2799    0.0000 </r>
      </set>
      <set comment="kpoint 71">
       <r>   -8.0969    1.0000 </r>
       <r>   -8.0969    1.0000 </r>
       <r>   -7.7158    1.0000 </r>
       <r>   -7.7158    1.0000 </r>
       <r>   -7.6844    1.0000 </r>
       <r>   -7.6844    1.0000 </r>
       <r>   -1.8519    1.0000 </r>
       <r>   -1.8519    1.0000 </r>
       <r>   -1.0256    1.0000 </r>
       <r>   -1.0256    1.0000 </r>
       <r>   -0.6410    1.0000 </r>
       <r>   -0.6410    1.0000 </r>
       <r>    0.6288    1.0000 </r>
       <r>    0.6288    1.0000 </r>
       <r>    1.1448    1.0000 </r>
       <r>    1.1448    1.0000 </r>
       <r>    1.3775    1.0000 </r>
       <r>    1.3775    1.0000 </r>
       <r>    2.1365    1.0000 </r>
       <r>    2.1365    1.0000 </r>
       <r>    3.7925    1.0000 </r>
       <r>    3.7925    1.0000 </r>
       <r>    3.9967    1.0000 </r>
       <r>    3.9967    1.0000 </r>
       <r>    5.2342    1.0000 </r>
       <r>    5.2342    1.0000 </r>
       <r>    5.6283    1.0000 </r>
       <r>    5.6283    1.0000 </r>
       <r>    6.5845    1.0000 </r>
       <r>    6.5845    1.0000 </r>
       <r>    8.1759    1.0000 </r>
       <r>    8.1759    1.0000 </r>
       <r>    9.6694    0.0000 </r>
       <r>    9.6694    0.0000 </r>
       <r>   10.8366    0.0000 </r>
       <r>   10.8366    0.0000 </r>
       <r>   11.8246    0.0000 </r>
       <r>   11.8246    0.0000 </r>
       <r>   12.3224    0.0000 </r>
       <r>   12.3226    0.0000 </r>
      </set>
      <set comment="kpoint 72">
       <r>   -8.0925    1.0000 </r>
       <r>   -8.0925    1.0000 </r>
       <r>   -7.7196    1.0000 </r>
       <r>   -7.7196    1.0000 </r>
       <r>   -7.6860    1.0000 </r>
       <r>   -7.6860    1.0000 </r>
       <r>   -1.8836    1.0000 </r>
       <r>   -1.8836    1.0000 </r>
       <r>   -0.8747    1.0000 </r>
       <r>   -0.8747    1.0000 </r>
       <r>   -0.7318    1.0000 </r>
       <r>   -0.7318    1.0000 </r>
       <r>    0.6131    1.0000 </r>
       <r>    0.6131    1.0000 </r>
       <r>    1.1534    1.0000 </r>
       <r>    1.1534    1.0000 </r>
       <r>    1.3596    1.0000 </r>
       <r>    1.3596    1.0000 </r>
       <r>    2.1155    1.0000 </r>
       <r>    2.1155    1.0000 </r>
       <r>    3.7902    1.0000 </r>
       <r>    3.7902    1.0000 </r>
       <r>    3.9794    1.0000 </r>
       <r>    3.9794    1.0000 </r>
       <r>    5.2454    1.0000 </r>
       <r>    5.2454    1.0000 </r>
       <r>    5.5527    1.0000 </r>
       <r>    5.5527    1.0000 </r>
       <r>    6.7948    1.0000 </r>
       <r>    6.7948    1.0000 </r>
       <r>    8.1093    1.0000 </r>
       <r>    8.1093    1.0000 </r>
       <r>    9.6647    0.0000 </r>
       <r>    9.6647    0.0000 </r>
       <r>   10.7357    0.0000 </r>
       <r>   10.7357    0.0000 </r>
       <r>   12.0636    0.0000 </r>
       <r>   12.0637    0.0000 </r>
       <r>   12.1071    0.0000 </r>
       <r>   12.1071    0.0000 </r>
      </set>
     </set>
    </set>
   </array>
  </eigenvalues>
  <separator name="orbital magnetization" >
   <v name="MAGDIPOLOUT">      0.00000000      0.00000000      0.00000000</v>
  </separator>
  <dos>
   <i name="efermi">      9.32847896 </i>
   <total>
    <array>
     <dimension dim="1">gridpoints</dimension>
     <dimension dim="2">spin</dimension>
     <field>energy</field>
     <field>total</field>
     <field>integrated</field>
     <set>
      <set comment="spin 1">
       <r>   -11.6024     0.0000     0.0000 </r>
       <r>   -11.5128     0.0000     0.0000 </r>
       <r>   -11.4233     0.0000     0.0000 </r>
       <r>   -11.3337     0.0000     0.0000 </r>
       <r>   -11.2442     0.0000     0.0000 </r>
       <r>   -11.1547     0.0000     0.0000 </r>
       <r>   -11.0651     0.0000     0.0000 </r>
       <r>   -10.9756     0.0000     0.0000 </r>
       <r>   -10.8860     0.0000     0.0000 </r>
       <r>   -10.7965     0.0000     0.0000 </r>
       <r>   -10.7070     0.0000     0.0000 </r>
       <r>   -10.6174     0.0003     0.0000 </r>
       <r>   -10.5279     0.0020     0.0002 </r>
       <r>   -10.4384    -0.0172    -0.0013 </r>
       <r>   -10.3488     0.1401     0.0112 </r>
       <r>   -10.2593     0.6152     0.0663 </r>
       <r>   -10.1697     1.0717     0.1622 </r>
       <r>   -10.0802     1.1738     0.2673 </r>
       <r>    -9.9907     1.7591     0.4249 </r>
       <r>    -9.9011     1.4184     0.5519 </r>
       <r>    -9.8116     2.2163     0.7503 </r>
       <r>    -9.7221     2.1846     0.9459 </r>
       <r>    -9.6325     2.3126     1.1530 </r>
       <r>    -9.5430     3.3246     1.4506 </r>
       <r>    -9.4534     3.4469     1.7593 </r>
       <r>    -9.3639     4.4189     2.1549 </r>
       <r>    -9.2744     3.1886     2.4404 </r>
       <r>    -9.1848     2.8155     2.6925 </r>
       <r>    -9.0953     3.0647     2.9669 </r>
       <r>    -9.0058     2.4956     3.1904 </r>
       <r>    -8.9162     3.2277     3.4794 </r>
       <r>    -8.8267     4.7123     3.9013 </r>
       <r>    -8.7371     4.9351     4.3432 </r>
       <r>    -8.6476     3.9593     4.6977 </r>
       <r>    -8.5581     6.3401     5.2654 </r>
       <r>    -8.4685     5.4462     5.7530 </r>
       <r>    -8.3790     5.5669     6.2514 </r>
       <r>    -8.2895     5.6951     6.7614 </r>
       <r>    -8.1999     4.5466     7.1685 </r>
       <r>    -8.1104     8.4196     7.9223 </r>
       <r>    -8.0208     7.7637     8.6175 </r>
       <r>    -7.9313     6.1540     9.1685 </r>
       <r>    -7.8418     6.7730     9.7749 </r>
       <r>    -7.7522     4.7225    10.1978 </r>
       <r>    -7.6627     9.0177    11.0052 </r>
       <r>    -7.5732     6.7899    11.6132 </r>
       <r>    -7.4836     3.7879    11.9523 </r>
       <r>    -7.3941     0.6119    12.0071 </r>
       <r>    -7.3045    -0.0944    11.9987 </r>
       <r>    -7.2150     0.0136    11.9999 </r>
       <r>    -7.1255     0.0014    12.0000 </r>
       <r>    -7.0359     0.0000    12.0000 </r>
       <r>    -6.9464     0.0000    12.0000 </r>
       <r>    -6.8569     0.0000    12.0000 </r>
       <r>    -6.7673     0.0000    12.0000 </r>
       <r>    -6.6778     0.0000    12.0000 </r>
       <r>    -6.5882     0.0000    12.0000 </r>
       <r>    -6.4987     0.0000    12.0000 </r>
       <r>    -6.4092     0.0000    12.0000 </r>
       <r>    -6.3196     0.0000    12.0000 </r>
       <r>    -6.2301     0.0000    12.0000 </r>
       <r>    -6.1405     0.0000    12.0000 </r>
       <r>    -6.0510     0.0000    12.0000 </r>
       <r>    -5.9615     0.0000    12.0000 </r>
       <r>    -5.8719     0.0000    12.0000 </r>
       <r>    -5.7824     0.0000    12.0000 </r>
       <r>    -5.6929     0.0000    12.0000 </r>
       <r>    -5.6033     0.0000    12.0000 </r>
       <r>    -5.5138     0.0000    12.0000 </r>
       <r>    -5.4242     0.0000    12.0000 </r>
       <r>    -5.3347     0.0000    12.0000 </r>
       <r>    -5.2452     0.0000    12.0000 </r>
       <r>    -5.1556     0.0000    12.0000 </r>
       <r>    -5.0661     0.0000    12.0000 </r>
       <r>    -4.9766     0.0000    12.0000 </r>
       <r>    -4.8870     0.0000    12.0000 </r>
       <r>    -4.7975     0.0000    12.0000 </r>
       <r>    -4.7079     0.0000    12.0000 </r>
       <r>    -4.6184     0.0000    12.0000 </r>
       <r>    -4.5289     0.0000    12.0000 </r>
       <r>    -4.4393     0.0000    12.0000 </r>
       <r>    -4.3498     0.0000    12.0000 </r>
       <r>    -4.2603     0.0000    12.0000 </r>
       <r>    -4.1707     0.0000    12.0000 </r>
       <r>    -4.0812     0.0000    12.0000 </r>
       <r>    -3.9916     0.0000    12.0000 </r>
       <r>    -3.9021     0.0000    12.0000 </r>
       <r>    -3.8126     0.0000    12.0000 </r>
       <r>    -3.7230     0.0000    12.0000 </r>
       <r>    -3.6335     0.0000    12.0000 </r>
       <r>    -3.5440     0.0001    12.0000 </r>
       <r>    -3.4544     0.0014    12.0001 </r>
       <r>    -3.3649    -0.0034    11.9998 </r>
       <r>    -3.2753     0.0081    12.0006 </r>
       <r>    -3.1858     0.5949    12.0538 </r>
       <r>    -3.0963     1.1992    12.1612 </r>
       <r>    -3.0067     0.8614    12.2383 </r>
       <r>    -2.9172     1.6948    12.3901 </r>
       <r>    -2.8277     0.5721    12.4413 </r>
       <r>    -2.7381     1.0889    12.5388 </r>
       <r>    -2.6486     1.1589    12.6426 </r>
       <r>    -2.5590     0.8185    12.7158 </r>
       <r>    -2.4695     0.8490    12.7919 </r>
       <r>    -2.3800     0.8747    12.8702 </r>
       <r>    -2.2904     1.4774    13.0025 </r>
       <r>    -2.2009     2.6096    13.2361 </r>
       <r>    -2.1114     1.6999    13.3883 </r>
       <r>    -2.0218     2.4690    13.6094 </r>
       <r>    -1.9323     3.1687    13.8931 </r>
       <r>    -1.8427     4.6692    14.3112 </r>
       <r>    -1.7532     5.1146    14.7691 </r>
       <r>    -1.6637     5.6718    15.2770 </r>
       <r>    -1.5741     7.6100    15.9583 </r>
       <r>    -1.4846     5.9555    16.4916 </r>
       <r>    -1.3950     2.2243    16.6907 </r>
       <r>    -1.3055     2.4169    16.9071 </r>
       <r>    -1.2160     4.8408    17.3406 </r>
       <r>    -1.1264     4.5258    17.7458 </r>
       <r>    -1.0369     4.4096    18.1406 </r>
       <r>    -0.9474     6.5031    18.7229 </r>
       <r>    -0.8578     4.7533    19.1485 </r>
       <r>    -0.7683     5.2972    19.6228 </r>
       <r>    -0.6787     5.2204    20.0902 </r>
       <r>    -0.5892     5.7081    20.6013 </r>
       <r>    -0.4997     5.0440    21.0529 </r>
       <r>    -0.4101     3.7965    21.3929 </r>
       <r>    -0.3206     4.0838    21.7585 </r>
       <r>    -0.2311     2.7238    22.0024 </r>
       <r>    -0.1415     3.1850    22.2876 </r>
       <r>    -0.0520     2.5176    22.5130 </r>
       <r>     0.0376     2.6192    22.7475 </r>
       <r>     0.1271     3.6741    23.0765 </r>
       <r>     0.2166     3.1439    23.3580 </r>
       <r>     0.3062     5.7934    23.8767 </r>
       <r>     0.3957     7.8776    24.5820 </r>
       <r>     0.4852     3.1401    24.8632 </r>
       <r>     0.5748     1.9452    25.0374 </r>
       <r>     0.6643     3.8334    25.3806 </r>
       <r>     0.7539     3.7199    25.7137 </r>
       <r>     0.8434     4.3791    26.1058 </r>
       <r>     0.9329     3.2521    26.3970 </r>
       <r>     1.0225     3.5255    26.7126 </r>
       <r>     1.1120     6.2980    27.2765 </r>
       <r>     1.2015     8.1475    28.0060 </r>
       <r>     1.2911     5.1500    28.4672 </r>
       <r>     1.3806     6.9395    29.0885 </r>
       <r>     1.4702     5.2880    29.5620 </r>
       <r>     1.5597     5.2408    30.0312 </r>
       <r>     1.6492     3.9624    30.3860 </r>
       <r>     1.7388     3.9499    30.7397 </r>
       <r>     1.8283     3.8498    31.0844 </r>
       <r>     1.9178     4.4877    31.4862 </r>
       <r>     2.0074     6.6696    32.0834 </r>
       <r>     2.0969     6.1021    32.6297 </r>
       <r>     2.1865     7.1700    33.2717 </r>
       <r>     2.2760     5.3277    33.7488 </r>
       <r>     2.3655     7.6636    34.4349 </r>
       <r>     2.4551     6.7736    35.0414 </r>
       <r>     2.5446     4.0516    35.4042 </r>
       <r>     2.6341     6.1116    35.9514 </r>
       <r>     2.7237     5.8315    36.4736 </r>
       <r>     2.8132     3.9421    36.8265 </r>
       <r>     2.9028     3.9119    37.1768 </r>
       <r>     2.9923     5.7660    37.6931 </r>
       <r>     3.0818     5.5419    38.1893 </r>
       <r>     3.1714     3.7429    38.5244 </r>
       <r>     3.2609     5.7507    39.0393 </r>
       <r>     3.3505     6.1275    39.5880 </r>
       <r>     3.4400     5.1561    40.0496 </r>
       <r>     3.5295     4.5944    40.4610 </r>
       <r>     3.6191     3.8470    40.8055 </r>
       <r>     3.7086     6.2566    41.3657 </r>
       <r>     3.7981     8.8727    42.1601 </r>
       <r>     3.8877     7.1133    42.7970 </r>
       <r>     3.9772     9.9009    43.6835 </r>
       <r>     4.0668    12.3608    44.7903 </r>
       <r>     4.1563     9.6070    45.6505 </r>
       <r>     4.2458     7.1396    46.2897 </r>
       <r>     4.3354     4.7240    46.7127 </r>
       <r>     4.4249     3.5543    47.0309 </r>
       <r>     4.5144     1.0825    47.1279 </r>
       <r>     4.6040     3.1710    47.4118 </r>
       <r>     4.6935     3.6978    47.7429 </r>
       <r>     4.7831     1.7121    47.8962 </r>
       <r>     4.8726     2.0962    48.0839 </r>
       <r>     4.9621     2.7571    48.3307 </r>
       <r>     5.0517     1.5123    48.4662 </r>
       <r>     5.1412     2.9850    48.7334 </r>
       <r>     5.2307     5.6295    49.2375 </r>
       <r>     5.3203     6.1263    49.7860 </r>
       <r>     5.4098     5.1881    50.2505 </r>
       <r>     5.4994     3.8392    50.5943 </r>
       <r>     5.5889     6.6555    51.1902 </r>
       <r>     5.6784     7.6003    51.8707 </r>
       <r>     5.7680     6.1601    52.4223 </r>
       <r>     5.8575     7.2447    53.0710 </r>
       <r>     5.9470     5.7768    53.5882 </r>
       <r>     6.0366     4.3797    53.9804 </r>
       <r>     6.1261     3.9710    54.3359 </r>
       <r>     6.2157     4.4815    54.7372 </r>
       <r>     6.3052     3.3368    55.0360 </r>
       <r>     6.3947     3.2479    55.3268 </r>
       <r>     6.4843     2.1316    55.5176 </r>
       <r>     6.5738     1.4586    55.6482 </r>
       <r>     6.6633     1.1152    55.7481 </r>
       <r>     6.7529     1.2389    55.8590 </r>
       <r>     6.8424     2.4988    56.0828 </r>
       <r>     6.9320     1.9648    56.2587 </r>
       <r>     7.0215     2.9752    56.5251 </r>
       <r>     7.1110     3.1755    56.8094 </r>
       <r>     7.2006     4.1647    57.1823 </r>
       <r>     7.2901     3.0262    57.4533 </r>
       <r>     7.3796     1.8255    57.6167 </r>
       <r>     7.4692     2.3281    57.8252 </r>
       <r>     7.5587     2.9923    58.0931 </r>
       <r>     7.6483     1.5690    58.2336 </r>
       <r>     7.7378     1.9826    58.4111 </r>
       <r>     7.8273     1.5125    58.5465 </r>
       <r>     7.9169     2.1303    58.7373 </r>
       <r>     8.0064     1.9729    58.9139 </r>
       <r>     8.0960     2.8922    59.1729 </r>
       <r>     8.1855     3.4369    59.4806 </r>
       <r>     8.2750     0.9480    59.5655 </r>
       <r>     8.3646     1.4647    59.6966 </r>
       <r>     8.4541     2.0417    59.8794 </r>
       <r>     8.5436     1.5567    60.0188 </r>
       <r>     8.6332     0.5603    60.0690 </r>
       <r>     8.7227     2.5276    60.2953 </r>
       <r>     8.8123     2.6925    60.5364 </r>
       <r>     8.9018     2.0626    60.7211 </r>
       <r>     8.9913     1.0597    60.8159 </r>
       <r>     9.0809     1.8593    60.9824 </r>
       <r>     9.1704     4.0499    61.3450 </r>
       <r>     9.2599     4.3118    61.7311 </r>
       <r>     9.3495     4.1034    62.0985 </r>
       <r>     9.4390     3.8975    62.4475 </r>
       <r>     9.5286     1.9472    62.6218 </r>
       <r>     9.6181     2.7129    62.8647 </r>
       <r>     9.7076     5.3511    63.3439 </r>
       <r>     9.7972     2.8100    63.5955 </r>
       <r>     9.8867     2.3310    63.8042 </r>
       <r>     9.9762     2.6559    64.0420 </r>
       <r>    10.0658     3.0137    64.3118 </r>
       <r>    10.1553     3.2179    64.5999 </r>
       <r>    10.2449     1.7410    64.7558 </r>
       <r>    10.3344     2.8055    65.0070 </r>
       <r>    10.4239     5.3965    65.4902 </r>
       <r>    10.5135     5.6114    65.9926 </r>
       <r>    10.6030     5.3654    66.4731 </r>
       <r>    10.6925     4.5757    66.8828 </r>
       <r>    10.7821     2.1135    67.0720 </r>
       <r>    10.8716     3.1311    67.3523 </r>
       <r>    10.9612     3.7396    67.6872 </r>
       <r>    11.0507     2.9188    67.9485 </r>
       <r>    11.1402     2.1381    68.1400 </r>
       <r>    11.2298     4.6355    68.5550 </r>
       <r>    11.3193     5.3801    69.0367 </r>
       <r>    11.4088     4.3394    69.4253 </r>
       <r>    11.4984     3.6525    69.7523 </r>
       <r>    11.5879     3.8109    70.0935 </r>
       <r>    11.6775     3.8372    70.4371 </r>
       <r>    11.7670     3.5786    70.7575 </r>
       <r>    11.8565     3.8607    71.1032 </r>
       <r>    11.9461     4.7632    71.5297 </r>
       <r>    12.0356     4.4423    71.9275 </r>
       <r>    12.1252     6.7391    72.5309 </r>
       <r>    12.2147     5.8611    73.0556 </r>
       <r>    12.3042     6.3758    73.6265 </r>
       <r>    12.3938     8.5960    74.3962 </r>
       <r>    12.4833     6.4007    74.9693 </r>
       <r>    12.5728     4.4370    75.3666 </r>
       <r>    12.6624     6.1599    75.9181 </r>
       <r>    12.7519     3.1604    76.2011 </r>
       <r>    12.8415     2.8323    76.4547 </r>
       <r>    12.9310     3.6718    76.7835 </r>
       <r>    13.0205     5.1492    77.2445 </r>
       <r>    13.1101     3.8132    77.5859 </r>
       <r>    13.1996     3.6738    77.9149 </r>
       <r>    13.2891     4.2346    78.2940 </r>
       <r>    13.3787     4.5476    78.7012 </r>
       <r>    13.4682     3.2162    78.9892 </r>
       <r>    13.5578     2.7277    79.2334 </r>
       <r>    13.6473     2.5459    79.4614 </r>
       <r>    13.7368     1.9232    79.6336 </r>
       <r>    13.8264     1.5085    79.7686 </r>
       <r>    13.9159     1.0098    79.8591 </r>
       <r>    14.0054     0.8036    79.9310 </r>
       <r>    14.0950     0.8196    80.0044 </r>
       <r>    14.1845    -0.0492    80.0000 </r>
       <r>    14.2741    -0.0020    79.9998 </r>
       <r>    14.3636     0.0020    80.0000 </r>
       <r>    14.4531     0.0000    80.0000 </r>
       <r>    14.5427     0.0000    80.0000 </r>
       <r>    14.6322     0.0000    80.0000 </r>
       <r>    14.7217     0.0000    80.0000 </r>
       <r>    14.8113     0.0000    80.0000 </r>
       <r>    14.9008     0.0000    80.0000 </r>
       <r>    14.9904     0.0000    80.0000 </r>
       <r>    15.0799     0.0000    80.0000 </r>
       <r>    15.1694     0.0000    80.0000 </r>
       <r>    15.2590     0.0000    80.0000 </r>
      </set>
     </set>
    </array>
   </total>
  </dos>
 </calculation>
 <structure name="finalpos" >
  <crystal>
   <varray name="basis" >
    <v>       4.06064839      -7.03324931       0.00000000 </v>
    <v>       4.06064838       7.03324932       0.00000000 </v>
    <v>       0.00000000       0.00000000       2.85650437 </v>
   </varray>
   <i name="volume">    163.16097317 </i>
   <varray name="rec_basis" >
    <v>       0.12313304      -0.07109090       0.00000000 </v>
    <v>       0.12313304       0.07109090       0.00000000 </v>
    <v>       0.00000000       0.00000000       0.35007823 </v>
   </varray>
  </crystal>
  <varray name="positions" >
   <v>       0.19798834       0.83130226       0.75000000 </v>
   <v>       0.36668608       0.19798834       0.25000000 </v>
   <v>       0.83130226       0.63331392       0.25000000 </v>
   <v>       0.16869774       0.36668608       0.75000000 </v>
   <v>       0.63331392       0.80201166       0.75000000 </v>
   <v>       0.80201166       0.16869774       0.25000000 </v>
   <v>       0.33333333       0.66666667       0.75000000 </v>
   <v>       0.66666667       0.33333333       0.25000000 </v>
   <v>       0.96324433       0.61382092       0.75000000 </v>
   <v>       0.34942341       0.96324433       0.25000000 </v>
   <v>       0.61382092       0.65057659       0.25000000 </v>
   <v>       0.38617908       0.34942341       0.75000000 </v>
   <v>       0.03675567       0.38617908       0.25000000 </v>
   <v>       0.65057659       0.03675567       0.75000000 </v>
  </varray>
 </structure>
</modeling>
