unknown system                          
           1
     4.060648   -7.033249    0.000000
     4.060648    7.033249    0.000000
     0.000000    0.000000    2.856504
   Si   N 
   6   8
Direct configuration=     1
   0.19708959  0.83151770  0.75000000
   0.36557189  0.19708959  0.25000000
   0.83151770  0.63442811  0.25000000
   0.16848230  0.36557189  0.75000000
   0.63442811  0.80291041  0.75000000
   0.80291041  0.16848230  0.25000000
   0.33333333  0.66666667  0.75000000
   0.66666667  0.33333333  0.25000000
   0.96358754  0.61246345  0.75000000
   0.35112409  0.96358754  0.25000000
   0.61246345  0.64887591  0.25000000
   0.38753655  0.35112409  0.75000000
   0.03641246  0.38753655  0.25000000
   0.64887591  0.03641246  0.75000000
Direct configuration=     2
   0.19835156  0.83121519  0.75000000
   0.36713637  0.19835156  0.25000000
   0.83121519  0.63286363  0.25000000
   0.16878481  0.36713637  0.75000000
   0.63286363  0.80164844  0.75000000
   0.80164844  0.16878481  0.25000000
   0.33333333  0.66666667  0.75000000
   0.66666667  0.33333333  0.25000000
   0.96310562  0.61436952  0.75000000
   0.34873610  0.96310562  0.25000000
   0.61436952  0.65126390  0.25000000
   0.38563048  0.34873610  0.75000000
   0.03689438  0.38563048  0.25000000
   0.65126390  0.03689438  0.75000000
Direct configuration=     3
   0.19798834  0.83130226  0.75000000
   0.36668608  0.19798834  0.25000000
   0.83130226  0.63331392  0.25000000
   0.16869774  0.36668608  0.75000000
   0.63331392  0.80201166  0.75000000
   0.80201166  0.16869774  0.25000000
   0.33333333  0.66666667  0.75000000
   0.66666667  0.33333333  0.25000000
   0.96324433  0.61382092  0.75000000
   0.34942341  0.96324433  0.25000000
   0.61382092  0.65057659  0.25000000
   0.38617908  0.34942341  0.75000000
   0.03675567  0.38617908  0.25000000
   0.65057659  0.03675567  0.75000000
