  14  14   0   0
  0.1039262E+02  0.7604545E-09  0.7604545E-09  0.2905199E-09  0.5000000E-15
  1.000000000000000E-004
  CAR 
 unknown system                          
     16.62857914    -11.45009810  301     10.03671422      1.00000000
    -11.450  0.0000E+00  0.0000E+00
    -11.357  0.0000E+00  0.0000E+00
    -11.263  0.0000E+00  0.0000E+00
    -11.169  0.0000E+00  0.0000E+00
    -11.076  0.0000E+00  0.0000E+00
    -10.982  0.8727E-30  0.8168E-31
    -10.889  0.9344E-24  0.8745E-25
    -10.795  0.1658E-18  0.1552E-19
    -10.701  0.4853E-14  0.4542E-15
    -10.608  0.2312E-10  0.2164E-11
    -10.514  0.1754E-07  0.1644E-08
    -10.421  0.1927E-05  0.1820E-06
    -10.327  0.1624E-04  0.1702E-05
    -10.233 -0.1230E-03 -0.9809E-05
    -10.140  0.1117E-02  0.9472E-04
    -10.046  0.6204E-02  0.6753E-03
     -9.953  0.8496E-02  0.1471E-02
     -9.859  0.1286E-01  0.2674E-02
     -9.765  0.1411E-01  0.3995E-02
     -9.672  0.1470E-01  0.5370E-02
     -9.578  0.1745E-01  0.7004E-02
     -9.485  0.2031E-01  0.8904E-02
     -9.391  0.2380E-01  0.1113E-01
     -9.297  0.2080E-01  0.1308E-01
     -9.204  0.3533E-01  0.1638E-01
     -9.110  0.3422E-01  0.1959E-01
     -9.017  0.3873E-01  0.2321E-01
     -8.923  0.2959E-01  0.2598E-01
     -8.829  0.2197E-01  0.2804E-01
     -8.736  0.2469E-01  0.3035E-01
     -8.642  0.3197E-01  0.3334E-01
     -8.549  0.4015E-01  0.3710E-01
     -8.455  0.3760E-01  0.4062E-01
     -8.361  0.4072E-01  0.4443E-01
     -8.268  0.4429E-01  0.4858E-01
     -8.174  0.6068E-01  0.5425E-01
     -8.081  0.5038E-01  0.5897E-01
     -7.987  0.4540E-01  0.6322E-01
     -7.893  0.5568E-01  0.6843E-01
     -7.800  0.5196E-01  0.7329E-01
     -7.706  0.5911E-01  0.7883E-01
     -7.613  0.9070E-01  0.8732E-01
     -7.519  0.4908E-01  0.9191E-01
     -7.425  0.4567E-01  0.9618E-01
     -7.332  0.6800E-01  0.1025E+00
     -7.238  0.5697E-01  0.1079E+00
     -7.145  0.8085E-01  0.1154E+00
     -7.051  0.3698E-01  0.1189E+00
     -6.958  0.1263E-01  0.1201E+00
     -6.864 -0.1081E-02  0.1200E+00
     -6.770  0.9804E-04  0.1200E+00
     -6.677  0.2118E-04  0.1200E+00
     -6.583  0.1936E-06  0.1200E+00
     -6.490  0.2325E-09  0.1200E+00
     -6.396  0.4281E-13  0.1200E+00
     -6.302  0.1162E-17  0.1200E+00
     -6.209  0.0000E+00  0.1200E+00
     -6.115  0.0000E+00  0.1200E+00
     -6.022  0.0000E+00  0.1200E+00
     -5.928  0.0000E+00  0.1200E+00
     -5.834  0.0000E+00  0.1200E+00
     -5.741  0.0000E+00  0.1200E+00
     -5.647  0.0000E+00  0.1200E+00
     -5.554  0.0000E+00  0.1200E+00
     -5.460  0.0000E+00  0.1200E+00
     -5.366  0.0000E+00  0.1200E+00
     -5.273  0.0000E+00  0.1200E+00
     -5.179  0.0000E+00  0.1200E+00
     -5.086  0.0000E+00  0.1200E+00
     -4.992  0.0000E+00  0.1200E+00
     -4.898  0.0000E+00  0.1200E+00
     -4.805  0.0000E+00  0.1200E+00
     -4.711  0.0000E+00  0.1200E+00
     -4.618  0.0000E+00  0.1200E+00
     -4.524  0.0000E+00  0.1200E+00
     -4.430  0.0000E+00  0.1200E+00
     -4.337  0.0000E+00  0.1200E+00
     -4.243  0.0000E+00  0.1200E+00
     -4.150  0.0000E+00  0.1200E+00
     -4.056  0.0000E+00  0.1200E+00
     -3.962  0.0000E+00  0.1200E+00
     -3.869  0.0000E+00  0.1200E+00
     -3.775  0.1771E-28  0.1200E+00
     -3.682  0.1609E-22  0.1200E+00
     -3.588  0.2388E-17  0.1200E+00
     -3.494  0.5675E-13  0.1200E+00
     -3.401  0.2074E-09  0.1200E+00
     -3.307  0.1089E-06  0.1200E+00
     -3.214  0.6770E-05  0.1200E+00
     -3.120  0.1537E-05  0.1200E+00
     -3.026 -0.1195E-03  0.1200E+00
     -2.933  0.3028E-02  0.1203E+00
     -2.839  0.8900E-02  0.1211E+00
     -2.746  0.1250E-01  0.1223E+00
     -2.652  0.8228E-02  0.1230E+00
     -2.559  0.1312E-01  0.1243E+00
     -2.465  0.8140E-02  0.1250E+00
     -2.371  0.6432E-02  0.1256E+00
     -2.278  0.1348E-01  0.1269E+00
     -2.184  0.9606E-02  0.1278E+00
     -2.091  0.2943E-02  0.1281E+00
     -1.997  0.9618E-02  0.1290E+00
     -1.903  0.2036E-01  0.1309E+00
     -1.810  0.2570E-01  0.1333E+00
     -1.716  0.2595E-01  0.1357E+00
     -1.623  0.1754E-01  0.1374E+00
     -1.529  0.2675E-01  0.1399E+00
     -1.435  0.4906E-01  0.1445E+00
     -1.342  0.6741E-01  0.1508E+00
     -1.248  0.5455E-01  0.1559E+00
     -1.155  0.5049E-01  0.1606E+00
     -1.061  0.4324E-01  0.1646E+00
     -0.967  0.3892E-01  0.1683E+00
     -0.874  0.2666E-01  0.1708E+00
     -0.780  0.3407E-01  0.1740E+00
     -0.687  0.4702E-01  0.1784E+00
     -0.593  0.4465E-01  0.1825E+00
     -0.499  0.5576E-01  0.1878E+00
     -0.406  0.5073E-01  0.1925E+00
     -0.312  0.4119E-01  0.1964E+00
     -0.219  0.4861E-01  0.2009E+00
     -0.125  0.4646E-01  0.2053E+00
     -0.031  0.4324E-01  0.2093E+00
      0.062  0.6273E-01  0.2152E+00
      0.156  0.4538E-01  0.2194E+00
      0.249  0.1043E-01  0.2204E+00
      0.343  0.1922E-01  0.2222E+00
      0.437  0.3231E-01  0.2252E+00
      0.530  0.4782E-01  0.2297E+00
      0.624  0.3090E-01  0.2326E+00
      0.717  0.5350E-01  0.2376E+00
      0.811  0.6555E-01  0.2437E+00
      0.905  0.3513E-01  0.2470E+00
      0.998  0.2877E-01  0.2497E+00
      1.092  0.2603E-01  0.2522E+00
      1.185  0.2931E-01  0.2549E+00
      1.279  0.4573E-01  0.2592E+00
      1.372  0.3854E-01  0.2628E+00
      1.466  0.4003E-01  0.2665E+00
      1.560  0.6992E-01  0.2731E+00
      1.653  0.5395E-01  0.2781E+00
      1.747  0.4050E-01  0.2819E+00
      1.840  0.8138E-01  0.2895E+00
      1.934  0.6350E-01  0.2955E+00
      2.028  0.4966E-01  0.3001E+00
      2.121  0.3578E-01  0.3035E+00
      2.215  0.3080E-01  0.3064E+00
      2.308  0.4946E-01  0.3110E+00
      2.402  0.5742E-01  0.3164E+00
      2.496  0.5479E-01  0.3215E+00
      2.589  0.5651E-01  0.3268E+00
      2.683  0.5183E-01  0.3316E+00
      2.776  0.7191E-01  0.3384E+00
      2.870  0.7554E-01  0.3454E+00
      2.964  0.4284E-01  0.3494E+00
      3.057  0.5083E-01  0.3542E+00
      3.151  0.5870E-01  0.3597E+00
      3.244  0.4207E-01  0.3636E+00
      3.338  0.3718E-01  0.3671E+00
      3.432  0.4884E-01  0.3717E+00
      3.525  0.5783E-01  0.3771E+00
      3.619  0.4592E-01  0.3814E+00
      3.712  0.4686E-01  0.3858E+00
      3.806  0.4595E-01  0.3901E+00
      3.900  0.6342E-01  0.3960E+00
      3.993  0.5372E-01  0.4010E+00
      4.087  0.4126E-01  0.4049E+00
      4.180  0.3878E-01  0.4085E+00
      4.274  0.6156E-01  0.4143E+00
      4.368  0.8252E-01  0.4220E+00
      4.461  0.7868E-01  0.4294E+00
      4.555  0.9671E-01  0.4384E+00
      4.648  0.9674E-01  0.4475E+00
      4.742  0.9483E-01  0.4564E+00
      4.836  0.6309E-01  0.4623E+00
      4.929  0.4338E-01  0.4663E+00
      5.023  0.2759E-01  0.4689E+00
      5.116  0.1810E-01  0.4706E+00
      5.210  0.3089E-01  0.4735E+00
      5.304  0.3266E-01  0.4766E+00
      5.397  0.2127E-01  0.4785E+00
      5.491  0.1626E-01  0.4801E+00
      5.584  0.2510E-01  0.4824E+00
      5.678  0.3439E-01  0.4856E+00
      5.771  0.4879E-01  0.4902E+00
      5.865  0.4781E-01  0.4947E+00
      5.959  0.6780E-01  0.5010E+00
      6.052  0.5272E-01  0.5060E+00
      6.146  0.4609E-01  0.5103E+00
      6.239  0.5807E-01  0.5157E+00
      6.333  0.7542E-01  0.5228E+00
      6.427  0.7694E-01  0.5300E+00
      6.520  0.5783E-01  0.5354E+00
      6.614  0.5088E-01  0.5401E+00
      6.707  0.3246E-01  0.5432E+00
      6.801  0.4943E-01  0.5478E+00
      6.895  0.4325E-01  0.5519E+00
      6.988  0.1298E-01  0.5531E+00
      7.082  0.1400E-01  0.5544E+00
      7.175  0.1119E-01  0.5554E+00
      7.269  0.2308E-01  0.5576E+00
      7.363  0.1803E-01  0.5593E+00
      7.456  0.2235E-01  0.5614E+00
      7.550  0.2177E-01  0.5634E+00
      7.643  0.1349E-01  0.5647E+00
      7.737  0.2544E-01  0.5670E+00
      7.831  0.3875E-01  0.5707E+00
      7.924  0.3075E-01  0.5735E+00
      8.018  0.2856E-01  0.5762E+00
      8.111  0.3289E-01  0.5793E+00
      8.205  0.2481E-02  0.5795E+00
      8.299  0.1335E-01  0.5808E+00
      8.392  0.2500E-01  0.5831E+00
      8.486  0.3519E-01  0.5864E+00
      8.579  0.2601E-01  0.5889E+00
      8.673  0.6429E-02  0.5895E+00
      8.767  0.1865E-01  0.5912E+00
      8.860  0.2848E-01  0.5939E+00
      8.954  0.2015E-01  0.5957E+00
      9.047  0.1175E-01  0.5968E+00
      9.141  0.1423E-01  0.5982E+00
      9.235  0.2814E-01  0.6008E+00
      9.328  0.1797E-01  0.6025E+00
      9.422  0.1246E-01  0.6037E+00
      9.515  0.1874E-01  0.6054E+00
      9.609  0.1230E-01  0.6066E+00
      9.703  0.2487E-01  0.6089E+00
      9.796  0.4646E-01  0.6132E+00
      9.890  0.3111E-01  0.6162E+00
      9.983  0.3126E-01  0.6191E+00
     10.077  0.1754E-01  0.6207E+00
     10.170  0.2583E-01  0.6231E+00
     10.264  0.1786E-01  0.6248E+00
     10.358  0.1545E-01  0.6263E+00
     10.451  0.2815E-01  0.6289E+00
     10.545  0.3585E-01  0.6322E+00
     10.638  0.3397E-01  0.6354E+00
     10.732  0.2948E-01  0.6382E+00
     10.826  0.2764E-01  0.6408E+00
     10.919  0.2718E-01  0.6433E+00
     11.013  0.4274E-01  0.6473E+00
     11.106  0.4870E-01  0.6519E+00
     11.200  0.4987E-01  0.6565E+00
     11.294  0.5594E-01  0.6618E+00
     11.387  0.3226E-01  0.6648E+00
     11.481  0.3266E-01  0.6679E+00
     11.574  0.2932E-01  0.6706E+00
     11.668  0.2599E-01  0.6730E+00
     11.762  0.3106E-01  0.6759E+00
     11.855  0.2739E-01  0.6785E+00
     11.949  0.2968E-01  0.6813E+00
     12.042  0.2319E-01  0.6835E+00
     12.136  0.3724E-01  0.6869E+00
     12.230  0.5548E-01  0.6921E+00
     12.323  0.4673E-01  0.6965E+00
     12.417  0.3724E-01  0.7000E+00
     12.510  0.3484E-01  0.7033E+00
     12.604  0.2590E-01  0.7057E+00
     12.698  0.2346E-01  0.7079E+00
     12.791  0.2826E-01  0.7105E+00
     12.885  0.5135E-01  0.7153E+00
     12.978  0.4747E-01  0.7198E+00
     13.072  0.5526E-01  0.7249E+00
     13.166  0.8074E-01  0.7325E+00
     13.259  0.6859E-01  0.7389E+00
     13.353  0.6490E-01  0.7450E+00
     13.446  0.6120E-01  0.7507E+00
     13.540  0.5445E-01  0.7558E+00
     13.634  0.3938E-01  0.7595E+00
     13.727  0.2869E-01  0.7622E+00
     13.821  0.3656E-01  0.7656E+00
     13.914  0.2001E-01  0.7675E+00
     14.008  0.4150E-01  0.7714E+00
     14.101  0.5287E-01  0.7763E+00
     14.195  0.3272E-01  0.7794E+00
     14.289  0.3831E-01  0.7830E+00
     14.382  0.3944E-01  0.7866E+00
     14.476  0.2419E-01  0.7889E+00
     14.569  0.3672E-01  0.7923E+00
     14.663  0.1864E-01  0.7941E+00
     14.757  0.1986E-01  0.7960E+00
     14.850  0.1915E-01  0.7977E+00
     14.944  0.6986E-02  0.7984E+00
     15.037  0.1079E-01  0.7994E+00
     15.131  0.3707E-02  0.7998E+00
     15.225  0.1951E-02  0.7999E+00
     15.318  0.4631E-03  0.8000E+00
     15.412  0.1745E-03  0.8000E+00
     15.505  0.1544E-04  0.8000E+00
     15.599 -0.2830E-05  0.8000E+00
     15.693  0.6551E-06  0.8000E+00
     15.786  0.1071E-07  0.8000E+00
     15.880  0.1822E-10  0.8000E+00
     15.973  0.4327E-14  0.8000E+00
     16.067  0.1614E-18  0.8000E+00
     16.161  0.0000E+00  0.8000E+00
     16.254  0.0000E+00  0.8000E+00
     16.348  0.0000E+00  0.8000E+00
     16.441  0.0000E+00  0.8000E+00
     16.535  0.0000E+00  0.8000E+00
     16.629  0.0000E+00  0.8000E+00
