   14   14  100    1
  0.1039262E+02  0.7604544E-09  0.7604544E-09  0.2905199E-09  0.5000000E-15
  1.000000000000000E-004
  CAR 
 unknown system                          
     62     72     40
 
  0.3742002E-15  0.3742002E-15  0.3742002E-15  0.1360544E-02
    1      -10.173795   1.000000
    2       -9.032486   1.000000
    3       -9.032485   1.000000
    4       -8.411942   1.000000
    5       -8.411942   1.000000
    6       -8.258229   1.000000
    7       -2.003515   1.000000
    8       -2.003515   1.000000
    9       -1.768568   1.000000
   10       -1.135108   1.000000
   11        0.071611   1.000000
   12        0.810260   1.000000
   13        0.810260   1.000000
   14        2.686860   1.000000
   15        2.686860   1.000000
   16        3.538750   1.000000
   17        3.846741   1.000000
   18        3.846742   1.000000
   19        4.281965   1.000000
   20        4.527600   1.000000
   21        5.062971   1.000000
   22        5.062971   1.000000
   23        5.553971   1.000000
   24        5.553971   1.000000
   25        5.732267   1.000000
   26        6.939700   1.000000
   27        6.967477   1.000000
   28        6.967477   1.000000
   29        8.894728   1.000000
   30        9.171717   1.000000
   31        9.171717   1.000000
   32       13.032580   0.000000
   33       13.266592   0.000000
   34       13.266592   0.000000
   35       13.385955   0.000000
   36       13.385955   0.000000
   37       14.747430   0.000000
   38       14.747430   0.000000
   39       14.796526   0.000000
   40       15.352276   0.000000
 
  0.1428571E+00  0.3469447E-15  0.3742002E-15  0.8163265E-02
    1      -10.135724   1.000000
    2       -9.115417   1.000000
    3       -9.067875   1.000000
    4       -8.560079   1.000000
    5       -8.358296   1.000000
    6       -8.055307   1.000000
    7       -2.266003   1.000000
    8       -1.988944   1.000000
    9       -1.711807   1.000000
   10       -0.867362   1.000000
   11       -0.040440   1.000000
   12        0.687233   1.000000
   13        0.916725   1.000000
   14        2.600328   1.000000
   15        2.731696   1.000000
   16        3.539613   1.000000
   17        3.682595   1.000000
   18        3.981449   1.000000
   19        4.542556   1.000000
   20        4.550093   1.000000
   21        5.032748   1.000000
   22        5.054458   1.000000
   23        5.514209   1.000000
   24        5.566389   1.000000
   25        5.780771   1.000000
   26        6.741277   1.000000
   27        6.781871   1.000000
   28        7.050904   1.000000
   29        8.839103   1.000000
   30        9.338204   1.000000
   31        9.385486   1.000000
   32       12.780012   0.000000
   33       13.098320   0.000000
   34       13.136128   0.000000
   35       13.409193   0.000000
   36       13.473376   0.000000
   37       14.488479   0.000000
   38       14.718747   0.000000
   39       14.777559   0.000000
   40       15.198071   0.000000
 
  0.2857143E+00  0.3608225E-15  0.3742002E-15  0.8163265E-02
    1      -10.023757   1.000000
    2       -9.335360   1.000000
    3       -9.132959   1.000000
    4       -8.653569   1.000000
    5       -8.250512   1.000000
    6       -7.831298   1.000000
    7       -2.632221   1.000000
    8       -1.952494   1.000000
    9       -1.551132   1.000000
   10       -0.595141   1.000000
   11       -0.229084   1.000000
   12        0.434579   1.000000
   13        1.264526   1.000000
   14        2.433653   1.000000
   15        2.695956   1.000000
   16        3.374052   1.000000
   17        3.740775   1.000000
   18        4.219045   1.000000
   19        4.611769   1.000000
   20        4.949679   1.000000
   21        4.957137   1.000000
   22        5.035155   1.000000
   23        5.464486   1.000000
   24        5.593981   1.000000
   25        5.852254   1.000000
   26        6.282427   1.000000
   27        6.441686   1.000000
   28        7.350209   1.000000
   29        8.667349   1.000000
   30        9.646350   0.999998
   31        9.851256   0.996147
   32       11.991870   0.000000
   33       12.898141   0.000000
   34       13.002112   0.000000
   35       13.477315   0.000000
   36       13.602208   0.000000
   37       14.211951   0.000000
   38       14.581297   0.000000
   39       14.680953   0.000000
   40       14.959010   0.000000
 
  0.4285714E+00  0.3608225E-15  0.3742002E-15  0.8163265E-02
    1       -9.848954   1.000000
    2       -9.591322   1.000000
    3       -9.176247   1.000000
    4       -8.683233   1.000000
    5       -8.171439   1.000000
    6       -7.703069   1.000000
    7       -2.847430   1.000000
    8       -1.919319   1.000000
    9       -1.343221   1.000000
   10       -0.750409   1.000000
   11       -0.180754   1.000000
   12        0.245809   1.000000
   13        1.806262   1.000000
   14        2.318843   1.000000
   15        2.425259   1.000000
   16        3.085402   1.000000
   17        4.046892   1.000000
   18        4.385059   1.000000
   19        4.702551   1.000000
   20        4.840743   1.000000
   21        5.021503   1.000000
   22        5.205765   1.000000
   23        5.439850   1.000000
   24        5.611980   1.000000
   25        5.883021   1.000000
   26        5.894568   1.000000
   27        6.256245   1.000000
   28        7.717493   1.000000
   29        8.408985   1.000000
   30        9.830138   0.995123
   31       10.428309   0.000001
   32       11.166861   0.000000
   33       12.761125   0.000000
   34       12.887375   0.000000
   35       13.615223   0.000000
   36       13.740769   0.000000
   37       13.992848   0.000000
   38       14.444496   0.000000
   39       14.539519   0.000000
   40       14.765122   0.000000
 
  0.1428571E+00  0.1428571E+00  0.3742002E-15  0.8163265E-02
    1      -10.060510   1.000000
    2       -9.215071   1.000000
    3       -9.186774   1.000000
    4       -8.601772   1.000000
    5       -8.301794   1.000000
    6       -7.879077   1.000000
    7       -2.555782   1.000000
    8       -1.935554   1.000000
    9       -1.600160   1.000000
   10       -0.670642   1.000000
   11       -0.211302   1.000000
   12        0.602274   1.000000
   13        1.089431   1.000000
   14        2.415152   1.000000
   15        2.848847   1.000000
   16        3.432019   1.000000
   17        3.600971   1.000000
   18        4.199397   1.000000
   19        4.592599   1.000000
   20        4.849853   1.000000
   21        4.987983   1.000000
   22        5.028534   1.000000
   23        5.484176   1.000000
   24        5.580974   1.000000
   25        5.836792   1.000000
   26        6.415455   1.000000
   27        6.532905   1.000000
   28        7.255838   1.000000
   29        8.732181   1.000000
   30        9.587886   1.000000
   31        9.693827   0.999968
   32       12.307771   0.000000
   33       12.654229   0.000000
   34       13.273659   0.000000
   35       13.342731   0.000000
   36       13.634022   0.000000
   37       14.347144   0.000000
   38       14.519582   0.000000
   39       14.903587   0.000000
   40       14.995581   0.000000
 
  0.2857143E+00  0.1428571E+00  0.3742002E-15  0.8163265E-02
    1       -9.915526   1.000000
    2       -9.445455   1.000000
    3       -9.272894   1.000000
    4       -8.590672   1.000000
    5       -8.240927   1.000000
    6       -7.720831   1.000000
    7       -2.826008   1.000000
    8       -1.835627   1.000000
    9       -1.398491   1.000000
   10       -0.751379   1.000000
   11       -0.435213   1.000000
   12        0.660737   1.000000
   13        1.452542   1.000000
   14        2.194321   1.000000
   15        2.820325   1.000000
   16        3.181555   1.000000
   17        3.729153   1.000000
   18        4.420370   1.000000
   19        4.669085   1.000000
   20        4.900780   1.000000
   21        4.993092   1.000000
   22        5.148424   1.000000
   23        5.468167   1.000000
   24        5.591711   1.000000
   25        5.887735   1.000000
   26        6.149024   1.000000
   27        6.180324   1.000000
   28        7.595140   1.000000
   29        8.512174   1.000000
   30        9.893729   1.016417
   31       10.097625   0.009009
   32       11.547066   0.000000
   33       12.326470   0.000000
   34       13.136303   0.000000
   35       13.533599   0.000000
   36       13.857372   0.000000
   37       14.164372   0.000000
   38       14.321703   0.000000
   39       14.780314   0.000000
   40       14.910723   0.000000
 
  0.4285714E+00  0.1428571E+00  0.3742002E-15  0.8163265E-02
    1       -9.748229   1.000000
    2       -9.654989   1.000000
    3       -9.299129   1.000000
    4       -8.583410   1.000000
    5       -8.212335   1.000000
    6       -7.661438   1.000000
    7       -2.927857   1.000000
    8       -1.775453   1.000000
    9       -1.245906   1.000000
   10       -0.887945   1.000000
   11       -0.564165   1.000000
   12        0.701027   1.000000
   13        1.894510   1.000000
   14        1.977679   1.000000
   15        2.613348   1.000000
   16        3.077263   1.000000
   17        3.883025   1.000000
   18        4.504202   1.000000
   19        4.743258   1.000000
   20        4.820155   1.000000
   21        4.981122   1.000000
   22        5.252157   1.000000
   23        5.465612   1.000000
   24        5.597258   1.000000
   25        5.883109   1.000000
   26        5.907057   1.000000
   27        6.190474   1.000000
   28        7.859393   1.000000
   29        8.308952   1.000000
   30        9.958221   1.038938
   31       10.622026   0.000000
   32       10.880025   0.000000
   33       12.274252   0.000000
   34       13.036168   0.000000
   35       13.728143   0.000000
   36       13.846611   0.000000
   37       14.050209   0.000000
   38       14.303975   0.000000
   39       14.708702   0.000000
   40       14.809048   0.000000
 
 -0.4285714E+00  0.1428571E+00  0.3742002E-15  0.8163265E-02
    1       -9.915564   1.000000
    2       -9.445463   1.000000
    3       -9.272887   1.000000
    4       -8.590648   1.000000
    5       -8.240873   1.000000
    6       -7.720797   1.000000
    7       -2.826219   1.000000
    8       -1.833486   1.000000
    9       -1.405277   1.000000
   10       -0.737010   1.000000
   11       -0.444157   1.000000
   12        0.656315   1.000000
   13        1.454037   1.000000
   14        2.207529   1.000000
   15        2.866719   1.000000
   16        3.079147   1.000000
   17        3.771712   1.000000
   18        4.444231   1.000000
   19        4.668414   1.000000
   20        4.901976   1.000000
   21        4.992631   1.000000
   22        5.137655   1.000000
   23        5.468270   1.000000
   24        5.591996   1.000000
   25        5.887554   1.000000
   26        6.014982   1.000000
   27        6.303415   1.000000
   28        7.599563   1.000000
   29        8.510132   1.000000
   30        9.838550   0.995113
   31       10.168753  -0.026295
   32       11.488075   0.000000
   33       12.406688   0.000000
   34       13.120593   0.000000
   35       13.497785   0.000000
   36       13.854778   0.000000
   37       14.107292   0.000000
   38       14.435887   0.000000
   39       14.735885   0.000000
   40       14.935041   0.000000
 
  0.2857143E+00  0.2857143E+00  0.3742002E-15  0.8163265E-02
    1       -9.745137   1.000000
    2       -9.531477   1.000000
    3       -9.479939   1.000000
    4       -8.455505   1.000000
    5       -8.302258   1.000000
    6       -7.639041   1.000000
    7       -2.974772   1.000000
    8       -1.561448   1.000000
    9       -1.205348   1.000000
   10       -1.048455   1.000000
   11       -0.800929   1.000000
   12        1.193042   1.000000
   13        1.547748   1.000000
   14        1.907335   1.000000
   15        2.738166   1.000000
   16        3.248061   1.000000
   17        3.601552   1.000000
   18        4.547210   1.000000
   19        4.745801   1.000000
   20        4.868368   1.000000
   21        4.914672   1.000000
   22        5.270940   1.000000
   23        5.507298   1.000000
   24        5.564839   1.000000
   25        5.914120   1.000000
   26        6.005109   1.000000
   27        6.098081   1.000000
   28        7.917221   1.000000
   29        8.273546   1.000000
   30       10.138130  -0.050648
   31       10.427066   0.000002
   32       10.950033   0.000000
   33       12.005049   0.000000
   34       12.977975   0.000000
   35       13.752901   0.000000
   36       14.022494   0.000000
   37       14.084762   0.000000
   38       14.353705   0.000000
   39       14.665046   0.000000
   40       15.126974   0.000000
 
  0.3742002E-15  0.3742002E-15  0.6666667E-01  0.2721088E-02
    1      -10.114820   1.000000
    2       -8.981308   1.000000
    3       -8.981308   1.000000
    4       -8.364610   1.000000
    5       -8.364610   1.000000
    6       -8.216225   1.000000
    7       -1.954761   1.000000
    8       -1.954760   1.000000
    9       -1.700158   1.000000
   10       -1.073527   1.000000
   11        0.102400   1.000000
   12        0.845302   1.000000
   13        0.845302   1.000000
   14        2.740774   1.000000
   15        2.740775   1.000000
   16        3.548766   1.000000
   17        3.853841   1.000000
   18        3.853842   1.000000
   19        4.216561   1.000000
   20        4.256138   1.000000
   21        4.773721   1.000000
   22        4.773721   1.000000
   23        5.253895   1.000000
   24        5.253895   1.000000
   25        5.391700   1.000000
   26        6.984172   1.000000
   27        6.984172   1.000000
   28        7.127837   1.000000
   29        8.836244   1.000000
   30        9.302261   1.000000
   31        9.302261   1.000000
   32       12.932623   0.000000
   33       13.027597   0.000000
   34       13.027597   0.000000
   35       13.535446   0.000000
   36       13.535446   0.000000
   37       14.084188   0.000000
   38       14.361913   0.000000
   39       14.361913   0.000000
   40       14.424906   0.000000
 
  0.1428571E+00  0.3469447E-15  0.6666667E-01  0.1632653E-01
    1      -10.076990   1.000000
    2       -9.063391   1.000000
    3       -9.016262   1.000000
    4       -8.512921   1.000000
    5       -8.311866   1.000000
    6       -8.014080   1.000000
    7       -2.210601   1.000000
    8       -1.939163   1.000000
    9       -1.643865   1.000000
   10       -0.811755   1.000000
   11       -0.005188   1.000000
   12        0.723198   1.000000
   13        0.949875   1.000000
   14        2.654674   1.000000
   15        2.771307   1.000000
   16        3.549785   1.000000
   17        3.672777   1.000000
   18        3.982947   1.000000
   19        4.249565   1.000000
   20        4.514749   1.000000
   21        4.746983   1.000000
   22        4.766883   1.000000
   23        5.188766   1.000000
   24        5.275727   1.000000
   25        5.483164   1.000000
   26        6.772984   1.000000
   27        6.814326   1.000000
   28        7.220803   1.000000
   29        8.789096   1.000000
   30        9.445959   1.000000
   31        9.489631   1.000000
   32       12.792096   0.000000
   33       12.953884   0.000000
   34       13.040421   0.000000
   35       13.353823   0.000000
   36       13.495090   0.000000
   37       14.021248   0.000000
   38       14.315718   0.000000
   39       14.369561   0.000000
   40       14.485313   0.000000
 
  0.2857143E+00  0.3608225E-15  0.6666667E-01  0.1632653E-01
    1       -9.965675   1.000000
    2       -9.281529   1.000000
    3       -9.080585   1.000000
    4       -8.606131   1.000000
    5       -8.205942   1.000000
    6       -7.792505   1.000000
    7       -2.570881   1.000000
    8       -1.899979   1.000000
    9       -1.484634   1.000000
   10       -0.540096   1.000000
   11       -0.189459   1.000000
   12        0.471566   1.000000
   13        1.290309   1.000000
   14        2.488320   1.000000
   15        2.717524   1.000000
   16        3.359600   1.000000
   17        3.717634   1.000000
   18        4.199538   1.000000
   19        4.347604   1.000000
   20        4.604454   1.000000
   21        4.768481   1.000000
   22        4.945318   1.000000
   23        5.161720   1.000000
   24        5.322531   1.000000
   25        5.607922   1.000000
   26        6.333087   1.000000
   27        6.478753   1.000000
   28        7.480706   1.000000
   29        8.641149   1.000000
   30        9.707009   0.999933
   31        9.920693   1.041313
   32       12.069657   0.000000
   33       12.924224   0.000000
   34       12.939414   0.000000
   35       13.278169   0.000000
   36       13.561387   0.000000
   37       13.776583   0.000000
   38       14.223104   0.000000
   39       14.488625   0.000000
   40       14.569079   0.000000
 
  0.4285714E+00  0.3608225E-15  0.6666667E-01  0.1632653E-01
    1       -9.791765   1.000000
    2       -9.535778   1.000000
    3       -9.123304   1.000000
    4       -8.635665   1.000000
    5       -8.128256   1.000000
    6       -7.665962   1.000000
    7       -2.783333   1.000000
    8       -1.864568   1.000000
    9       -1.279259   1.000000
   10       -0.690517   1.000000
   11       -0.141306   1.000000
   12        0.282653   1.000000
   13        1.818446   1.000000
   14        2.373969   1.000000
   15        2.441709   1.000000
   16        3.084398   1.000000
   17        3.933327   1.000000
   18        4.323992   1.000000
   19        4.466458   1.000000
   20        4.553002   1.000000
   21        4.792952   1.000000
   22        5.103880   1.000000
   23        5.218143   1.000000
   24        5.354503   1.000000
   25        5.710066   1.000000
   26        5.936874   1.000000
   27        6.271031   1.000000
   28        7.797808   1.000000
   29        8.416255   1.000000
   30        9.859727   0.997844
   31       10.481173   0.000000
   32       11.238574   0.000000
   33       12.808886   0.000000
   34       12.929024   0.000000
   35       13.278972   0.000000
   36       13.533069   0.000000
   37       13.827082   0.000000
   38       14.072039   0.000000
   39       14.498951   0.000000
   40       14.591127   0.000000
 
  0.1428571E+00  0.1428571E+00  0.6666667E-01  0.1632653E-01
    1      -10.002275   1.000000
    2       -9.162238   1.000000
    3       -9.134061   1.000000
    4       -8.554859   1.000000
    5       -8.256575   1.000000
    6       -7.839909   1.000000
    7       -2.496181   1.000000
    8       -1.884462   1.000000
    9       -1.533709   1.000000
   10       -0.616748   1.000000
   11       -0.171242   1.000000
   12        0.635752   1.000000
   13        1.118152   1.000000
   14        2.465916   1.000000
   15        2.870988   1.000000
   16        3.423383   1.000000
   17        3.602419   1.000000
   18        4.151280   1.000000
   19        4.336585   1.000000
   20        4.669639   1.000000
   21        4.702048   1.000000
   22        4.880995   1.000000
   23        5.165156   1.000000
   24        5.303114   1.000000
   25        5.578054   1.000000
   26        6.454178   1.000000
   27        6.576256   1.000000
   28        7.397519   1.000000
   29        8.693787   1.000000
   30        9.667469   0.999994
   31        9.763208   0.999079
   32       12.386966   0.000000
   33       12.660714   0.000000
   34       13.088537   0.000000
   35       13.359757   0.000000
   36       13.470119   0.000000
   37       13.848002   0.000000
   38       14.281602   0.000000
   39       14.494283   0.000000
   40       14.578448   0.000000
 
  0.2857143E+00  0.1428571E+00  0.6666667E-01  0.1632653E-01
    1       -9.857980   1.000000
    2       -9.390867   1.000000
    3       -9.219423   1.000000
    4       -8.543864   1.000000
    5       -8.196862   1.000000
    6       -7.683352   1.000000
    7       -2.762428   1.000000
    8       -1.782104   1.000000
    9       -1.334197   1.000000
   10       -0.693659   1.000000
   11       -0.389407   1.000000
   12        0.690435   1.000000
   13        1.474945   1.000000
   14        2.241486   1.000000
   15        2.833758   1.000000
   16        3.174810   1.000000
   17        3.705614   1.000000
   18        4.281868   1.000000
   19        4.486308   1.000000
   20        4.570175   1.000000
   21        4.755442   1.000000
   22        5.086702   1.000000
   23        5.214923   1.000000
   24        5.326695   1.000000
   25        5.682767   1.000000
   26        6.192842   1.000000
   27        6.214319   1.000000
   28        7.693641   1.000000
   29        8.502487   1.000000
   30        9.916574   1.037637
   31       10.170606  -0.024542
   32       11.621441   0.000000
   33       12.382965   0.000000
   34       13.123860   0.000000
   35       13.324697   0.000000
   36       13.578683   0.000000
   37       13.765623   0.000000
   38       14.185792   0.000000
   39       14.548148   0.000000
   40       14.738777   0.000000
 
  0.4285714E+00  0.1428571E+00  0.6666667E-01  0.1632653E-01
    1       -9.691682   1.000000
    2       -9.599009   1.000000
    3       -9.245419   1.000000
    4       -8.536663   1.000000
    5       -8.168959   1.000000
    6       -7.624747   1.000000
    7       -2.863253   1.000000
    8       -1.720923   1.000000
    9       -1.184548   1.000000
   10       -0.826046   1.000000
   11       -0.517382   1.000000
   12        0.729477   1.000000
   13        1.898682   1.000000
   14        2.022767   1.000000
   15        2.640597   1.000000
   16        3.078447   1.000000
   17        3.813391   1.000000
   18        4.337996   1.000000
   19        4.480910   1.000000
   20        4.634938   1.000000
   21        4.751090   1.000000
   22        5.152800   1.000000
   23        5.231192   1.000000
   24        5.334928   1.000000
   25        5.749316   1.000000
   26        5.925121   1.000000
   27        6.206882   1.000000
   28        7.920949   1.000000
   29        8.325502   1.000000
   30        9.976662   0.987537
   31       10.672200   0.000000
   32       10.959092   0.000000
   33       12.327034   0.000000
   34       13.151609   0.000000
   35       13.285303   0.000000
   36       13.468856   0.000000
   37       13.950709   0.000000
   38       14.102218   0.000000
   39       14.558759   0.000000
   40       14.765888   0.000000
 
 -0.4285714E+00  0.1428571E+00  0.6666667E-01  0.1632653E-01
    1       -9.858016   1.000000
    2       -9.390829   1.000000
    3       -9.219430   1.000000
    4       -8.543881   1.000000
    5       -8.196847   1.000000
    6       -7.683310   1.000000
    7       -2.762660   1.000000
    8       -1.779704   1.000000
    9       -1.341444   1.000000
   10       -0.678066   1.000000
   11       -0.399035   1.000000
   12        0.686509   1.000000
   13        1.475680   1.000000
   14        2.253555   1.000000
   15        2.882326   1.000000
   16        3.076712   1.000000
   17        3.739795   1.000000
   18        4.288264   1.000000
   19        4.462247   1.000000
   20        4.659838   1.000000
   21        4.701599   1.000000
   22        5.102305   1.000000
   23        5.196616   1.000000
   24        5.326297   1.000000
   25        5.684057   1.000000
   26        6.059209   1.000000
   27        6.337073   1.000000
   28        7.696722   1.000000
   29        8.501970   1.000000
   30        9.882811   1.008232
   31       10.214925   0.002461
   32       11.572391   0.000000
   33       12.444709   0.000000
   34       13.180476   0.000000
   35       13.242491   0.000000
   36       13.579408   0.000000
   37       13.740062   0.000000
   38       14.233725   0.000000
   39       14.538833   0.000000
   40       14.727804   0.000000
 
  0.2857143E+00  0.2857143E+00  0.6666667E-01  0.1632653E-01
    1       -9.688632   1.000000
    2       -9.476296   1.000000
    3       -9.425067   1.000000
    4       -8.409950   1.000000
    5       -8.257974   1.000000
    6       -7.602583   1.000000
    7       -2.909811   1.000000
    8       -1.507781   1.000000
    9       -1.151308   1.000000
   10       -0.983961   1.000000
   11       -0.745633   1.000000
   12        1.211688   1.000000
   13        1.567704   1.000000
   14        1.947158   1.000000
   15        2.755502   1.000000
   16        3.239008   1.000000
   17        3.573611   1.000000
   18        4.339946   1.000000
   19        4.554961   1.000000
   20        4.607482   1.000000
   21        4.704877   1.000000
   22        5.203389   1.000000
   23        5.242403   1.000000
   24        5.295793   1.000000
   25        5.756825   1.000000
   26        6.039052   1.000000
   27        6.130012   1.000000
   28        7.974107   1.000000
   29        8.289589   1.000000
   30       10.131601  -0.051592
   31       10.504603   0.000000
   32       11.035177   0.000000
   33       12.049102   0.000000
   34       13.143726   0.000000
   35       13.288580   0.000000
   36       13.434773   0.000000
   37       13.928641   0.000000
   38       14.431129   0.000000
   39       14.566909   0.000000
   40       14.772347   0.000000
 
  0.3742002E-15  0.3742002E-15  0.1333333E+00  0.2721088E-02
    1       -9.940395   1.000000
    2       -8.830757   1.000000
    3       -8.830757   1.000000
    4       -8.226864   1.000000
    5       -8.226864   1.000000
    6       -8.095631   1.000000
    7       -1.815354   1.000000
    8       -1.815354   1.000000
    9       -1.496416   1.000000
   10       -0.892701   1.000000
   11        0.173133   1.000000
   12        0.933493   1.000000
   13        0.933493   1.000000
   14        2.899897   1.000000
   15        2.899898   1.000000
   16        3.477159   1.000000
   17        3.505277   1.000000
   18        3.816068   1.000000
   19        3.816069   1.000000
   20        4.006583   1.000000
   21        4.057465   1.000000
   22        4.057465   1.000000
   23        4.587783   1.000000
   24        4.587783   1.000000
   25        4.948119   1.000000
   26        7.008509   1.000000
   27        7.008509   1.000000
   28        7.433045   1.000000
   29        8.591193   1.000000
   30        9.577188   1.000000
   31        9.577189   1.000000
   32       12.116891   0.000000
   33       12.116892   0.000000
   34       12.271622   0.000000
   35       12.838917   0.000000
   36       13.807811   0.000000
   37       13.807811   0.000000
   38       13.986479   0.000000
   39       13.986479   0.000000
   40       15.012612   0.000000
 
  0.1428571E+00  0.3469447E-15  0.1333333E+00  0.1632653E-01
    1       -9.903090   1.000000
    2       -8.910268   1.000000
    3       -8.864188   1.000000
    4       -8.376107   1.000000
    5       -8.176852   1.000000
    6       -7.895578   1.000000
    7       -2.049629   1.000000
    8       -1.796484   1.000000
    9       -1.441775   1.000000
   10       -0.649725   1.000000
   11        0.082642   1.000000
   12        0.814701   1.000000
   13        1.031045   1.000000
   14        2.813043   1.000000
   15        2.846016   1.000000
   16        3.461989   1.000000
   17        3.554528   1.000000
   18        3.641418   1.000000
   19        3.865330   1.000000
   20        4.007201   1.000000
   21        4.136195   1.000000
   22        4.283988   1.000000
   23        4.511116   1.000000
   24        4.627916   1.000000
   25        5.117038   1.000000
   26        6.821558   1.000000
   27        6.861186   1.000000
   28        7.503893   1.000000
   29        8.566954   1.000000
   30        9.665541   0.999994
   31        9.712766   0.999909
   32       12.159359   0.000000
   33       12.222943   0.000000
   34       12.250743   0.000000
   35       12.870523   0.000000
   36       13.280009   0.000000
   37       13.538617   0.000000
   38       13.998827   0.000000
   39       14.130559   0.000000
   40       15.048750   0.000000
 
  0.2857143E+00  0.3608225E-15  0.1333333E+00  0.1632653E-01
    1       -9.793649   1.000000
    2       -9.122940   1.000000
    3       -8.926158   1.000000
    4       -8.468144   1.000000
    5       -8.076595   1.000000
    6       -7.681657   1.000000
    7       -2.390375   1.000000
    8       -1.750104   1.000000
    9       -1.287866   1.000000
   10       -0.380976   1.000000
   11       -0.083730   1.000000
   12        0.565918   1.000000
   13        1.346439   1.000000
   14        2.648014   1.000000
   15        2.717932   1.000000
   16        3.240041   1.000000
   17        3.427040   1.000000
   18        3.814983   1.000000
   19        3.894178   1.000000
   20        3.999243   1.000000
   21        4.336992   1.000000
   22        4.452257   1.000000
   23        4.619713   1.000000
   24        4.704544   1.000000
   25        5.421087   1.000000
   26        6.417600   1.000000
   27        6.540125   1.000000
   28        7.698690   1.000000
   29        8.485368   1.000000
   30        9.807074   0.996474
   31       10.069442   0.181025
   32       12.124191   0.000000
   33       12.230294   0.000000
   34       12.380647   0.000000
   35       12.521835   0.000000
   36       13.016915   0.000000
   37       13.205626   0.000000
   38       13.911686   0.000000
   39       14.232007   0.000000
   40       14.949265   0.000000
 
  0.4285714E+00  0.3608225E-15  0.1333333E+00  0.1632653E-01
    1       -9.622901   1.000000
    2       -9.371681   1.000000
    3       -8.967420   1.000000
    4       -8.497063   1.000000
    5       -8.003136   1.000000
    6       -7.559982   1.000000
    7       -2.593299   1.000000
    8       -1.707447   1.000000
    9       -1.090742   1.000000
   10       -0.515231   1.000000
   11       -0.032953   1.000000
   12        0.378237   1.000000
   13        1.828569   1.000000
   14        2.454624   1.000000
   15        2.537466   1.000000
   16        3.011555   1.000000
   17        3.359605   1.000000
   18        3.770821   1.000000
   19        3.884794   1.000000
   20        4.190086   1.000000
   21        4.493416   1.000000