Automatically generated mesh
      72
Reciprocal lattice
    0.00000000000000    0.00000000000000    0.00000000000000             1
    0.14285714285714    0.00000000000000    0.00000000000000             6
    0.28571428571429    0.00000000000000    0.00000000000000             6
    0.42857142857143    0.00000000000000    0.00000000000000             6
    0.14285714285714    0.14285714285714    0.00000000000000             6
    0.28571428571429    0.14285714285714    0.00000000000000             6
    0.42857142857143    0.14285714285714    0.00000000000000             6
   -0.42857142857143    0.14285714285714    0.00000000000000             6
    0.28571428571429    0.28571428571429    0.00000000000000             6
    0.00000000000000    0.00000000000000    0.06666666666667             2
    0.14285714285714    0.00000000000000    0.06666666666667            12
    0.28571428571429    0.00000000000000    0.06666666666667            12
    0.42857142857143    0.00000000000000    0.06666666666667            12
    0.14285714285714    0.14285714285714    0.06666666666667            12
    0.28571428571429    0.14285714285714    0.06666666666667            12
    0.42857142857143    0.14285714285714    0.06666666666667            12
   -0.42857142857143    0.14285714285714    0.06666666666667            12
    0.28571428571429    0.28571428571429    0.06666666666667            12
    0.00000000000000    0.00000000000000    0.13333333333333             2
    0.14285714285714    0.00000000000000    0.13333333333333            12
    0.28571428571429    0.00000000000000    0.13333333333333            12
    0.42857142857143    0.00000000000000    0.13333333333333            12
    0.14285714285714    0.14285714285714    0.13333333333333            12
    0.28571428571429    0.14285714285714    0.13333333333333            12
    0.42857142857143    0.14285714285714    0.13333333333333            12
   -0.42857142857143    0.14285714285714    0.13333333333333            12
    0.28571428571429    0.28571428571429    0.13333333333333            12
    0.00000000000000    0.00000000000000    0.20000000000000             2
    0.14285714285714    0.00000000000000    0.20000000000000            12
    0.28571428571429    0.00000000000000    0.20000000000000            12
    0.42857142857143    0.00000000000000    0.20000000000000            12
    0.14285714285714    0.14285714285714    0.20000000000000            12
    0.28571428571429    0.14285714285714    0.20000000000000            12
    0.42857142857143    0.14285714285714    0.20000000000000            12
   -0.42857142857143    0.14285714285714    0.20000000000000            12
    0.28571428571429    0.28571428571429    0.20000000000000            12
    0.00000000000000    0.00000000000000    0.26666666666667             2
    0.14285714285714    0.00000000000000    0.26666666666667            12
    0.28571428571429    0.00000000000000    0.26666666666667            12
    0.42857142857143    0.00000000000000    0.26666666666667            12
    0.14285714285714    0.14285714285714    0.26666666666667            12
    0.28571428571429    0.14285714285714    0.26666666666667            12
    0.42857142857143    0.14285714285714    0.26666666666667            12
   -0.42857142857143    0.14285714285714    0.26666666666667            12
    0.28571428571429    0.28571428571429    0.26666666666667            12
    0.00000000000000    0.00000000000000    0.33333333333333             2
    0.14285714285714    0.00000000000000    0.33333333333333            12
    0.28571428571429    0.00000000000000    0.33333333333333            12
    0.42857142857143    0.00000000000000    0.33333333333333            12
    0.14285714285714    0.14285714285714    0.33333333333333            12
    0.28571428571429    0.14285714285714    0.33333333333333            12
    0.42857142857143    0.14285714285714    0.33333333333333            12
   -0.42857142857143    0.14285714285714    0.33333333333333            12
    0.28571428571429    0.28571428571429    0.33333333333333            12
    0.00000000000000    0.00000000000000    0.40000000000000             2
    0.14285714285714    0.00000000000000    0.40000000000000            12
    0.28571428571429    0.00000000000000    0.40000000000000            12
    0.42857142857143    0.00000000000000    0.40000000000000            12
    0.14285714285714    0.14285714285714    0.40000000000000            12
    0.28571428571429    0.14285714285714    0.40000000000000            12
    0.42857142857143    0.14285714285714    0.40000000000000            12
   -0.42857142857143    0.14285714285714    0.40000000000000            12
    0.28571428571429    0.28571428571429    0.40000000000000            12
    0.00000000000000    0.00000000000000    0.46666666666667             2
    0.14285714285714    0.00000000000000    0.46666666666667            12
    0.28571428571429    0.00000000000000    0.46666666666667            12
    0.42857142857143    0.00000000000000    0.46666666666667            12
    0.14285714285714    0.14285714285714    0.46666666666667            12
    0.28571428571429    0.14285714285714    0.46666666666667            12
    0.42857142857143    0.14285714285714    0.46666666666667            12
   -0.42857142857143    0.14285714285714    0.46666666666667            12
    0.28571428571429    0.28571428571429    0.46666666666667            12
