 running on   16 total cores
 distrk:  each k-point on   16 cores,    1 groups
 distr:  one band on    4 cores,    4 groups
 using from now: INCAR     
 vasp.5.4.4.18Apr17-6-g9f103f2a35 (build Nov 01 2019 12:17:22) complex          
  
 POSCAR found type information on POSCAR  Si N 
 POSCAR found :  2 types and      14 ions
 WARNING: type information on POSCAR and POTCAR are incompatible
 POTCAR overwrites the type information in POSCAR
 typ   1 type information:  Si N 
 WARNING: type information on POSCAR and POTCAR are incompatible
 POTCAR overwrites the type information in POSCAR
 typ   2 type information:  N  Si
 LDA part: xc-table for Pade appr. of Perdew
 generate k-points for:    7    7   15
 POSCAR, INCAR and KPOINTS ok, starting setup
 FFT: planning ...
 WAVECAR not read
 entering main loop
       N       E                     dE             d eps       ncg     rms          rms(c)
DAV:   1     0.243408869586E+03    0.24341E+03   -0.26093E+04  5792   0.115E+03
DAV:   2    -0.710729096139E+02   -0.31448E+03   -0.30352E+03  7520   0.251E+02
DAV:   3    -0.934144052258E+02   -0.22341E+02   -0.21706E+02  7496   0.654E+01
DAV:   4    -0.938818872396E+02   -0.46748E+00   -0.46116E+00  7336   0.951E+00
DAV:   5    -0.938927109292E+02   -0.10824E-01   -0.10798E-01  7392   0.130E+00    0.279E+01
RMM:   6    -0.825796364233E+02    0.11313E+02   -0.47599E+01  5763   0.251E+01    0.124E+01
RMM:   7    -0.825147489891E+02    0.64887E-01   -0.22970E+00  6134   0.474E+00    0.652E+00
RMM:   8    -0.824597159733E+02    0.55033E-01   -0.39870E-01  5761   0.268E+00    0.879E-01
RMM:   9    -0.824383908383E+02    0.21325E-01   -0.92012E-02  5869   0.112E+00    0.297E-01
RMM:  10    -0.824387409567E+02   -0.35012E-03   -0.47318E-03  6294   0.212E-01    0.148E-01
RMM:  11    -0.824386359108E+02    0.10505E-03   -0.36590E-04  3940   0.827E-02    0.375E-02
RMM:  12    -0.824386244163E+02    0.11494E-04   -0.11063E-04  3492   0.466E-02
   1 F= -.82438624E+02 E0= -.82438342E+02  d E =-.824386E+02
 curvature:   0.00 expect dE= 0.000E+00 dE for cont linesearch  0.000E+00
 trial: gam= 0.00000 g(F)=  0.155E+01 g(S)=  0.121E+02 ort = 0.000E+00 (trialstep = 0.100E+01)
 search vector abs. value=  0.137E+02
 bond charge predicted
       N       E                     dE             d eps       ncg     rms          rms(c)
DAV:   1    -0.984179523219E+02   -0.15979E+02   -0.50198E+02  6080   0.110E+02    0.239E+01
RMM:   2    -0.860691734538E+02    0.12349E+02   -0.39599E+01  5772   0.257E+01    0.847E+00
RMM:   3    -0.852100232794E+02    0.85915E+00   -0.51470E+00  5948   0.711E+00    0.382E+00
RMM:   4    -0.849359978107E+02    0.27403E+00   -0.14780E+00  5881   0.385E+00    0.152E+00
RMM:   5    -0.848806860965E+02    0.55312E-01   -0.26405E-01  5984   0.150E+00    0.574E-01
RMM:   6    -0.848877202547E+02   -0.70342E-02   -0.11206E-01  6207   0.895E-01    0.383E-01
RMM:   7    -0.848832172155E+02    0.45030E-02   -0.21915E-02  5924   0.435E-01    0.110E-01
RMM:   8    -0.848836053790E+02   -0.38816E-03   -0.49516E-03  6051   0.165E-01    0.674E-02
RMM:   9    -0.848834991321E+02    0.10625E-03   -0.59087E-04  3886   0.563E-02    0.278E-02
RMM:  10    -0.848834972503E+02    0.18818E-05   -0.19065E-04  3626   0.377E-02
   2 F= -.84883497E+02 E0= -.84883959E+02  d E =-.244487E+01
 trial-energy change:   -2.444873  1 .order   -3.726998  -13.673296    6.219301
 step:   0.5941(harm=  0.6874)  dis= 0.05057  next Energy=   -86.231438 (dE=-0.379E+01)
 bond charge predicted
       N       E                     dE             d eps       ncg     rms          rms(c)
DAV:   1    -0.885774767451E+02   -0.36940E+01   -0.91308E+01  5928   0.504E+01    0.112E+01
RMM:   2    -0.863234175940E+02    0.22541E+01   -0.85987E+00  5760   0.115E+01    0.305E+00
RMM:   3    -0.861820787629E+02    0.14134E+00   -0.82798E-01  5829   0.317E+00    0.125E+00
RMM:   4    -0.861242530011E+02    0.57826E-01   -0.23373E-01  5785   0.167E+00    0.706E-01
RMM:   5    -0.861167277746E+02    0.75252E-02   -0.23216E-02  6048   0.486E-01    0.482E-01
RMM:   6    -0.861190810677E+02   -0.23533E-02   -0.36144E-02  6027   0.632E-01    0.324E-01
RMM:   7    -0.861160831157E+02    0.29980E-02   -0.73354E-03  5813   0.301E-01    0.667E-02
RMM:   8    -0.861160651783E+02    0.17937E-04   -0.71600E-04  5319   0.886E-02
   3 F= -.86116065E+02 E0= -.86115833E+02  d E =-.367744E+01
 curvature:  -0.31 expect dE=-0.827E+00 dE for cont linesearch -0.113E-02
 trial: gam= 0.20937 g(F)=  0.167E+01 g(S)=  0.975E+00 ort =-0.222E+00 (trialstep = 0.919E+00)
 search vector abs. value=  0.315E+01
 bond charge predicted
       N       E                     dE             d eps       ncg     rms          rms(c)
DAV:   1    -0.888481189563E+02   -0.27320E+01   -0.18250E+02  5832   0.740E+01    0.530E+00
RMM:   2    -0.889404422498E+02   -0.92323E-01   -0.49657E+00  5798   0.101E+01    0.242E+00
RMM:   3    -0.888280121510E+02    0.11243E+00   -0.62398E-01  6157   0.230E+00    0.120E+00
RMM:   4    -0.888038835995E+02    0.24129E-01   -0.11742E-01  5994   0.108E+00    0.373E-01
RMM:   5    -0.888040591160E+02   -0.17552E-03   -0.19049E-02  6263   0.391E-01    0.164E-01
RMM:   6    -0.888039860620E+02    0.73054E-04   -0.12129E-03  4817   0.895E-02    0.111E-01
RMM:   7    -0.888039853135E+02    0.74849E-06   -0.91955E-04  5603   0.106E-01
   4 F= -.88803985E+02 E0= -.88803625E+02  d E =-.268792E+01
 trial-energy change:   -2.687920  1 .order   -2.575208   -2.383362   -2.767054
 step:   2.5892(harm=  3.6753)  dis= 0.27416  next Energy=   -91.996472 (dE=-0.588E+01)
 bond charge predicted
       N       E                     dE             d eps       ncg     rms          rms(c)
DAV:   1    -0.918006153005E+02   -0.29966E+01   -0.57821E+02  6168   0.132E+02    0.983E+00
RMM:   2    -0.922486508232E+02   -0.44804E+00   -0.18542E+01  5795   0.199E+01    0.464E+00
RMM:   3    -0.919270365161E+02    0.32161E+00   -0.16236E+00  6049   0.398E+00    0.320E+00
RMM:   4    -0.917861373626E+02    0.14090E+00   -0.38692E-01  5876   0.224E+00    0.114E+00
RMM:   5    -0.917798496923E+02    0.62877E-02   -0.75554E-02  5929   0.996E-01    0.266E-01
RMM:   6    -0.917811144289E+02   -0.12647E-02   -0.71043E-03  6211   0.259E-01    0.166E-01
RMM:   7    -0.917834060767E+02   -0.22916E-02   -0.39358E-03  5770   0.206E-01    0.549E-02
RMM:   8    -0.917834927616E+02   -0.86685E-04   -0.33185E-04  3852   0.553E-02
   5 F= -.91783493E+02 E0= -.91783897E+02  d E =-.566743E+01
 curvature:  -1.97 expect dE=-0.121E+02 dE for cont linesearch -0.496E+00
 ZBRENT: interpolating
 opt :   2.2078  next Energy=   -91.953440 (dE=-0.584E+01)
 bond charge predicted
       N       E                     dE             d eps       ncg     rms          rms(c)
DAV:   1    -0.918852052005E+02   -0.10180E+00   -0.29959E+01  6624   0.303E+01    0.172E+00
RMM:   2    -0.918505207682E+02    0.34684E-01   -0.63426E-01  5836   0.350E+00    0.100E+00
RMM:   3    -0.918269210887E+02    0.23600E-01   -0.11417E-01  5929   0.112E+00    0.371E-01
RMM:   4    -0.918247248821E+02    0.21962E-02   -0.10186E-02  6071   0.337E-01    0.165E-01
RMM:   5    -0.918243263176E+02    0.39856E-03   -0.16876E-03  5845   0.147E-01    0.574E-02
RMM:   6    -0.918243019520E+02    0.24366E-04   -0.15266E-04  3577   0.474E-02
   6 F= -.91824302E+02 E0= -.91823856E+02  d E =-.570824E+01
 curvature:  -0.67 expect dE=-0.306E+01 dE for cont linesearch -0.771E-01
 trial: gam= 1.14697 g(F)=  0.155E+01 g(S)=  0.299E+01 ort = 0.600E+00 (trialstep = 0.368E+00)
 search vector abs. value=  0.101E+02
 bond charge predicted
       N       E                     dE             d eps       ncg     rms          rms(c)
DAV:   1    -0.937250857087E+02   -0.19008E+01   -0.10301E+02  6048   0.556E+01    0.485E+00
RMM:   2    -0.934249241735E+02    0.30016E+00   -0.24369E+00  5779   0.695E+00    0.148E+00
RMM:   3    -0.933689964206E+02    0.55928E-01   -0.33616E-01  5912   0.208E+00    0.761E-01
RMM:   4    -0.933562277107E+02    0.12769E-01   -0.46778E-02  5844   0.756E-01    0.423E-01
RMM:   5    -0.933552377232E+02    0.98999E-03   -0.47662E-03  5980   0.252E-01    0.277E-01
RMM:   6    -0.933552767517E+02   -0.39029E-04   -0.11557E-03  5556   0.127E-01    0.644E-02
RMM:   7    -0.933552779677E+02   -0.12160E-05   -0.30526E-04  4026   0.626E-02
   7 F= -.93355278E+02 E0= -.93354923E+02  d E =-.153098E+01
 trial-energy change:   -1.530976  1 .order   -1.508230   -1.925609   -1.090851
 step:   0.7311(harm=  0.8490)  dis= 0.13976  next Energy=   -93.915137 (dE=-0.209E+01)
 bond charge predicted
       N       E                     dE             d eps       ncg     rms          rms(c)
DAV:   1    -0.943399583646E+02   -0.98468E+00   -0.10317E+02  5968   0.559E+01    0.520E+00
RMM:   2    -0.939759325461E+02    0.36403E+00   -0.24303E+00  5760   0.706E+00    0.161E+00
RMM:   3    -0.939017449381E+02    0.74188E-01   -0.35372E-01  5809   0.228E+00    0.811E-01
RMM:   4    -0.938894244647E+02    0.12320E-01   -0.53620E-02  5829   0.804E-01    0.460E-01
RMM:   5    -0.938882103499E+02    0.12141E-02   -0.54960E-03  5906   0.285E-01    0.261E-01
RMM:   6    -0.938881943672E+02    0.15983E-04   -0.87297E-04  5660   0.122E-01
   8 F= -.93888194E+02 E0= -.93888279E+02  d E =-.206389E+01
 curvature:  -0.77 expect dE=-0.255E+01 dE for cont linesearch -0.715E-02
 trial: gam= 0.23314 g(F)=  0.658E+00 g(S)=  0.267E+01 ort =-0.306E+00 (trialstep = 0.441E+00)
 search vector abs. value=  0.373E+01
 bond charge predicted
       N       E                     dE             d eps       ncg     rms          rms(c)
DAV:   1    -0.952191277068E+02   -0.13309E+01   -0.32322E+01  6832   0.317E+01    0.478E+00
RMM:   2    -0.948652186514E+02    0.35391E+00   -0.12051E+00  5760   0.487E+00    0.193E+00
RMM:   3    -0.947867946853E+02    0.78424E-01   -0.14131E-01  5798   0.145E+00    0.785E-01
RMM:   4    -0.947672931278E+02    0.19502E-01   -0.44854E-02  5762   0.794E-01    0.223E-01
RMM:   5    -0.947669401520E+02    0.35298E-03   -0.40820E-03  5907   0.234E-01    0.148E-01
RMM:   6    -0.947669469884E+02   -0.68364E-05   -0.62663E-04  5389   0.113E-01
   9 F= -.94766947E+02 E0= -.94766800E+02  d E =-.878753E+00
 trial-energy change:   -0.878753  1 .order   -0.875766   -1.434042   -0.317490
 step:   0.5634(harm=  0.5659)  dis= 0.02856  next Energy=   -94.811243 (dE=-0.923E+00)
 bond charge predicted
       N       E                     dE             d eps       ncg     rms          rms(c)
DAV:   1    -0.948497449904E+02   -0.82805E-01   -0.25806E+00  6864   0.894E+00    0.137E+00
RMM:   2    -0.948179625188E+02    0.31782E-01   -0.98143E-02  5760   0.139E+00    0.548E-01
RMM:   3    -0.948117479781E+02    0.62145E-02   -0.12386E-02  5797   0.427E-01    0.221E-01
RMM:   4    -0.948102128825E+02    0.15351E-02   -0.36677E-03  5760   0.225E-01    0.619E-02
RMM:   5    -0.948101886274E+02    0.24255E-04   -0.30822E-04  3876   0.694E-02
  10 F= -.94810189E+02 E0= -.94810088E+02  d E =-.921994E+00
 curvature:  -0.32 expect dE=-0.192E+00 dE for cont linesearch -0.908E-05
 trial: gam= 0.08313 g(F)=  0.679E-01 g(S)=  0.525E+00 ort = 0.102E-01 (trialstep = 0.465E+00)
 search vector abs. value=  0.621E+00
 bond charge predicted
       N       E                     dE             d eps       ncg     rms          rms(c)
DAV:   1    -0.950838832749E+02   -0.27367E+00   -0.67989E+00  6320   0.143E+01    0.215E+00
RMM:   2    -0.950082947725E+02    0.75589E-01   -0.23860E-01  5760   0.218E+00    0.867E-01
RMM:   3    -0.949935818199E+02    0.14713E-01   -0.45340E-02  5790   0.820E-01    0.294E-01
RMM:   4    -0.949914802776E+02    0.21015E-02   -0.65754E-03  5840   0.297E-01    0.922E-02
RMM:   5    -0.949913288990E+02    0.15138E-03   -0.58389E-04  4643   0.943E-02    0.555E-02
RMM:   6    -0.949912921177E+02    0.36781E-04   -0.14466E-04  3472   0.516E-02
  11 F= -.94991292E+02 E0= -.94991427E+02  d E =-.181103E+00
 trial-energy change:   -0.181103  1 .order   -0.183171   -0.276283   -0.090058
 step:   0.7159(harm=  0.6902)  dis= 0.01705  next Energy=   -95.015232 (dE=-0.205E+00)
 bond charge predicted
       N       E                     dE             d eps       ncg     rms          rms(c)
DAV:   1    -0.950391437045E+02   -0.47815E-01   -0.19431E+00  6504   0.765E+00    0.114E+00
RMM:   2    -0.950176358546E+02    0.21508E-01   -0.70120E-02  5760   0.117E+00    0.450E-01
RMM:   3    -0.950135575507E+02    0.40783E-02   -0.12969E-02  5802   0.435E-01    0.155E-01
RMM:   4    -0.950129484740E+02    0.60908E-03   -0.19190E-03  5840   0.160E-01    0.508E-02
RMM:   5    -0.950129010977E+02    0.47376E-04   -0.14713E-04  3587   0.514E-02
  12 F= -.95012901E+02 E0= -.95013282E+02  d E =-.202712E+00
 curvature:  -0.36 expect dE=-0.821E-02 dE for cont linesearch -0.200E-03
 trial: gam= 0.08231 g(F)=  0.156E-01 g(S)=  0.744E-02 ort =-0.187E-01 (trialstep = 0.515E+00)
 search vector abs. value=  0.242E-01
 bond charge predicted
       N       E                     dE             d eps       ncg     rms          rms(c)
DAV:   1    -0.950203093033E+02   -0.73608E-02   -0.87353E-01  6288   0.515E+00    0.250E-01
RMM:   2    -0.950206896782E+02   -0.38037E-03   -0.17608E-02  5765   0.585E-01    0.129E-01
RMM:   3    -0.950205599022E+02    0.12978E-03   -0.10394E-03  5492   0.128E-01    0.859E-02
RMM:   4    -0.950204958523E+02    0.64050E-04   -0.18464E-04  3534   0.622E-02
  13 F= -.95020496E+02 E0= -.95020879E+02  d E =-.759475E-02
 trial-energy change:   -0.007595  1 .order   -0.007677   -0.011096   -0.004258
 step:   0.8362(harm=  0.8362)  dis= 0.00957  next Energy=   -95.021904 (dE=-0.900E-02)
 bond charge predicted
       N       E                     dE             d eps       ncg     rms          rms(c)
DAV:   1    -0.950215682077E+02   -0.10083E-02   -0.33602E-01  6448   0.319E+00    0.153E-01
RMM:   2    -0.950217071073E+02   -0.13890E-03   -0.67464E-03  5763   0.363E-01    0.777E-02
RMM:   3    -0.950216616817E+02    0.45426E-04   -0.36537E-04  4024   0.791E-02
  14 F= -.95021662E+02 E0= -.95022039E+02  d E =-.876058E-02
 curvature:  -0.47 expect dE=-0.727E-02 dE for cont linesearch -0.203E-05
 trial: gam= 0.62942 g(F)=  0.136E-01 g(S)=  0.188E-02 ort =-0.323E-03 (trialstep = 0.569E+00)
 search vector abs. value=  0.246E-01
 bond charge predicted
       N       E                     dE             d eps       ncg     rms          rms(c)
DAV:   1    -0.950280698094E+02   -0.63627E-02   -0.11845E+00  5856   0.593E+00    0.220E-01
RMM:   2    -0.950296146295E+02   -0.15448E-02   -0.21235E-02  5761   0.655E-01    0.919E-02
RMM:   3    -0.950294749209E+02    0.13971E-03   -0.10397E-03  5565   0.129E-01    0.573E-02
RMM:   4    -0.950294202764E+02    0.54644E-04   -0.20707E-04  3531   0.644E-02
  15 F= -.95029420E+02 E0= -.95029771E+02  d E =-.775859E-02
 ZBRENT: can't locate minimum, use default step
 trial-energy change:   -0.007759  1 .order   -0.007953   -0.008685   -0.007221
 step:   2.2756(harm=  3.3758)  dis= 0.02752  next Energy=   -95.047428 (dE=-0.258E-01)
 bond charge predicted
       N       E                     dE             d eps       ncg     rms          rms(c)
DAV:   1    -0.950321555806E+02   -0.26807E-02   -0.10736E+01  5792   0.178E+01    0.673E-01
RMM:   2    -0.950459951559E+02   -0.13840E-01   -0.19222E-01  5762   0.197E+00    0.269E-01
RMM:   3    -0.950447122192E+02    0.12829E-02   -0.92207E-03  5997   0.383E-01    0.166E-01
RMM:   4    -0.950442422094E+02    0.47001E-03   -0.22736E-03  5789   0.195E-01    0.505E-02
RMM:   5    -0.950442494962E+02   -0.72867E-05   -0.92308E-05  3533   0.411E-02
  16 F= -.95044249E+02 E0= -.95044461E+02  d E =-.225878E-01
 curvature:  -2.31 expect dE=-0.115E-01 dE for cont linesearch -0.241E-02
 ZBRENT: increasing intervall
 opt :   5.6891  next Energy=   -95.035562 (dE=-0.139E-01)
 bond charge predicted
       N       E                     dE             d eps       ncg     rms          rms(c)
DAV:   1    -0.949821875878E+02    0.62055E-01   -0.42939E+01  5760   0.357E+01    0.139E+00
RMM:   2    -0.950398579452E+02   -0.57670E-01   -0.78127E-01  5761   0.398E+00    0.536E-01
RMM:   3    -0.950349402717E+02    0.49177E-02   -0.36702E-02  6010   0.760E-01    0.344E-01
RMM:   4    -0.950328676741E+02    0.20726E-02   -0.11463E-02  5795   0.429E-01    0.920E-02
RMM:   5    -0.950328911708E+02   -0.23497E-04   -0.39426E-04  4154   0.765E-02
  17 F= -.95032891E+02 E0= -.95033114E+02  d E =-.112295E-01
 curvature:   8.32 expect dE= 0.246E+00 dE for cont linesearch  0.582E-01
 ZBRENT: bracketing found
 ZBRENT: interpolating
 opt :   3.2267  next Energy=   -95.046662 (dE=-0.250E-01)
 bond charge predicted
       N       E                     dE             d eps       ncg     rms          rms(c)
DAV:   1    -0.950168187369E+02    0.16049E-01   -0.22147E+01  5760   0.256E+01    0.110E+00
RMM:   2    -0.950513054488E+02   -0.34487E-01   -0.44251E-01  5761   0.304E+00    0.429E-01
RMM:   3    -0.950481694350E+02    0.31360E-02   -0.20589E-02  5988   0.575E-01    0.289E-01
RMM:   4    -0.950470321173E+02    0.11373E-02   -0.42412E-03  5809   0.273E-01    0.111E-01
RMM:   5    -0.950470070298E+02    0.25087E-04   -0.39841E-04  4228   0.810E-02
  18 F= -.95047007E+02 E0= -.95047231E+02  d E =-.253453E-01
 curvature:  -0.34 expect dE=-0.238E-02 dE for cont linesearch -0.178E-05
 trial: gam= 0.42117 g(F)=  0.640E-02 g(S)=  0.496E-03 ort = 0.357E-03 (trialstep = 0.110E+01)
 search vector abs. value=  0.116E-01
 bond charge predicted
       N       E                     dE             d eps       ncg     rms          rms(c)
DAV:   1    -0.950473209352E+02   -0.28882E-03   -0.54209E-01  6120   0.380E+00    0.243E-01
RMM:   2    -0.950490494257E+02   -0.17285E-02   -0.19302E-02  5760   0.663E-01    0.129E-01
RMM:   3    -0.950489413950E+02    0.10803E-03   -0.68726E-04  4618   0.117E-01    0.923E-02
RMM:   4    -0.950489083777E+02    0.33017E-04   -0.45337E-04  4896   0.843E-02
  19 F= -.95048908E+02 E0= -.95049220E+02  d E =-.190135E-02
 trial-energy change:   -0.001901  1 .order   -0.001956   -0.007757    0.003845
 step:   0.7358(harm=  0.7358)  dis= 0.00642  next Energy=   -95.049600 (dE=-0.259E-02)
 bond charge predicted
       N       E                     dE             d eps       ncg     rms          rms(c)
DAV:   1    -0.950494159386E+02   -0.47454E-03   -0.57709E-02  6320   0.123E+00    0.770E-02
RMM:   2    -0.950495807336E+02   -0.16479E-03   -0.19208E-03  5757   0.208E-01    0.330E-02
RMM:   3    -0.950495697983E+02    0.10935E-04   -0.55769E-05  3082   0.374E-02
  20 F= -.95049570E+02 E0= -.95049853E+02  d E =-.256277E-02
 curvature:  -0.60 expect dE=-0.907E-03 dE for cont linesearch -0.135E-05
 trial: gam= 0.28003 g(F)=  0.138E-03 g(S)=  0.136E-02 ort =-0.161E-03 (trialstep = 0.103E+01)
 search vector abs. value=  0.232E-02
 bond charge predicted
       N       E                     dE             d eps       ncg     rms          rms(c)
DAV:   1    -0.950510151616E+02   -0.14344E-02   -0.10240E-01  6584   0.175E+00    0.222E-01
RMM:   2    -0.950504262084E+02    0.58895E-03   -0.41749E-03  5760   0.317E-01    0.953E-02
RMM:   3    -0.950502025160E+02    0.22369E-03   -0.51281E-04  4874   0.911E-02    0.376E-02
RMM:   4    -0.950501558287E+02    0.46687E-04   -0.89893E-05  3261   0.412E-02
  21 F= -.95050156E+02 E0= -.95050484E+02  d E =-.586030E-03
 trial-energy change:   -0.000586  1 .order   -0.000638   -0.001498    0.000221
 step:   0.8956(harm=  0.8956)  dis= 0.00220  next Energy=   -95.050222 (dE=-0.653E-03)
 bond charge predicted
       N       E                     dE             d eps       ncg     rms          rms(c)
DAV:   1    -0.950501948960E+02    0.76201E-05   -0.17935E-03  6928   0.233E-01    0.314E-02
RMM:   2    -0.950501858821E+02    0.90138E-05   -0.64021E-05  3003   0.423E-02
  22 F= -.95050186E+02 E0= -.95050510E+02  d E =-.616084E-03
 curvature:  -0.71 expect dE=-0.260E-03 dE for cont linesearch -0.154E-04
 trial: gam= 0.00000 g(F)=  0.246E-03 g(S)=  0.119E-03 ort =-0.224E-03 (trialstep = 0.100E+01)
 search vector abs. value=  0.365E-03
 reached required accuracy - stopping structural energy minimisation
