 vasp.5.4.4.18Apr17-6-g9f103f2a35 (build Nov 01 2019 12:17:22) complex          
  
 executed on             LinuxIFC date 2023.05.19  11:21:21
 running on   16 total cores
 distrk:  each k-point on   16 cores,    1 groups
 distr:  one band on NCORES_PER_BAND=   4 cores,    4 groups


--------------------------------------------------------------------------------------------------------


 INCAR:
 POTCAR:    PAW_PBE N 08Apr2002                   
 POTCAR:    PAW_PBE Si 05Jan2001                  
 POTCAR:    PAW_PBE N 08Apr2002                   
   VRHFIN =N: s2p3                                                              
   LEXCH  = PE                                                                  
   EATOM  =   264.5486 eV,   19.4438 Ry                                         
                                                                                
   TITEL  = PAW_PBE N 08Apr2002                                                 
   LULTRA =        F    use ultrasoft PP ?                                      
   IUNSCR =        1    unscreen: 0-lin 1-nonlin 2-no                           
   RPACOR =    1.200    partial core radius                                     
   POMASS =   14.001; ZVAL   =    5.000    mass and valenz                      
   RCORE  =    1.500    outmost cutoff radius                                   
   RWIGS  =    1.400; RWIGS  =    0.741    wigner-seitz radius (au A)           
   ENMAX  =  400.000; ENMIN  =  300.000 eV                                      
   ICORE  =        2    local potential                                         
   LCOR   =        T    correct aug charges                                     
   LPAW   =        T    paw PP                                                  
   EAUG   =  627.112                                                            
   DEXC   =    0.000                                                            
   RMAX   =    1.529    core radius for proj-oper                               
   RAUG   =    1.300    factor for augmentation sphere                          
   RDEP   =    1.514    radius for radial grids                                 
   RDEPT  =    1.338    core radius for aug-charge                              
                                                                                
   Atomic configuration                                                         
    4 entries                                                                   
     n  l   j            E        occ.                                          
     1  0  0.50      -384.7179   2.0000                                         
     2  0  0.50       -18.5828   2.0000                                         
     2  1  0.50        -7.0898   3.0000                                         
     3  2  1.50        -6.8029   0.0000                                         
   Description                                                                  
     l       E           TYP  RCUT    TYP  RCUT                                 
     0    -18.5828119     23  1.200                                             
     0    -13.5018863     23  1.200                                             
     1     -7.0897853     23  1.500                                             
     1      9.5240782     23  1.500                                             
     2     -6.8029130      7  1.500                                             
  local pseudopotential read in
  partial core-charges read in
  partial kinetic energy density read in
  atomic valenz-charges read in
  non local Contribution for L=           0  read in
    real space projection operators read in
  non local Contribution for L=           0  read in
    real space projection operators read in
  non local Contribution for L=           1  read in
    real space projection operators read in
  non local Contribution for L=           1  read in
    real space projection operators read in
    PAW grid and wavefunctions read in
 
   number of l-projection  operators is LMAX  =           4
   number of lm-projection operators is LMMAX =           8
 
 POTCAR:    PAW_PBE Si 05Jan2001                  
   VRHFIN =Si: s2p2                                                             
   LEXCH  = PE                                                                  
   EATOM  =   103.0669 eV,    7.5752 Ry                                         
                                                                                
   TITEL  = PAW_PBE Si 05Jan2001                                                
   LULTRA =        F    use ultrasoft PP ?                                      
   IUNSCR =        1    unscreen: 0-lin 1-nonlin 2-no                           
   RPACOR =    1.500    partial core radius                                     
   POMASS =   28.085; ZVAL   =    4.000    mass and valenz                      
   RCORE  =    1.900    outmost cutoff radius                                   
   RWIGS  =    2.480; RWIGS  =    1.312    wigner-seitz radius (au A)           
   ENMAX  =  245.345; ENMIN  =  184.009 eV                                      
   ICORE  =        2    local potential                                         
   LCOR   =        T    correct aug charges                                     
   LPAW   =        T    paw PP                                                  
   EAUG   =  322.069                                                            
   DEXC   =    0.000                                                            
   RMAX   =    1.950    core radius for proj-oper                               
   RAUG   =    1.300    factor for augmentation sphere                          
   RDEP   =    1.993    radius for radial grids                                 
   RDEPT  =    1.837    core radius for aug-charge                              
                                                                                
   Atomic configuration                                                         
    6 entries                                                                   
     n  l   j            E        occ.                                          
     1  0  0.50     -1785.8828   2.0000                                         
     2  0  0.50      -139.4969   2.0000                                         
     2  1  1.50       -95.5546   6.0000                                         
     3  0  0.50       -10.8127   2.0000                                         
     3  1  0.50        -4.0811   2.0000                                         
     3  2  1.50        -4.0817   0.0000                                         
   Description                                                                  
     l       E           TYP  RCUT    TYP  RCUT                                 
     0    -10.8127223     23  1.900                                             
     0     -7.6451159     23  1.900                                             
     1     -4.0811372     23  1.900                                             
     1      2.4879257     23  1.900                                             
     2     -4.0817478      7  1.900                                             
  local pseudopotential read in
  partial core-charges read in
  partial kinetic energy density read in
  atomic valenz-charges read in
  non local Contribution for L=           0  read in
    real space projection operators read in
  non local Contribution for L=           0  read in
    real space projection operators read in
  non local Contribution for L=           1  read in
    real space projection operators read in
  non local Contribution for L=           1  read in
    real space projection operators read in
    PAW grid and wavefunctions read in
 
   number of l-projection  operators is LMAX  =           4
   number of lm-projection operators is LMMAX =           8
 
 Optimization of the real space projectors (new method)

 maximal supplied QI-value         = 25.13
 optimisation between [QCUT,QGAM] = [ 10.05, 20.36] = [ 28.30,116.06] Ry 
 Optimized for a Real-space Cutoff    1.70 Angstroem

   l    n(q)    QCUT    max X(q) W(low)/X(q) W(high)/X(q)  e(spline) 
   0     10    10.053    79.467    0.61E-04    0.98E-04    0.61E-06
   0     10    10.053    66.151    0.60E-04    0.98E-04    0.61E-06
   1     10    10.053     8.350    0.17E-03    0.71E-03    0.45E-05
   1     10    10.053     5.531    0.18E-03    0.77E-03    0.49E-05
 Optimization of the real space projectors (new method)

 maximal supplied QI-value         = 19.84
 optimisation between [QCUT,QGAM] = [ 10.12, 20.44] = [ 28.68,116.96] Ry 
 Optimized for a Real-space Cutoff    1.38 Angstroem

   l    n(q)    QCUT    max X(q) W(low)/X(q) W(high)/X(q)  e(spline) 
   0      8    10.119   159.560    0.58E-04    0.11E-03    0.54E-07
   0      8    10.119   115.863    0.56E-04    0.11E-03    0.54E-07
   1      8    10.119    88.339    0.22E-03    0.17E-03    0.19E-06
   1      8    10.119    48.592    0.22E-03    0.17E-03    0.18E-06
  PAW_PBE N 08Apr2002                   :
 energy of atom  1       EATOM= -264.5486
 kinetic energy error for atom=    0.0736 (will be added to EATOM!!)
  PAW_PBE Si 05Jan2001                  :
 energy of atom  2       EATOM= -103.0669
 kinetic energy error for atom=    0.0012 (will be added to EATOM!!)
 
 
 POSCAR: Si6 N8                                  
  positions in direct lattice
  No initial velocities read in
 exchange correlation table for  LEXCH =        8
   RHO(1)=    0.500       N(1)  =     2000
   RHO(2)=  100.500       N(2)  =     4000
 


--------------------------------------------------------------------------------------------------------


 ion  position               nearest neighbor table
   1  0.231  0.825  0.750-   7 1.73   9 1.73  10 1.74  10 1.74
   2  0.406  0.231  0.250-   8 1.73  10 1.73  12 1.74  12 1.74
   3  0.825  0.594  0.250-   8 1.73  11 1.73   9 1.74   9 1.74
   4  0.175  0.406  0.750-   7 1.73  12 1.73  13 1.74  13 1.74
   5  0.594  0.769  0.750-   7 1.73  14 1.73  11 1.74  11 1.74
   6  0.769  0.175  0.250-   8 1.73  13 1.73  14 1.74  14 1.74
   7  0.333  0.667  0.750-   5 1.73   4 1.73   1 1.73  12 2.78  14 2.78   9 2.78  11 2.84  11 2.84
                            13 2.84  13 2.84  10 2.84  10 2.84
   8  0.667  0.333  0.250-   2 1.73   3 1.73   6 1.73  11 2.78  10 2.78  13 2.78  12 2.84  12 2.84
                             9 2.84   9 2.84  14 2.84  14 2.84
   9  0.969  0.670  0.750-   1 1.73   3 1.74   3 1.74   7 2.78  11 2.81  11 2.81  10 2.81  10 2.81
                             8 2.84   8 2.84
  10  0.299  0.969  0.250-   2 1.73   1 1.74   1 1.74   8 2.78  12 2.81   9 2.81   9 2.81  12 2.81
                             7 2.84   7 2.84
  11  0.670  0.701  0.250-   3 1.73   5 1.74   5 1.74   8 2.78   9 2.81   9 2.81  14 2.81  14 2.81
                             7 2.84   7 2.84
  12  0.330  0.299  0.750-   4 1.73   2 1.74   2 1.74   7 2.78  13 2.81  13 2.81  10 2.81  10 2.81
                             8 2.84   8 2.84
  13  0.031  0.330  0.250-   6 1.73   4 1.74   4 1.74   8 2.78  12 2.81  12 2.81  14 2.81  14 2.81
                             7 2.84   7 2.84
  14  0.701  0.031  0.750-   5 1.73   6 1.74   6 1.74   7 2.78  13 2.81  11 2.81  11 2.81  13 2.81
                             8 2.84   8 2.84
 
  LATTYP: Found a hexagonal cell.
 ALAT       =     7.6045444357
 C/A-ratio  =     0.3820345985
  
  Lattice vectors:
  
 A1 = (   3.8022722179,  -6.5857286656,   0.0000000000)
 A2 = (   3.8022722179,   6.5857286656,   0.0000000000)
 A3 = (   0.0000000000,   0.0000000000,   2.9051990800)


Analysis of symmetry for initial positions (statically):
=====================================================================
 Subroutine PRICEL returns:
 Original cell was already a primitive cell.
 

 Routine SETGRP: Setting up the symmetry group for a 
 hexagonal supercell.


 Subroutine GETGRP returns: Found 12 space group operations
 (whereof  6 operations were pure point group operations)
 out of a pool of 24 trial point group operations.


The static configuration has the point symmetry S_6 .
 The point group associated with its full space group is C_6h.


Analysis of symmetry for dynamics (positions and initial velocities):
=====================================================================
 Subroutine PRICEL returns:
 Original cell was already a primitive cell.
 

 Routine SETGRP: Setting up the symmetry group for a 
 hexagonal supercell.


 Subroutine GETGRP returns: Found 12 space group operations
 (whereof  6 operations were pure point group operations)
 out of a pool of 24 trial point group operations.


The dynamic configuration has the point symmetry S_6 .
 The point group associated with its full space group is C_6h.


 Subroutine INISYM returns: Found 12 space group operations
 (whereof  6 operations are pure point group operations),
 and found     1 'primitive' translations

 
 
 KPOINTS: Automatic mesh                          

Automatic generation of k-mesh.
 generate k-points for:    7    7   15
Space group operators:
 irot       det(A)        alpha          n_x          n_y          n_z        tau_x        tau_y        tau_z
    1     1.000000     0.000001     1.000000     0.000000     0.000000     0.000000     0.000000     0.000000
    2    -1.000000     0.000001     1.000000     0.000000     0.000000     0.000000     0.000000     0.000000
    3     1.000000   120.000000     0.000000     0.000000    -1.000000     0.000000     0.000000     0.000000
    4    -1.000000   120.000000     0.000000     0.000000    -1.000000     0.000000     0.000000     0.000000
    5     1.000000   120.000000     0.000000     0.000000     1.000000     0.000000     0.000000     0.000000
    6    -1.000000   120.000000     0.000000     0.000000     1.000000     0.000000     0.000000     0.000000
    7     1.000000    60.000000     0.000000     0.000000    -1.000000     0.000000     0.000000     0.500000
    8    -1.000000    60.000000     0.000000     0.000000    -1.000000     0.000000     0.000000     0.500000
    9     1.000000   179.999999     0.000000     0.000000     1.000000     0.000000     0.000000     0.500000
   10    -1.000000   179.999999     0.000000     0.000000     1.000000     0.000000     0.000000     0.500000
   11     1.000000    60.000000     0.000000     0.000000     1.000000     0.000000     0.000000     0.500000
   12    -1.000000    60.000000     0.000000     0.000000     1.000000     0.000000     0.000000     0.500000
 
 Subroutine IBZKPT returns following result:
 ===========================================
 
 Found     72 irreducible k-points:
 
 Following reciprocal coordinates:
            Coordinates               Weight
  0.000000  0.000000  0.000000      1.000000
  0.142857  0.000000  0.000000      6.000000
  0.285714  0.000000  0.000000      6.000000
  0.428571  0.000000  0.000000      6.000000
  0.142857  0.142857  0.000000      6.000000
  0.285714  0.142857  0.000000      6.000000
  0.428571  0.142857  0.000000      6.000000
 -0.428571  0.142857  0.000000      6.000000
  0.285714  0.285714  0.000000      6.000000
  0.000000  0.000000  0.066667      2.000000
  0.142857  0.000000  0.066667     12.000000
  0.285714  0.000000  0.066667     12.000000
  0.428571  0.000000  0.066667     12.000000
  0.142857  0.142857  0.066667     12.000000
  0.285714  0.142857  0.066667     12.000000
  0.428571  0.142857  0.066667     12.000000
 -0.428571  0.142857  0.066667     12.000000
  0.285714  0.285714  0.066667     12.000000
  0.000000  0.000000  0.133333      2.000000
  0.142857  0.000000  0.133333     12.000000
  0.285714  0.000000  0.133333     12.000000
  0.428571  0.000000  0.133333     12.000000
  0.142857  0.142857  0.133333     12.000000
  0.285714  0.142857  0.133333     12.000000
  0.428571  0.142857  0.133333     12.000000
 -0.428571  0.142857  0.133333     12.000000
  0.285714  0.285714  0.133333     12.000000
  0.000000  0.000000  0.200000      2.000000
  0.142857  0.000000  0.200000     12.000000
  0.285714  0.000000  0.200000     12.000000
  0.428571  0.000000  0.200000     12.000000
  0.142857  0.142857  0.200000     12.000000
  0.285714  0.142857  0.200000     12.000000
  0.428571  0.142857  0.200000     12.000000
 -0.428571  0.142857  0.200000     12.000000
  0.285714  0.285714  0.200000     12.000000
  0.000000  0.000000  0.266667      2.000000
  0.142857  0.000000  0.266667     12.000000
  0.285714  0.000000  0.266667     12.000000
  0.428571  0.000000  0.266667     12.000000
  0.142857  0.142857  0.266667     12.000000
  0.285714  0.142857  0.266667     12.000000
  0.428571  0.142857  0.266667     12.000000
 -0.428571  0.142857  0.266667     12.000000
  0.285714  0.285714  0.266667     12.000000
  0.000000  0.000000  0.333333      2.000000
  0.142857  0.000000  0.333333     12.000000
  0.285714  0.000000  0.333333     12.000000
  0.428571  0.000000  0.333333     12.000000
  0.142857  0.142857  0.333333     12.000000
  0.285714  0.142857  0.333333     12.000000
  0.428571  0.142857  0.333333     12.000000
 -0.428571  0.142857  0.333333     12.000000
  0.285714  0.285714  0.333333     12.000000
  0.000000  0.000000  0.400000      2.000000
  0.142857  0.000000  0.400000     12.000000
  0.285714  0.000000  0.400000     12.000000
  0.428571  0.000000  0.400000     12.000000
  0.142857  0.142857  0.400000     12.000000
  0.285714  0.142857  0.400000     12.000000
  0.428571  0.142857  0.400000     12.000000
 -0.428571  0.142857  0.400000     12.000000
  0.285714  0.285714  0.400000     12.000000
  0.000000  0.000000  0.466667      2.000000
  0.142857  0.000000  0.466667     12.000000
  0.285714  0.000000  0.466667     12.000000
  0.428571  0.000000  0.466667     12.000000
  0.142857  0.142857  0.466667     12.000000
  0.285714  0.142857  0.466667     12.000000
  0.428571  0.142857  0.466667     12.000000
 -0.428571  0.142857  0.466667     12.000000
  0.285714  0.285714  0.466667     12.000000
 
 Following cartesian coordinates:
            Coordinates               Weight
  0.000000  0.000000  0.000000      1.000000
  0.018786 -0.010846  0.000000      6.000000
  0.037572 -0.021692  0.000000      6.000000
  0.056357 -0.032538  0.000000      6.000000
  0.037572  0.000000  0.000000      6.000000
  0.056357 -0.010846  0.000000      6.000000
  0.075143 -0.021692  0.000000      6.000000
 -0.037572  0.043384  0.000000      6.000000
  0.075143  0.000000  0.000000      6.000000
  0.000000  0.000000  0.022947      2.000000
  0.018786 -0.010846  0.022947     12.000000
  0.037572 -0.021692  0.022947     12.000000
  0.056357 -0.032538  0.022947     12.000000
  0.037572  0.000000  0.022947     12.000000
  0.056357 -0.010846  0.022947     12.000000
  0.075143 -0.021692  0.022947     12.000000
 -0.037572  0.043384  0.022947     12.000000
  0.075143  0.000000  0.022947     12.000000
  0.000000  0.000000  0.045895      2.000000
  0.018786 -0.010846  0.045895     12.000000
  0.037572 -0.021692  0.045895     12.000000
  0.056357 -0.032538  0.045895     12.000000
  0.037572  0.000000  0.045895     12.000000
  0.056357 -0.010846  0.045895     12.000000
  0.075143 -0.021692  0.045895     12.000000
 -0.037572  0.043384  0.045895     12.000000
  0.075143  0.000000  0.045895     12.000000
  0.000000  0.000000  0.068842      2.000000
  0.018786 -0.010846  0.068842     12.000000
  0.037572 -0.021692  0.068842     12.000000
  0.056357 -0.032538  0.068842     12.000000
  0.037572  0.000000  0.068842     12.000000
  0.056357 -0.010846  0.068842     12.000000
  0.075143 -0.021692  0.068842     12.000000
 -0.037572  0.043384  0.068842     12.000000
  0.075143  0.000000  0.068842     12.000000
  0.000000  0.000000  0.091789      2.000000
  0.018786 -0.010846  0.091789     12.000000
  0.037572 -0.021692  0.091789     12.000000
  0.056357 -0.032538  0.091789     12.000000
  0.037572  0.000000  0.091789     12.000000
  0.056357 -0.010846  0.091789     12.000000
  0.075143 -0.021692  0.091789     12.000000
 -0.037572  0.043384  0.091789     12.000000
  0.075143  0.000000  0.091789     12.000000
  0.000000  0.000000  0.114737      2.000000
  0.018786 -0.010846  0.114737     12.000000
  0.037572 -0.021692  0.114737     12.000000
  0.056357 -0.032538  0.114737     12.000000
  0.037572  0.000000  0.114737     12.000000
  0.056357 -0.010846  0.114737     12.000000
  0.075143 -0.021692  0.114737     12.000000
 -0.037572  0.043384  0.114737     12.000000
  0.075143  0.000000  0.114737     12.000000
  0.000000  0.000000  0.137684      2.000000
  0.018786 -0.010846  0.137684     12.000000
  0.037572 -0.021692  0.137684     12.000000
  0.056357 -0.032538  0.137684     12.000000
  0.037572  0.000000  0.137684     12.000000
  0.056357 -0.010846  0.137684     12.000000
  0.075143 -0.021692  0.137684     12.000000
 -0.037572  0.043384  0.137684     12.000000
  0.075143  0.000000  0.137684     12.000000
  0.000000  0.000000  0.160632      2.000000
  0.018786 -0.010846  0.160632     12.000000
  0.037572 -0.021692  0.160632     12.000000
  0.056357 -0.032538  0.160632     12.000000
  0.037572  0.000000  0.160632     12.000000
  0.056357 -0.010846  0.160632     12.000000
  0.075143 -0.021692  0.160632     12.000000
 -0.037572  0.043384  0.160632     12.000000
  0.075143  0.000000  0.160632     12.000000
 


--------------------------------------------------------------------------------------------------------




 Dimension of arrays:
   k-points           NKPTS =     72   k-points in BZ     NKDIM =     72   number of bands    NBANDS=     40
   number of dos      NEDOS =    301   number of ions     NIONS =     14
   non local maximal  LDIM  =      4   non local SUM 2l+1 LMDIM =      8
   total plane-waves  NPLWV =  50000
   max r-space proj   IRMAX =   7095   max aug-charges    IRDMAX=  11688
   dimension x,y,z NGX =    50 NGY =   50 NGZ =   20
   dimension x,y,z NGXF=   100 NGYF=  100 NGZF=   40
   support grid    NGXF=   100 NGYF=  100 NGZF=   40
   ions per type =               6   8
   NGX,Y,Z   is equivalent  to a cutoff of  10.93, 10.93, 11.44 a.u.
   NGXF,Y,Z  is equivalent  to a cutoff of  21.86, 21.86, 22.89 a.u.

 SYSTEM =  unknown system                          
 POSCAR =  Si6 N8                                  

 Startparameter for this run:
   NWRITE =      2    write-flag & timer
   PREC   = accura    normal or accurate (medium, high low for compatibility)
   ISTART =      0    job   : 0-new  1-cont  2-samecut
   ICHARG =      2    charge: 1-file 2-atom 10-const
   ISPIN  =      1    spin polarized calculation?
   LNONCOLLINEAR =      F non collinear calculations
   LSORBIT =      F    spin-orbit coupling
   INIWAV =      1    electr: 0-lowe 1-rand  2-diag
   LASPH  =      F    aspherical Exc in radial PAW
   METAGGA=      F    non-selfconsistent MetaGGA calc.

 Electronic Relaxation 1
   ENCUT  =  400.0 eV  29.40 Ry    5.42 a.u.  12.40 12.40  4.74*2*pi/ulx,y,z
   ENINI  =  400.0     initial cutoff
   ENAUG  =  627.1 eV  augmentation charge cutoff
   NELM   =     60;   NELMIN=  2; NELMDL= -5     # of ELM steps 
   EDIFF  = 0.1E-03   stopping-criterion for ELM
   LREAL  =      T    real-space projection
   NLSPLINE    = F    spline interpolate recip. space projectors
   LCOMPAT=      F    compatible to vasp.4.4
   GGA_COMPAT  = T    GGA compatible to vasp.4.4-vasp.4.6
   LMAXPAW     = -100 max onsite density
   LMAXMIX     =    2 max onsite mixed and CHGCAR
   VOSKOWN=      0    Vosko Wilk Nusair interpolation
   ROPT   =   -0.00025  -0.00025
 Ionic relaxation
   EDIFFG = 0.1E-02   stopping-criterion for IOM
   NSW    =    100    number of steps for IOM
   NBLOCK =      1;   KBLOCK =    100    inner block; outer block 
   IBRION =      2    ionic relax: 0-MD 1-quasi-New 2-CG
   NFREE  =      1    steps in history (QN), initial steepest desc. (CG)
   ISIF   =      3    stress and relaxation
   IWAVPR =     11    prediction:  0-non 1-charg 2-wave 3-comb
   ISYM   =      2    0-nonsym 1-usesym 2-fastsym
   LCORR  =      T    Harris-Foulkes like correction to forces

   POTIM  = 0.5000    time-step for ionic-motion
   TEIN   =    0.0    initial temperature
   TEBEG  =    0.0;   TEEND  =   0.0 temperature during run
   SMASS  =  -3.00    Nose mass-parameter (am)
   estimated Nose-frequenzy (Omega)   =  0.10E-29 period in steps =****** mass=  -0.132E-26a.u.
   SCALEE = 1.0000    scale energy and forces
   NPACO  =    256;   APACO  = 16.0  distance and # of slots for P.C.
   PSTRESS=    0.0 pullay stress

  Mass of Ions in am
   POMASS =  14.00 28.09
  Ionic Valenz
   ZVAL   =   5.00  4.00
  Atomic Wigner-Seitz radii
   RWIGS  =  -1.00 -1.00
  virtual crystal weights 
   VCA    =   1.00  1.00
   NELECT =      62.0000    total number of electrons
   NUPDOWN=      -1.0000    fix difference up-down

 DOS related values:
   EMIN   =  10.00;   EMAX   =-10.00  energy-range for DOS
   EFERMI =   0.00
   ISMEAR =     2;   SIGMA  =   0.10  broadening in eV -4-tet -1-fermi 0-gaus

 Electronic relaxation 2 (details)
   IALGO  =     68    algorithm
   LDIAG  =      T    sub-space diagonalisation (order eigenvalues)
   LSUBROT=      F    optimize rotation matrix (better conditioning)
   TURBO    =      0    0=normal 1=particle mesh
   IRESTART =      0    0=no restart 2=restart with 2 vectors
   NREBOOT  =      0    no. of reboots
   NMIN     =      0    reboot dimension
   EREF     =   0.00    reference energy to select bands
   IMIX   =      4    mixing-type and parameters
     AMIX     =   0.40;   BMIX     =  1.00
     AMIX_MAG =   1.60;   BMIX_MAG =  1.00
     AMIN     =   0.10
     WC   =   100.;   INIMIX=   1;  MIXPRE=   1;  MAXMIX= -45

 Intra band minimization:
   WEIMIN = 0.0010     energy-eigenvalue tresh-hold
   EBREAK =  0.63E-06  absolut break condition
   DEPER  =   0.30     relativ break condition  

   TIME   =   0.40     timestep for ELM

  volume/ion in A,a.u.               =      10.39        70.13
  Fermi-wavevector in a.u.,A,eV,Ry     =   1.231935  2.328019 20.649066  1.517664
  Thomas-Fermi vector in A             =   2.366725
 
 Write flags
   LWAVE        =      F    write WAVECAR
   LDOWNSAMPLE  =      F    k-point downsampling of WAVECAR
   LCHARG       =      F    write CHGCAR
   LVTOT        =      F    write LOCPOT, total local potential
   LVHAR        =      F    write LOCPOT, Hartree potential only
   LELF         =      F    write electronic localiz. function (ELF)
   LORBIT       =      0    0 simple, 1 ext, 2 COOP (PROOUT), +10 PAW based schemes


 Dipole corrections
   LMONO  =      F    monopole corrections only (constant potential shift)
   LDIPOL =      F    correct potential (dipole corrections)
   IDIPOL =      0    1-x, 2-y, 3-z, 4-all directions 
   EPSILON=  1.0000000 bulk dielectric constant

 Exchange correlation treatment:
   GGA     =    --    GGA type
   LEXCH   =     8    internal setting for exchange type
   VOSKOWN=      0    Vosko Wilk Nusair interpolation
   LHFCALC =     F    Hartree Fock is set to
   LHFONE  =     F    Hartree Fock one center treatment
   AEXX    =    0.0000 exact exchange contribution

 Linear response parameters
   LEPSILON=     F    determine dielectric tensor
   LRPA    =     F    only Hartree local field effects (RPA)
   LNABLA  =     F    use nabla operator in PAW spheres
   LVEL    =     F    velocity operator in full k-point grid
   LINTERFAST=   F  fast interpolation
   KINTER  =     0    interpolate to denser k-point grid
   CSHIFT  =0.1000    complex shift for real part using Kramers Kronig
   OMEGAMAX=  -1.0    maximum frequency
   DEG_THRESHOLD= 0.2000000E-02 threshold for treating states as degnerate
   RTIME   =   -0.100 relaxation time in fs
  (WPLASMAI=    0.000 imaginary part of plasma frequency in eV, 0.658/RTIME)
   DFIELD  = 0.0000000 0.0000000 0.0000000 field for delta impulse in time
 
 Orbital magnetization related:
   ORBITALMAG=     F  switch on orbital magnetization
   LCHIMAG   =     F  perturbation theory with respect to B field
   DQ        =  0.001000  dq finite difference perturbation B field
   LLRAUG    =     F  two centre corrections for induced B field



--------------------------------------------------------------------------------------------------------


 conjugate gradient relaxation of ions
 charge density and potential will be updated during run
 non-spin polarized calculation
 RMM-DIIS sequential band-by-band and
  variant of blocked Davidson during initial phase
 perform sub-space diagonalisation
    before iterative eigenvector-optimisation
 modified Broyden-mixing scheme, WC =      100.0
 initial mixing is a Kerker type mixing with AMIX =  0.4000 and BMIX =      1.0000
 Hartree-type preconditioning will be used
 using additional bands            9
 real space projection scheme for non local part
 use partial core corrections
 calculate Harris-corrections to forces 
   (improved forces if not selfconsistent)
 use gradient corrections 
 use of overlap-Matrix (Vanderbilt PP)
 Methfessel and Paxton  Order N= 2 SIGMA  =   0.10


--------------------------------------------------------------------------------------------------------


  energy-cutoff  :      400.00
  volume of cell :      145.50
      direct lattice vectors                 reciprocal lattice vectors
     3.802272218 -6.585728666  0.000000000     0.131500316 -0.075921743  0.000000000
     3.802272218  6.585728666  0.000000000     0.131500316  0.075921743  0.000000000
     0.000000000  0.000000000  2.905199080     0.000000000  0.000000000  0.344210490

  length of vectors
     7.604544436  7.604544436  2.905199080     0.151843486  0.151843486  0.344210490


 
 k-points in units of 2pi/SCALE and weight: Automatic mesh                          
   0.00000000  0.00000000  0.00000000       0.001
   0.01878576 -0.01084596  0.00000000       0.008
   0.03757152 -0.02169193  0.00000000       0.008
   0.05635728 -0.03253789  0.00000000       0.008
   0.03757152  0.00000000  0.00000000       0.008
   0.05635728 -0.01084596  0.00000000       0.008
   0.07514304 -0.02169193  0.00000000       0.008
  -0.03757152  0.04338385  0.00000000       0.008
   0.07514304  0.00000000  0.00000000       0.008
   0.00000000  0.00000000  0.02294737       0.003
   0.01878576 -0.01084596  0.02294737       0.016
   0.03757152 -0.02169193  0.02294737       0.016
   0.05635728 -0.03253789  0.02294737       0.016
   0.03757152  0.00000000  0.02294737       0.016
   0.05635728 -0.01084596  0.02294737       0.016
   0.07514304 -0.02169193  0.02294737       0.016
  -0.03757152  0.04338385  0.02294737       0.016
   0.07514304  0.00000000  0.02294737       0.016
   0.00000000  0.00000000  0.04589473       0.003
   0.01878576 -0.01084596  0.04589473       0.016
   0.03757152 -0.02169193  0.04589473       0.016
   0.05635728 -0.03253789  0.04589473       0.016
   0.03757152  0.00000000  0.04589473       0.016
   0.05635728 -0.01084596  0.04589473       0.016
   0.07514304 -0.02169193  0.04589473       0.016
  -0.03757152  0.04338385  0.04589473       0.016
   0.07514304  0.00000000  0.04589473       0.016
   0.00000000  0.00000000  0.06884210       0.003
   0.01878576 -0.01084596  0.06884210       0.016
   0.03757152 -0.02169193  0.06884210       0.016
   0.05635728 -0.03253789  0.06884210       0.016
   0.03757152  0.00000000  0.06884210       0.016
   0.05635728 -0.01084596  0.06884210       0.016
   0.07514304 -0.02169193  0.06884210       0.016
  -0.03757152  0.04338385  0.06884210       0.016
   0.07514304  0.00000000  0.06884210       0.016
   0.00000000  0.00000000  0.09178946       0.003
   0.01878576 -0.01084596  0.09178946       0.016
   0.03757152 -0.02169193  0.09178946       0.016
   0.05635728 -0.03253789  0.09178946       0.016
   0.03757152  0.00000000  0.09178946       0.016
   0.05635728 -0.01084596  0.09178946       0.016
   0.07514304 -0.02169193  0.09178946       0.016
  -0.03757152  0.04338385  0.09178946       0.016
   0.07514304  0.00000000  0.09178946       0.016
   0.00000000  0.00000000  0.11473683       0.003
   0.01878576 -0.01084596  0.11473683       0.016
   0.03757152 -0.02169193  0.11473683       0.016
   0.05635728 -0.03253789  0.11473683       0.016
   0.03757152  0.00000000  0.11473683       0.016
   0.05635728 -0.01084596  0.11473683       0.016
   0.07514304 -0.02169193  0.11473683       0.016
  -0.03757152  0.04338385  0.11473683       0.016
   0.07514304  0.00000000  0.11473683       0.016
   0.00000000  0.00000000  0.13768420       0.003
   0.01878576 -0.01084596  0.13768420       0.016
   0.03757152 -0.02169193  0.13768420       0.016
   0.05635728 -0.03253789  0.13768420       0.016
   0.03757152  0.00000000  0.13768420       0.016
   0.05635728 -0.01084596  0.13768420       0.016
   0.07514304 -0.02169193  0.13768420       0.016
  -0.03757152  0.04338385  0.13768420       0.016
   0.07514304  0.00000000  0.13768420       0.016
   0.00000000  0.00000000  0.16063156       0.003
   0.01878576 -0.01084596  0.16063156       0.016
   0.03757152 -0.02169193  0.16063156       0.016
   0.05635728 -0.03253789  0.16063156       0.016
   0.03757152  0.00000000  0.16063156       0.016
   0.05635728 -0.01084596  0.16063156       0.016
   0.07514304 -0.02169193  0.16063156       0.016
  -0.03757152  0.04338385  0.16063156       0.016
   0.07514304  0.00000000  0.16063156       0.016
 
 k-points in reciprocal lattice and weights: Automatic mesh                          
   0.00000000  0.00000000  0.00000000       0.001
   0.14285714  0.00000000  0.00000000       0.008
   0.28571429  0.00000000  0.00000000       0.008
   0.42857143  0.00000000  0.00000000       0.008
   0.14285714  0.14285714  0.00000000       0.008
   0.28571429  0.14285714  0.00000000       0.008
   0.42857143  0.14285714  0.00000000       0.008
  -0.42857143  0.14285714  0.00000000       0.008
   0.28571429  0.28571429  0.00000000       0.008
   0.00000000  0.00000000  0.06666667       0.003
   0.14285714  0.00000000  0.06666667       0.016
   0.28571429  0.00000000  0.06666667       0.016
   0.42857143  0.00000000  0.06666667       0.016
   0.14285714  0.14285714  0.06666667       0.016
   0.28571429  0.14285714  0.06666667       0.016
   0.42857143  0.14285714  0.06666667       0.016
  -0.42857143  0.14285714  0.06666667       0.016
   0.28571429  0.28571429  0.06666667       0.016
   0.00000000  0.00000000  0.13333333       0.003
   0.14285714  0.00000000  0.13333333       0.016
   0.28571429  0.00000000  0.13333333       0.016
   0.42857143  0.00000000  0.13333333       0.016
   0.14285714  0.14285714  0.13333333       0.016
   0.28571429  0.14285714  0.13333333       0.016
   0.42857143  0.14285714  0.13333333       0.016
  -0.42857143  0.14285714  0.13333333       0.016
   0.28571429  0.28571429  0.13333333       0.016
   0.00000000  0.00000000  0.20000000       0.003
   0.14285714  0.00000000  0.20000000       0.016
   0.28571429  0.00000000  0.20000000       0.016
   0.42857143  0.00000000  0.20000000       0.016
   0.14285714  0.14285714  0.20000000       0.016
   0.28571429  0.14285714  0.20000000       0.016
   0.42857143  0.14285714  0.20000000       0.016
  -0.42857143  0.14285714  0.20000000       0.016
   0.28571429  0.28571429  0.20000000       0.016
   0.00000000  0.00000000  0.26666667       0.003
   0.14285714  0.00000000  0.26666667       0.016
   0.28571429  0.00000000  0.26666667       0.016
   0.42857143  0.00000000  0.26666667       0.016
   0.14285714  0.14285714  0.26666667       0.016
   0.28571429  0.14285714  0.26666667       0.016
   0.42857143  0.14285714  0.26666667       0.016
  -0.42857143  0.14285714  0.26666667       0.016
   0.28571429  0.28571429  0.26666667       0.016
   0.00000000  0.00000000  0.33333333       0.003
   0.14285714  0.00000000  0.33333333       0.016
   0.28571429  0.00000000  0.33333333       0.016
   0.42857143  0.00000000  0.33333333       0.016
   0.14285714  0.14285714  0.33333333       0.016
   0.28571429  0.14285714  0.33333333       0.016
   0.42857143  0.14285714  0.33333333       0.016
  -0.42857143  0.14285714  0.33333333       0.016
   0.28571429  0.28571429  0.33333333       0.016
   0.00000000  0.00000000  0.40000000       0.003
   0.14285714  0.00000000  0.40000000       0.016
   0.28571429  0.00000000  0.40000000       0.016
   0.42857143  0.00000000  0.40000000       0.016
   0.14285714  0.14285714  0.40000000       0.016
   0.28571429  0.14285714  0.40000000       0.016
   0.42857143  0.14285714  0.40000000       0.016
  -0.42857143  0.14285714  0.40000000       0.016
   0.28571429  0.28571429  0.40000000       0.016
   0.00000000  0.00000000  0.46666667       0.003
   0.14285714  0.00000000  0.46666667       0.016
   0.28571429  0.00000000  0.46666667       0.016
   0.42857143  0.00000000  0.46666667       0.016
   0.14285714  0.14285714  0.46666667       0.016
   0.28571429  0.14285714  0.46666667       0.016
   0.42857143  0.14285714  0.46666667       0.016
  -0.42857143  0.14285714  0.46666667       0.016
   0.28571429  0.28571429  0.46666667       0.016
 
 position of ions in fractional coordinates (direct lattice) 
   0.23108243  0.82494615  0.75000000
   0.40613628  0.23108243  0.25000000
   0.82494615  0.59386372  0.25000000
   0.17505385  0.40613628  0.75000000
   0.59386372  0.76891757  0.75000000
   0.76891757  0.17505385  0.25000000
   0.33333333  0.66666667  0.75000000
   0.66666667  0.33333333  0.25000000
   0.96919449  0.66985340  0.75000000
   0.29934109  0.96919449  0.25000000
   0.66985340  0.70065891  0.25000000
   0.33014660  0.29934109  0.75000000
   0.03080551  0.33014660  0.25000000
   0.70065891  0.03080551  0.75000000
 
 position of ions in cartesian coordinates  (Angst):
   4.01530813  3.91102532  2.17889931
   2.42287900 -1.15285716  0.72629977
   5.39470135 -1.52184618  0.72629977
   2.20984308  1.52184618  2.17889931
   5.18166544  1.15285716  2.17889931
   3.58923630 -3.91102532  0.72629977
   3.80227222  2.19524289  2.17889931
   3.80227222 -2.19524289  0.72629977
   6.23210626 -1.97137920  2.17889931
   4.82331759  4.41147274  0.72629977
   5.21106088  0.20287673  0.72629977
   2.39348356 -0.20287673  2.17889931
   1.37243818  1.97137920  0.72629977
   2.78122684 -4.41147274  2.17889931
 


--------------------------------------------------------------------------------------------------------


 k-point  1 :   0.0000 0.0000 0.0000  plane waves:    2661
 k-point  2 :   0.1429 0.0000 0.0000  plane waves:    2665
 k-point  3 :   0.2857 0.0000 0.0000  plane waves:    2652
 k-point  4 :   0.4286 0.0000 0.0000  plane waves:    2650
 k-point  5 :   0.1429 0.1429 0.0000  plane waves:    2627
 k-point  6 :   0.2857 0.1429 0.0000  plane waves:    2644
 k-point  7 :   0.4286 0.1429 0.0000  plane waves:    2640
 k-point  8 :  -0.4286 0.1429 0.0000  plane waves:    2644
 k-point  9 :   0.2857 0.2857 0.0000  plane waves:    2642
 k-point 10 :   0.0000 0.0000 0.0667  plane waves:    2649
 k-point 11 :   0.1429 0.0000 0.0667  plane waves:    2660
 k-point 12 :   0.2857 0.0000 0.0667  plane waves:    2653
 k-point 13 :   0.4286 0.0000 0.0667  plane waves:    2648
 k-point 14 :   0.1429 0.1429 0.0667  plane waves:    2650
 k-point 15 :   0.2857 0.1429 0.0667  plane waves:    2642
 k-point 16 :   0.4286 0.1429 0.0667  plane waves:    2641
 k-point 17 :  -0.4286 0.1429 0.0667  plane waves:    2642
 k-point 18 :   0.2857 0.2857 0.0667  plane waves:    2645
 k-point 19 :   0.0000 0.0000 0.1333  plane waves:    2655
 k-point 20 :   0.1429 0.0000 0.1333  plane waves:    2649
 k-point 21 :   0.2857 0.0000 0.1333  plane waves:    2654
 k-point 22 :   0.4286 0.0000 0.1333  plane waves:    2646
 k-point 23 :   0.1429 0.1429 0.1333  plane waves:    2645
 k-point 24 :   0.2857 0.1429 0.1333  plane waves:    2642
 k-point 25 :   0.4286 0.1429 0.1333  plane waves:    2637
 k-point 26 :  -0.4286 0.1429 0.1333  plane waves:    2642
 k-point 27 :   0.2857 0.2857 0.1333  plane waves:    2640
 k-point 28 :   0.0000 0.0000 0.2000  plane waves:    2625
 k-point 29 :   0.1429 0.0000 0.2000  plane waves:    2640
 k-point 30 :   0.2857 0.0000 0.2000  plane waves:    2643
 k-point 31 :   0.4286 0.0000 0.2000  plane waves:    2635
 k-point 32 :   0.1429 0.1429 0.2000  plane waves:    2643
 k-point 33 :   0.2857 0.1429 0.2000  plane waves:    2646
 k-point 34 :   0.4286 0.1429 0.2000  plane waves:    2639
 k-point 35 :  -0.4286 0.1429 0.2000  plane waves:    2646
 k-point 36 :   0.2857 0.2857 0.2000  plane waves:    2633
 k-point 37 :   0.0000 0.0000 0.2667  plane waves:    2638
 k-point 38 :   0.1429 0.0000 0.2667  plane waves:    2637
 k-point 39 :   0.2857 0.0000 0.2667  plane waves:    2636
 k-point 40 :   0.4286 0.0000 0.2667  plane waves:    2628
 k-point 41 :   0.1429 0.1429 0.2667  plane waves:    2647
 k-point 42 :   0.2857 0.1429 0.2667  plane waves:    2631
 k-point 43 :   0.4286 0.1429 0.2667  plane waves:    2634
 k-point 44 :  -0.4286 0.1429 0.2667  plane waves:    2631
 k-point 45 :   0.2857 0.2857 0.2667  plane waves:    2637
 k-point 46 :   0.0000 0.0000 0.3333  plane waves:    2632
 k-point 47 :   0.1429 0.0000 0.3333  plane waves:    2632
 k-point 48 :   0.2857 0.0000 0.3333  plane waves:    2632
 k-point 49 :   0.4286 0.0000 0.3333  plane waves:    2654
 k-point 50 :   0.1429 0.1429 0.3333  plane waves:    2635
 k-point 51 :   0.2857 0.1429 0.3333  plane waves:    2639
 k-point 52 :   0.4286 0.1429 0.3333  plane waves:    2643
 k-point 53 :  -0.4286 0.1429 0.3333  plane waves:    2639
 k-point 54 :   0.2857 0.2857 0.3333  plane waves:    2647
 k-point 55 :   0.0000 0.0000 0.4000  plane waves:    2638
 k-point 56 :   0.1429 0.0000 0.4000  plane waves:    2650
 k-point 57 :   0.2857 0.0000 0.4000  plane waves:    2644
 k-point 58 :   0.4286 0.0000 0.4000  plane waves:    2638
 k-point 59 :   0.1429 0.1429 0.4000  plane waves:    2640
 k-point 60 :   0.2857 0.1429 0.4000  plane waves:    2644
 k-point 61 :   0.4286 0.1429 0.4000  plane waves:    2647
 k-point 62 :  -0.4286 0.1429 0.4000  plane waves:    2644
 k-point 63 :   0.2857 0.2857 0.4000  plane waves:    2640
 k-point 64 :   0.0000 0.0000 0.4667  plane waves:    2680
 k-point 65 :   0.1429 0.0000 0.4667  plane waves:    2664
 k-point 66 :   0.2857 0.0000 0.4667  plane waves:    2648
 k-point 67 :   0.4286 0.0000 0.4667  plane waves:    2636
 k-point 68 :   0.1429 0.1429 0.4667  plane waves:    2646
 k-point 69 :   0.2857 0.1429 0.4667  plane waves:    2637
 k-point 70 :   0.4286 0.1429 0.4667  plane waves:    2650
 k-point 71 :  -0.4286 0.1429 0.4667  plane waves:    2637
 k-point 72 :   0.2857 0.2857 0.4667  plane waves:    2653

 maximum and minimum number of plane-waves per node :       693      636

 maximum number of plane-waves:      2680
 maximum index in each direction: 
   IXMAX=   12   IYMAX=   12   IZMAX=    4
   IXMIN=  -12   IYMIN=  -12   IZMIN=   -5


 real space projection operators:
  total allocation   :       4397.25 KBytes
  max/ min on nodes  :       1134.12       1065.38


 parallel 3D FFT for wavefunctions:
    minimum data exchange during FFTs selected (reduces bandwidth)
 parallel 3D FFT for charge:
    minimum data exchange during FFTs selected (reduces bandwidth)


 total amount of memory used by VASP MPI-rank0    44985. kBytes
=======================================================================

   base      :      30000. kBytes
   nonlr-proj:       3075. kBytes
   fftplans  :       1358. kBytes
   grid      :       2154. kBytes
   one-center:         12. kBytes
   wavefun   :       8386. kBytes
 
     INWAV:  cpu time    0.0001: real time    0.0001
 Broyden mixing: mesh for mixing (old mesh)
   NGX = 25   NGY = 25   NGZ =  9
  (NGX  =100   NGY  =100   NGZ  = 40)
  gives a total of   5625 points

 initial charge density was supplied:
 charge density of overlapping atoms calculated
 number of electron      62.0000000 magnetization 
 keeping initial charge density in first step


--------------------------------------------------------------------------------------------------------


 Maximum index for non-local projection operator         1816
 Maximum index for augmentation-charges         1104 (set IRDMAX)


--------------------------------------------------------------------------------------------------------


 First call to EWALD:  gamma=   0.337
 Maximum number of real-space cells 2x 2x 5
 Maximum number of reciprocal cells 4x 4x 2

    FEWALD:  cpu time    0.0013: real time    0.0018


--------------------------------------- Iteration      1(   1)  ---------------------------------------


    POTLOK:  cpu time    0.0172: real time    0.0720
    SETDIJ:  cpu time    0.0017: real time    0.0017
     EDDAV:  cpu time    2.2497: real time    2.2507
       DOS:  cpu time    0.0025: real time    0.0025
    --------------------------------------------
      LOOP:  cpu time    2.2711: real time    2.3269

 eigenvalue-minimisations  :  5792
 total energy-change (2. order) : 0.2434089E+03  (-0.2609287E+04)
 number of electron      62.0000000 magnetization 
 augmentation part       62.0000000 magnetization 

 Free energy of the ion-electron system (eV)
  ---------------------------------------------------
  alpha Z        PSCENC =        83.78564611
  Ewald energy   TEWEN  =     -2225.94365591
  -Hartree energ DENC   =      -524.46889335
  -exchange      EXHF   =         0.00000000
  -V(xc)+E(xc)   XCENC  =        56.45576439
  PAW double counting   =      1934.58678659    -1800.98643654
  entropy T*S    EENTRO =         0.00114495
  eigenvalues    EBANDS =       308.60252904
  atomic energy  EATOM  =      2411.37598431
  Solvation  Ediel_sol  =         0.00000000
  ---------------------------------------------------
  free energy    TOTEN  =       243.40886959 eV

  energy without entropy =      243.40772464  energy(sigma->0) =      243.40858335


--------------------------------------------------------------------------------------------------------




--------------------------------------- Iteration      1(   2)  ---------------------------------------


     EDDAV:  cpu time    2.7335: real time    2.7358
       DOS:  cpu time    0.0030: real time    0.0030
    --------------------------------------------
      LOOP:  cpu time    2.7365: real time    2.7388

 eigenvalue-minimisations  :  7520
 total energy-change (2. order) :-0.3144818E+03  (-0.3035209E+03)
 number of electron      62.0000000 magnetization 
 augmentation part       62.0000000 magnetization 

 Free energy of the ion-electron system (eV)
  ---------------------------------------------------
  alpha Z        PSCENC =        83.78564611
  Ewald energy   TEWEN  =     -2225.94365591
  -Hartree energ DENC   =      -524.46889335
  -exchange      EXHF   =         0.00000000
  -V(xc)+E(xc)   XCENC  =        56.45576439
  PAW double counting   =      1934.58678659    -1800.98643654
  entropy T*S    EENTRO =        -0.00099655
  eigenvalues    EBANDS =        -5.87710866
  atomic energy  EATOM  =      2411.37598431
  Solvation  Ediel_sol  =         0.00000000
  ---------------------------------------------------
  free energy    TOTEN  =       -71.07290961 eV

  energy without entropy =      -71.07191307  energy(sigma->0) =      -71.07266048


--------------------------------------------------------------------------------------------------------




--------------------------------------- Iteration      1(   3)  ---------------------------------------


     EDDAV:  cpu time    2.7247: real time    2.7272
       DOS:  cpu time    0.0028: real time    0.0028
    --------------------------------------------
      LOOP:  cpu time    2.7275: real time    2.7299

 eigenvalue-minimisations  :  7496
 total energy-change (2. order) :-0.2234150E+02  (-0.2170615E+02)
 number of electron      62.0000000 magnetization 
 augmentation part       62.0000000 magnetization 

 Free energy of the ion-electron system (eV)
  ---------------------------------------------------
  alpha Z        PSCENC =        83.78564611
  Ewald energy   TEWEN  =     -2225.94365591
  -Hartree energ DENC   =      -524.46889335
  -exchange      EXHF   =         0.00000000
  -V(xc)+E(xc)   XCENC  =        56.45576439
  PAW double counting   =      1934.58678659    -1800.98643654
  entropy T*S    EENTRO =         0.00078644
  eigenvalues    EBANDS =       -28.22038727
  atomic energy  EATOM  =      2411.37598431
  Solvation  Ediel_sol  =         0.00000000
  ---------------------------------------------------
  free energy    TOTEN  =       -93.41440523 eV

  energy without entropy =      -93.41519167  energy(sigma->0) =      -93.41460184


--------------------------------------------------------------------------------------------------------




--------------------------------------- Iteration      1(   4)  ---------------------------------------


     EDDAV:  cpu time    2.6965: real time    2.6994
       DOS:  cpu time    0.0027: real time    0.0027
    --------------------------------------------
      LOOP:  cpu time    2.6992: real time    2.7020

 eigenvalue-minimisations  :  7336
 total energy-change (2. order) :-0.4674820E+00  (-0.4611616E+00)
 number of electron      62.0000000 magnetization 
 augmentation part       62.0000000 magnetization 

 Free energy of the ion-electron system (eV)
  ---------------------------------------------------
  alpha Z        PSCENC =        83.78564611
  Ewald energy   TEWEN  =     -2225.94365591
  -Hartree energ DENC   =      -524.46889335
  -exchange      EXHF   =         0.00000000
  -V(xc)+E(xc)   XCENC  =        56.45576439
  PAW double counting   =      1934.58678659    -1800.98643654
  entropy T*S    EENTRO =         0.00119042
  eigenvalues    EBANDS =       -28.68827326
  atomic energy  EATOM  =      2411.37598431
  Solvation  Ediel_sol  =         0.00000000
  ---------------------------------------------------
  free energy    TOTEN  =       -93.88188724 eV

  energy without entropy =      -93.88307766  energy(sigma->0) =      -93.88218484


--------------------------------------------------------------------------------------------------------




--------------------------------------- Iteration      1(   5)  ---------------------------------------


     EDDAV:  cpu time    2.7013: real time    2.7038
       DOS:  cpu time    0.0027: real time    0.0027
    CHARGE:  cpu time    0.1235: real time    0.1235
    MIXING:  cpu time    0.0004: real time    0.0004
    --------------------------------------------
      LOOP:  cpu time    2.8279: real time    2.8304

 eigenvalue-minimisations  :  7392
 total energy-change (2. order) :-0.1082369E-01  (-0.1079785E-01)
 number of electron      61.9999994 magnetization 
 augmentation part        0.4740061 magnetization 

 Broyden mixing:
  rms(total) = 0.27885E+01    rms(broyden)= 0.27880E+01
  rms(prec ) = 0.39122E+01
  weight for this iteration     100.00

 Free energy of the ion-electron system (eV)
  ---------------------------------------------------
  alpha Z        PSCENC =        83.78564611
  Ewald energy   TEWEN  =     -2225.94365591
  -Hartree energ DENC   =      -524.46889335
  -exchange      EXHF   =         0.00000000
  -V(xc)+E(xc)   XCENC  =        56.45576439
  PAW double counting   =      1934.58678659    -1800.98643654
  entropy T*S    EENTRO =         0.00119110
  eigenvalues    EBANDS =       -28.69909763
  atomic energy  EATOM  =      2411.37598431
  Solvation  Ediel_sol  =         0.00000000
  ---------------------------------------------------
  free energy    TOTEN  =       -93.89271093 eV

  energy without entropy =      -93.89390203  energy(sigma->0) =      -93.89300870


--------------------------------------------------------------------------------------------------------




--------------------------------------- Iteration      1(   6)  ---------------------------------------


    POTLOK:  cpu time    0.0144: real time    0.0175
    SETDIJ:  cpu time    0.0017: real time    0.0022
    EDDIAG:  cpu time    0.3307: real time    0.3307
  RMM-DIIS:  cpu time    1.3813: real time    1.3815
    ORTHCH:  cpu time    0.0607: real time    0.0607
       DOS:  cpu time    0.0027: real time    0.0027
    CHARGE:  cpu time    0.1248: real time    0.1248
    MIXING:  cpu time    0.0005: real time    0.0005
    --------------------------------------------
      LOOP:  cpu time    1.9168: real time    1.9207

 eigenvalue-minimisations  :  5763
 total energy-change (2. order) : 0.1131307E+02  (-0.4759885E+01)
 number of electron      61.9999996 magnetization 
 augmentation part       -0.2360462 magnetization 

 Broyden mixing:
  rms(total) = 0.12383E+01    rms(broyden)= 0.12379E+01
  rms(prec ) = 0.13312E+01
  weight for this iteration     100.00

 eigenvalues of (default mixing * dielectric matrix)
  average eigenvalue GAMMA=   1.2443
  1.2443

 Free energy of the ion-electron system (eV)
  ---------------------------------------------------
  alpha Z        PSCENC =        83.78564611
  Ewald energy   TEWEN  =     -2225.94365591
  -Hartree energ DENC   =      -611.73519357
  -exchange      EXHF   =         0.00000000
  -V(xc)+E(xc)   XCENC  =        62.32789659
  PAW double counting   =      4633.39956382    -4500.84402835
  entropy T*S    EENTRO =        -0.00039961
  eigenvalues    EBANDS =        65.05455018
  atomic energy  EATOM  =      2411.37598431
  Solvation  Ediel_sol  =         0.00000000
  ---------------------------------------------------
  free energy    TOTEN  =       -82.57963642 eV

  energy without entropy =      -82.57923682  energy(sigma->0) =      -82.57953652


--------------------------------------------------------------------------------------------------------




--------------------------------------- Iteration      1(   7)  ---------------------------------------


    POTLOK:  cpu time    0.0147: real time    0.0172
    SETDIJ:  cpu time    0.0016: real time    0.0020
    EDDIAG:  cpu time    0.3332: real time    0.3336
  RMM-DIIS:  cpu time    1.4511: real time    1.4513
    ORTHCH:  cpu time    0.0565: real time    0.0565
       DOS:  cpu time    0.0029: real time    0.0029
    CHARGE:  cpu time    0.1249: real time    0.1249
    MIXING:  cpu time    0.0005: real time    0.0005
    --------------------------------------------
      LOOP:  cpu time    1.9856: real time    1.9890

 eigenvalue-minimisations  :  6134
 total energy-change (2. order) : 0.6488743E-01  (-0.2296964E+00)
 number of electron      61.9999996 magnetization 
 augmentation part       -0.3357906 magnetization 

 Broyden mixing:
  rms(total) = 0.65247E+00    rms(broyden)= 0.65239E+00
  rms(prec ) = 0.71305E+00
  weight for this iteration     100.00

 eigenvalues of (default mixing * dielectric matrix)
  average eigenvalue GAMMA=   1.6769
  1.1658  2.1879

 Free energy of the ion-electron system (eV)
  ---------------------------------------------------
  alpha Z        PSCENC =        83.78564611
  Ewald energy   TEWEN  =     -2225.94365591
  -Hartree energ DENC   =      -619.40259760
  -exchange      EXHF   =         0.00000000
  -V(xc)+E(xc)   XCENC  =        63.18480211
  PAW double counting   =      7231.72656116    -7099.68585220
  entropy T*S    EENTRO =        -0.00185988
  eigenvalues    EBANDS =        72.44622292
  atomic energy  EATOM  =      2411.37598431
  Solvation  Ediel_sol  =         0.00000000
  ---------------------------------------------------
  free energy    TOTEN  =       -82.51474899 eV

  energy without entropy =      -82.51288911  energy(sigma->0) =      -82.51428402


--------------------------------------------------------------------------------------------------------




--------------------------------------- Iteration      1(   8)  ---------------------------------------


    POTLOK:  cpu time    0.0146: real time    0.0168
    SETDIJ:  cpu time    0.0016: real time    0.0016
    EDDIAG:  cpu time    0.3344: real time    0.3344
  RMM-DIIS:  cpu time    1.3826: real time    1.3827
    ORTHCH:  cpu time    0.0555: real time    0.0555
       DOS:  cpu time    0.0028: real time    0.0028
    CHARGE:  cpu time    0.1230: real time    0.1230
    MIXING:  cpu time    0.0005: real time    0.0005
    --------------------------------------------
      LOOP:  cpu time    1.9150: real time    1.9174

 eigenvalue-minimisations  :  5761
 total energy-change (2. order) : 0.5503302E-01  (-0.3986984E-01)
 number of electron      61.9999996 magnetization 
 augmentation part       -0.2822960 magnetization 

 Broyden mixing:
  rms(total) = 0.87873E-01    rms(broyden)= 0.87864E-01
  rms(prec ) = 0.14701E+00
  weight for this iteration     100.00

 eigenvalues of (default mixing * dielectric matrix)
  average eigenvalue GAMMA=   1.5297
  2.3826  1.1033  1.1033

 Free energy of the ion-electron system (eV)
  ---------------------------------------------------
  alpha Z        PSCENC =        83.78564611
  Ewald energy   TEWEN  =     -2225.94365591
  -Hartree energ DENC   =      -612.40899721
  -exchange      EXHF   =         0.00000000
  -V(xc)+E(xc)   XCENC  =        63.20692979
  PAW double counting   =     10259.30722424   -10127.77606878
  entropy T*S    EENTRO =        -0.00068740
  eigenvalues    EBANDS =        65.99390888
  atomic energy  EATOM  =      2411.37598431
  Solvation  Ediel_sol  =         0.00000000
  ---------------------------------------------------
  free energy    TOTEN  =       -82.45971597 eV

  energy without entropy =      -82.45902857  energy(sigma->0) =      -82.45954412


--------------------------------------------------------------------------------------------------------




--------------------------------------- Iteration      1(   9)  ---------------------------------------


    POTLOK:  cpu time    0.0140: real time    0.0164
    SETDIJ:  cpu time    0.0015: real time    0.0015
    EDDIAG:  cpu time    0.3290: real time    0.3291
  RMM-DIIS:  cpu time    1.3788: real time    1.3790
    ORTHCH:  cpu time    0.0561: real time    0.0561
       DOS:  cpu time    0.0027: real time    0.0027
    CHARGE:  cpu time    0.1239: real time    0.1239
    MIXING:  cpu time    0.0005: real time    0.0005
    --------------------------------------------
      LOOP:  cpu time    1.9066: real time    1.9091

 eigenvalue-minimisations  :  5869
 total energy-change (2. order) : 0.2132513E-01  (-0.9201230E-02)
 number of electron      61.9999996 magnetization 
 augmentation part       -0.3115716 magnetization 

 Broyden mixing:
  rms(total) = 0.29689E-01    rms(broyden)= 0.29666E-01
  rms(prec ) = 0.33728E-01
  weight for this iteration     100.00

 eigenvalues of (default mixing * dielectric matrix)
  average eigenvalue GAMMA=   1.7765
  1.0607  1.0607  2.4924  2.4924

 Free energy of the ion-electron system (eV)
  ---------------------------------------------------
  alpha Z        PSCENC =        83.78564611
  Ewald energy   TEWEN  =     -2225.94365591
  -Hartree energ DENC   =      -617.11934739
  -exchange      EXHF   =         0.00000000
  -V(xc)+E(xc)   XCENC  =        63.55480503
  PAW double counting   =     10545.92726489   -10414.46660006
  entropy T*S    EENTRO =        -0.00113150
  eigenvalues    EBANDS =        70.44864369
  atomic energy  EATOM  =      2411.37598431
  Solvation  Ediel_sol  =         0.00000000
  ---------------------------------------------------
  free energy    TOTEN  =       -82.43839084 eV

  energy without entropy =      -82.43725933  energy(sigma->0) =      -82.43810796


--------------------------------------------------------------------------------------------------------




--------------------------------------- Iteration      1(  10)  ---------------------------------------


    POTLOK:  cpu time    0.0144: real time    0.0177
    SETDIJ:  cpu time    0.0016: real time    0.0016
    EDDIAG:  cpu time    0.3339: real time    0.3339
  RMM-DIIS:  cpu time    1.4871: real time    1.4872
    ORTHCH:  cpu time    0.0555: real time    0.0556
       DOS:  cpu time    0.0028: real time    0.0028
    CHARGE:  cpu time    0.1234: real time    0.1234
    MIXING:  cpu time    0.0005: real time    0.0005
    --------------------------------------------
      LOOP:  cpu time    2.0192: real time    2.0226

 eigenvalue-minimisations  :  6294
 total energy-change (2. order) :-0.3501183E-03  (-0.4731814E-03)
 number of electron      61.9999996 magnetization 
 augmentation part       -0.3141629 magnetization 

 Broyden mixing:
  rms(total) = 0.14849E-01    rms(broyden)= 0.14845E-01
  rms(prec ) = 0.18779E-01
  weight for this iteration     100.00

 eigenvalues of (default mixing * dielectric matrix)
  average eigenvalue GAMMA=   1.6851
  2.8449  2.5071  1.0524  1.0524  0.9686

 Free energy of the ion-electron system (eV)
  ---------------------------------------------------
  alpha Z        PSCENC =        83.78564611
  Ewald energy   TEWEN  =     -2225.94365591
  -Hartree energ DENC   =      -616.95474939
  -exchange      EXHF   =         0.00000000
  -V(xc)+E(xc)   XCENC  =        63.55684842
  PAW double counting   =     10419.89825089   -10288.43402480
  entropy T*S    EENTRO =        -0.00120386
  eigenvalues    EBANDS =        70.27816327
  atomic energy  EATOM  =      2411.37598431
  Solvation  Ediel_sol  =         0.00000000
  ---------------------------------------------------
  free energy    TOTEN  =       -82.43874096 eV

  energy without entropy =      -82.43753710  energy(sigma->0) =      -82.43843999


--------------------------------------------------------------------------------------------------------




--------------------------------------- Iteration      1(  11)  ---------------------------------------


    POTLOK:  cpu time    0.0143: real time    0.0167
    SETDIJ:  cpu time    0.0015: real time    0.0015
    EDDIAG:  cpu time    0.3285: real time    0.3285
  RMM-DIIS:  cpu time    0.9992: real time    0.9993
    ORTHCH:  cpu time    0.0556: real time    0.0556
       DOS:  cpu time    0.0028: real time    0.0028
    CHARGE:  cpu time    0.1226: real time    0.1226
    MIXING:  cpu time    0.0005: real time    0.0005
    --------------------------------------------
      LOOP:  cpu time    1.5250: real time    1.5276

 eigenvalue-minimisations  :  3940
 total energy-change (2. order) : 0.1050459E-03  (-0.3659037E-04)
 number of electron      61.9999996 magnetization 
 augmentation part       -0.3134078 magnetization 

 Broyden mixing:
  rms(total) = 0.37470E-02    rms(broyden)= 0.37469E-02
  rms(prec ) = 0.51678E-02
  weight for this iteration     100.00

 eigenvalues of (default mixing * dielectric matrix)
  average eigenvalue GAMMA=   1.5430
  2.7385  2.4743  1.0538  1.0538  0.9200  1.0175

 Free energy of the ion-electron system (eV)
  ---------------------------------------------------
  alpha Z        PSCENC =        83.78564611
  Ewald energy   TEWEN  =     -2225.94365591
  -Hartree energ DENC   =      -616.71322762
  -exchange      EXHF   =         0.00000000
  -V(xc)+E(xc)   XCENC  =        63.55676127
  PAW double counting   =     10383.58634862   -10252.12940288
  entropy T*S    EENTRO =        -0.00114941
  eigenvalues    EBANDS =        70.04405961
  atomic energy  EATOM  =      2411.37598431
  Solvation  Ediel_sol  =         0.00000000
  ---------------------------------------------------
  free energy    TOTEN  =       -82.43863591 eV

  energy without entropy =      -82.43748650  energy(sigma->0) =      -82.43834856


--------------------------------------------------------------------------------------------------------




--------------------------------------- Iteration      1(  12)  ---------------------------------------


    POTLOK:  cpu time    0.0142: real time    0.0171
    SETDIJ:  cpu time    0.0016: real time    0.0016
    EDDIAG:  cpu time    0.3324: real time    0.3325
  RMM-DIIS:  cpu time    0.9396: real time    0.9397
    ORTHCH:  cpu time    0.0564: real time    0.0564
       DOS:  cpu time    0.0029: real time    0.0029
    --------------------------------------------
      LOOP:  cpu time    1.3470: real time    1.3502

 eigenvalue-minimisations  :  3492
 total energy-change (2. order) : 0.1149446E-04  (-0.1106346E-04)
 number of electron      61.9999996 magnetization 
 augmentation part       -0.3134078 magnetization 

 Free energy of the ion-electron system (eV)
  ---------------------------------------------------
  alpha Z        PSCENC =        83.78564611
  Ewald energy   TEWEN  =     -2225.94365591
  -Hartree energ DENC   =      -616.63884126
  -exchange      EXHF   =         0.00000000
  -V(xc)+E(xc)   XCENC  =        63.55218869
  PAW double counting   =     10394.56404646   -10263.10861843
  entropy T*S    EENTRO =        -0.00112774
  eigenvalues    EBANDS =        69.97575335
  atomic energy  EATOM  =      2411.37598431
  Solvation  Ediel_sol  =         0.00000000
  ---------------------------------------------------
  free energy    TOTEN  =       -82.43862442 eV

  energy without entropy =      -82.43749667  energy(sigma->0) =      -82.43834248


--------------------------------------------------------------------------------------------------------




 average (electrostatic) potential at core
  the test charge radii are     0.7089  0.9892
  (the norm of the test charge is              1.0000)
       1 -60.6498       2 -60.6498       3 -60.6498       4 -60.6498       5 -60.6498
       6 -60.6498       7 -80.0418       8 -80.0418       9 -80.4523      10 -80.4523
      11 -80.4523      12 -80.4523      13 -80.4523      14 -80.4523
 
 
 
 E-fermi :  11.3513     XC(G=0): -11.5315     alpha+bet :-16.7706


 k-point     1 :       0.0000    0.0000    0.0000
  band No.  band energies     occupation 
      1     -10.9868      2.00000
      2      -9.8421      2.00000
      3      -9.8421      2.00000
      4      -9.4302      2.00000
      5      -9.2041      2.00000
      6      -9.2041      2.00000
      7      -1.9451      2.00000
      8      -0.7574      2.00000
      9      -0.7574      2.00000
     10      -0.5612      2.00000
     11       0.1791      2.00000
     12       0.1791      2.00000
     13       0.4478      2.00000
     14       2.1183      2.00000
     15       2.1183      2.00000
     16       2.7647      2.00000
     17       3.1374      2.00000
     18       3.1374      2.00000
     19       3.3468      2.00000
     20       3.3468      2.00000
     21       3.6852      2.00000
     22       3.7169      2.00000
     23       3.7281      2.00000
     24       3.7281      2.00000
     25       7.1499      2.00000
     26       8.0813      2.00000
     27      10.0096      2.00000
     28      10.4959      2.00000
     29      10.4959      2.00000
     30      10.5379      2.00000
     31      10.5379      2.00000
     32      12.1469      0.00000
     33      12.5317      0.00000
     34      12.5320      0.00000
     35      13.0327      0.00000
     36      13.4807      0.00000
     37      13.4807      0.00000
     38      15.0065      0.00000
     39      15.0136      0.00000
     40      15.7059      0.00000

 k-point     2 :       0.1429    0.0000    0.0000
  band No.  band energies     occupation 
      1     -10.9490      2.00000
      2      -9.9179      2.00000
      3      -9.8639      2.00000
      4      -9.5602      2.00000
      5      -9.1733      2.00000
      6      -9.0291      2.00000
      7      -1.8799      2.00000
      8      -1.1034      2.00000
      9      -0.8626      2.00000
     10      -0.3332      2.00000
     11       0.1980      2.00000
     12       0.3408      2.00000
     13       0.4450      2.00000
     14       2.0845      2.00000
     15       2.1669      2.00000
     16       2.7873      2.00000
     17       3.0177      2.00000
     18       3.1991      2.00000
     19       3.3142      2.00000
     20       3.3381      2.00000
     21       3.6176      2.00000
     22       3.6293      2.00000
     23       3.7396      2.00000
     24       3.8383      2.00000
     25       7.3687      2.00000
     26       8.1767      2.00000
     27       9.9203      2.00000
     28      10.1604      2.00000
     29      10.2543      2.00000
     30      10.5815      2.00000
     31      10.7884      2.00000
     32      12.3028      0.00000
     33      12.4215      0.00000
     34      12.4616      0.00000
     35      13.1756      0.00000
     36      13.5087      0.00000
     37      13.6337      0.00000
     38      14.9280      0.00000
     39      15.0369      0.00000
     40      15.4177      0.00000

 k-point     3 :       0.2857    0.0000    0.0000
  band No.  band energies     occupation 
      1     -10.8384      2.00000
      2     -10.1406      2.00000
      3      -9.9070      2.00000
      4      -9.6384      2.00000
      5      -9.1096      2.00000
      6      -8.8227      2.00000
      7      -1.7093      2.00000
      8      -1.4298      2.00000
      9      -1.0519      2.00000
     10      -0.3974      2.00000
     11       0.1333      2.00000
     12       0.6241      2.00000
     13       0.7499      2.00000
     14       2.0024      2.00000
     15       2.1935      2.00000
     16       2.8534      2.00000
     17       2.8947      2.00000
     18       3.2168      2.00000
     19       3.2525      2.00000
     20       3.3201      2.00000
     21       3.4950      2.00000
     22       3.5579      2.00000
     23       3.7625      2.00000
     24       3.9304      2.00000
     25       7.9031      2.00000
     26       8.4680      2.00000
     27       9.6448      2.00000
     28       9.7362      2.00000
     29      10.0491      2.00000
     30      10.3104      2.00000
     31      11.0814      1.99789
     32      12.1360      0.00000
     33      12.2676      0.00000
     34      12.8589      0.00000
     35      13.3880      0.00000
     36      13.5783      0.00000
     37      13.8949      0.00000
     38      14.7363      0.00000
     39      14.8404      0.00000
     40      15.3581      0.00000

 k-point     4 :       0.4286    0.0000    0.0000
  band No.  band energies     occupation 
      1     -10.6693      2.00000
      2     -10.3945      2.00000
      3      -9.9373      2.00000
      4      -9.6588      2.00000
      5      -9.0625      2.00000
      6      -8.7047      2.00000
      7      -1.6795      2.00000
      8      -1.3972      2.00000
      9      -1.2054      2.00000
     10      -0.6542      2.00000
     11       0.1425      2.00000
     12       0.7630      2.00000
     13       1.1896      2.00000
     14       1.6491      2.00000
     15       2.4485      2.00000
     16       2.8135      2.00000
     17       2.9556      2.00000
     18       3.0767      2.00000
     19       3.0862      2.00000
     20       3.3066      2.00000
     21       3.5085      2.00000
     22       3.5369      2.00000
     23       3.7793      2.00000
     24       3.9778      2.00000
     25       8.5422      2.00000
     26       8.9078      2.00000
     27       9.1767      2.00000
     28       9.3676      2.00000
     29       9.9282      2.00000
     30       9.9669      2.00000
     31      11.3691      0.63419
     32      12.0133      0.00000
     33      12.0502      0.00000
     34      13.3075      0.00000
     35      13.5044      0.00000
     36      13.6450      0.00000
     37      14.0431      0.00000
     38      14.3709      0.00000
     39      14.7382      0.00000
     40      15.3585      0.00000

 k-point     5 :       0.1429    0.1429    0.0000
  band No.  band energies     occupation 
      1     -10.8745      2.00000
      2     -10.0034      2.00000
      3      -9.9962      2.00000
      4      -9.5809      2.00000
      5      -9.1482      2.00000
      6      -8.8630      2.00000
      7      -1.7571      2.00000
      8      -1.3827      2.00000
      9      -0.9647      2.00000
     10      -0.3489      2.00000
     11       0.1118      2.00000
     12       0.5272      2.00000
     13       0.6950      2.00000
     14       1.9951      2.00000
     15       2.2713      2.00000
     16       2.8325      2.00000
     17       2.8454      2.00000
     18       3.2695      2.00000
     19       3.2814      2.00000
     20       3.2987      2.00000
     21       3.5306      2.00000
     22       3.5827      2.00000
     23       3.7493      2.00000
     24       3.9126      2.00000
     25       7.7420      2.00000
     26       8.3718      2.00000
     27       9.7425      2.00000
     28       9.8303      2.00000
     29      10.1326      2.00000
     30      10.3975      2.00000
     31      10.9799      1.99999
     32      12.2179      0.00000
     33      12.2894      0.00000
     34      12.7300      0.00000
     35      13.3394      0.00000
     36      13.5174      0.00000
     37      13.8850      0.00000
     38      14.7791      0.00000
     39      15.0418      0.00000
     40      15.3016      0.00000

 k-point     6 :       0.2857    0.1429    0.0000
  band No.  band energies     occupation 
      1     -10.7321      2.00000
      2     -10.2527      2.00000
      3     -10.0631      2.00000
      4      -9.5444      2.00000
      5      -9.1274      2.00000
      6      -8.7141      2.00000
      7      -1.6492      2.00000
      8      -1.5104      2.00000
      9      -1.1203      2.00000
     10      -0.4406      2.00000
     11      -0.0674      2.00000
     12       0.6638      2.00000
     13       1.2072      2.00000
     14       1.7923      2.00000
     15       2.4226      2.00000
     16       2.7310      2.00000
     17       2.9163      2.00000
     18       3.1070      2.00000
     19       3.1640      2.00000
     20       3.2557      2.00000
     21       3.5435      2.00000
     22       3.5791      2.00000
     23       3.7545      2.00000
     24       3.9730      2.00000
     25       8.3154      2.00000
     26       8.7481      2.00000
     27       9.3718      2.00000
     28       9.5545      2.00000
     29       9.9167      2.00000
     30      10.0700      2.00000
     31      11.2254      2.06428
     32      12.0361      0.00000
     33      12.1342      0.00000
     34      13.1860      0.00000
     35      13.5075      0.00000
     36      13.5433      0.00000
     37      14.1142      0.00000
     38      14.5082      0.00000
     39      14.7476      0.00000
     40      15.3567      0.00000

 k-point     7 :       0.4286    0.1429    0.0000
  band No.  band energies     occupation 
      1     -10.5790      2.00000
      2     -10.4504      2.00000
      3     -10.0855      2.00000
      4      -9.5279      2.00000
      5      -9.1177      2.00000
      6      -8.6584      2.00000
      7      -1.7235      2.00000
      8      -1.3637      2.00000
      9      -1.1935      2.00000
     10      -0.6276      2.00000
     11      -0.0175      2.00000
     12       0.6985      2.00000
     13       1.4238      2.00000
     14       1.7298      2.00000
     15       2.5421      2.00000
     16       2.6452      2.00000
     17       2.9344      2.00000
     18       3.0205      2.00000
     19       3.0450      2.00000
     20       3.2442      2.00000
     21       3.5828      2.00000
     22       3.5835      2.00000
     23       3.7575      2.00000
     24       3.9959      2.00000
     25       8.8797      2.00000
     26       8.9312      2.00000
     27       9.1309      2.00000
     28       9.2848      2.00000
     29       9.7635      2.00000
     30       9.8786      2.00000
     31      11.4294     -0.07640
     32      11.8630      0.00000
     33      12.0803      0.00000
     34      13.4599      0.00000
     35      13.5370      0.00000
     36      13.6226      0.00000
     37      14.0307      0.00000
     38      14.4107      0.00000
     39      14.7976      0.00000
     40      15.2660      0.00000

 k-point     8 :      -0.4286    0.1429    0.0000
  band No.  band energies     occupation 
      1     -10.7321      2.00000
      2     -10.2527      2.00000
      3     -10.0632      2.00000
      4      -9.5444      2.00000
      5      -9.1273      2.00000
      6      -8.7141      2.00000
      7      -1.6374      2.00000
      8      -1.5398      2.00000
      9      -1.0628      2.00000
     10      -0.5588      2.00000
     11       0.0443      2.00000
     12       0.7053      2.00000
     13       1.0359      2.00000
     14       2.0557      2.00000
     15       2.2178      2.00000
     16       2.7483      2.00000
     17       2.9164      2.00000
     18       3.1302      2.00000
     19       3.1633      2.00000
     20       3.2565      2.00000
     21       3.5403      2.00000
     22       3.5793      2.00000
     23       3.7543      2.00000
     24       3.9728      2.00000
     25       8.3091      2.00000
     26       8.7514      2.00000
     27       9.3982      2.00000
     28       9.5458      2.00000
     29       9.9001      2.00000
     30      10.0607      2.00000
     31      11.2508      2.10184
     32      12.0557      0.00000
     33      12.0938      0.00000
     34      13.1610      0.00000
     35      13.5088      0.00000
     36      13.6010      0.00000
     37      14.0462      0.00000
     38      14.5285      0.00000
     39      14.9192      0.00000
     40      15.0794      0.00000

 k-point     9 :       0.2857    0.2857    0.0000
  band No.  band energies     occupation 
      1     -10.5671      2.00000
      2     -10.3602      2.00000
      3     -10.2518      2.00000
      4      -9.3897      2.00000
      5      -9.2151      2.00000
      6      -8.6315      2.00000
      7      -1.7531      2.00000
      8      -1.3639      2.00000
      9      -1.1736      2.00000
     10      -0.4610      2.00000
     11      -0.2265      2.00000
     12       0.5752      2.00000
     13       1.6071      2.00000
     14       1.9480      2.00000
     15       2.3728      2.00000
     16       2.6223      2.00000
     17       2.8382      2.00000
     18       3.0136      2.00000
     19       3.1337      2.00000
     20       3.1362      2.00000
     21       3.6337      2.00000
     22       3.6406      2.00000
     23       3.7167      2.00000
     24       4.0056      2.00000
     25       8.8006      2.00000
     26       9.0850      2.00000
     27       9.2080      2.00000
     28       9.4139      2.00000
     29       9.6268      2.00000
     30       9.7416      2.00000
     31      11.4442     -0.10262
     32      11.7675      0.00000
     33      12.1104      0.00000
     34      13.4779      0.00000
     35      13.5305      0.00000
     36      13.6669      0.00000
     37      14.0975      0.00000
     38      14.3485      0.00000
     39      14.9155      0.00000
     40      15.1735      0.00000

 k-point    10 :       0.0000    0.0000    0.0667
  band No.  band energies     occupation 
      1     -10.9377      2.00000
      2      -9.7986      2.00000
      3      -9.7986      2.00000
      4      -9.3988      2.00000
      5      -9.1677      2.00000
      6      -9.1677      2.00000
      7      -1.8915      2.00000
      8      -0.7264      2.00000
      9      -0.7264      2.00000
     10      -0.5117      2.00000
     11       0.2030      2.00000
     12       0.2030      2.00000
     13       0.4627      2.00000
     14       2.1468      2.00000
     15       2.1468      2.00000
     16       2.5057      2.00000
     17       3.1133      2.00000
     18       3.1133      2.00000
     19       3.1304      2.00000
     20       3.1304      2.00000
     21       3.3645      2.00000
     22       3.5402      2.00000
     23       3.5402      2.00000
     24       3.7144      2.00000
     25       7.3613      2.00000
     26       8.1347      2.00000
     27      10.1482      2.00000
     28      10.5009      2.00000
     29      10.5009      2.00000
     30      10.6575      2.00000
     31      10.6575      2.00000
     32      12.0146      0.00000
     33      12.7457      0.00000
     34      12.7460      0.00000
     35      12.9688      0.00000
     36      13.5409      0.00000
     37      13.5409      0.00000
     38      14.8151      0.00000
     39      14.8215      0.00000
[...]
     39      13.2763      0.00000
     40      13.4279      0.00000

 k-point    66 :       0.2857    0.0000    0.4667
  band No.  band energies     occupation 
      1      -7.8657      2.00000
      2      -7.6473      2.00000
      3      -7.3674      2.00000
      4      -7.3357      2.00000
      5      -7.1893      2.00000
      6      -7.1813      2.00000
      7      -1.4308      2.00000
      8      -1.2338      2.00000
      9      -0.8821      2.00000
     10      -0.6311      2.00000
     11      -0.3751      2.00000
     12      -0.0687      2.00000
     13       0.9395      2.00000
     14       1.4016      2.00000
     15       1.4925      2.00000
     16       1.7353      2.00000
     17       1.8246      2.00000
     18       2.1338      2.00000
     19       2.4245      2.00000
     20       2.7467      2.00000
     21       4.2544      2.00000
     22       4.3919      2.00000
     23       4.4813      2.00000
     24       4.6277      2.00000
     25       5.6706      2.00000
     26       5.9249      2.00000
     27       6.2478      2.00000
     28       6.5213      2.00000
     29       6.6950      2.00000
     30       7.0429      2.00000
     31       8.4986      2.00000
     32       8.9201      2.00000
     33      10.4966      0.00000
     34      10.8231      0.00000
     35      11.6140      0.00000
     36      12.1372      0.00000
     37      12.2428      0.00000
     38      12.7966      0.00000
     39      13.1694      0.00000
     40      13.4230      0.00000

 k-point    67 :       0.4286    0.0000    0.4667
  band No.  band energies     occupation 
      1      -7.8101      2.00000
      2      -7.6956      2.00000
      3      -7.3853      2.00000
      4      -7.3445      2.00000
      5      -7.1824      2.00000
      6      -7.1748      2.00000
      7      -1.5152      2.00000
      8      -1.3500      2.00000
      9      -0.7027      2.00000
     10      -0.5751      2.00000
     11      -0.1899      2.00000
     12       0.0828      2.00000
     13       0.7920      2.00000
     14       1.2904      2.00000
     15       1.4591      2.00000
     16       1.5696      2.00000
     17       1.7974      2.00000
     18       1.9839      2.00000
     19       2.5301      2.00000
     20       2.8402      2.00000
     21       4.1844      2.00000
     22       4.3759      2.00000
     23       4.4344      2.00000
     24       4.6730      2.00000
     25       5.7328      2.00000
     26       5.8964      2.00000
     27       6.1022      2.00000
     28       6.4461      2.00000
     29       6.8640      2.00000
     30       7.2144      2.00000
     31       8.8142      2.00000
     32       9.0355      2.00000
     33      10.5472      0.00000
     34      10.7380      0.00000
     35      11.3342      0.00000
     36      11.8063      0.00000
     37      12.3472      0.00000
     38      12.8757      0.00000
     39      13.1220      0.00000
     40      13.3499      0.00000

 k-point    68 :       0.1429    0.1429    0.4667
  band No.  band energies     occupation 
      1      -7.8794      2.00000
      2      -7.6362      2.00000
      3      -7.3696      2.00000
      4      -7.3210      2.00000
      5      -7.1989      2.00000
      6      -7.1792      2.00000
      7      -1.3907      2.00000
      8      -1.1953      2.00000
      9      -0.9181      2.00000
     10      -0.6494      2.00000
     11      -0.4581      2.00000
     12      -0.1417      2.00000
     13       1.0131      2.00000
     14       1.3818      2.00000
     15       1.5685      2.00000
     16       1.8061      2.00000
     17       1.8470      2.00000
     18       2.1376      2.00000
     19       2.4095      2.00000
     20       2.6880      2.00000
     21       4.3161      2.00000
     22       4.3466      2.00000
     23       4.5212      2.00000
     24       4.5973      2.00000
     25       5.6656      2.00000
     26       5.9365      2.00000
     27       6.3383      2.00000
     28       6.4116      2.00000
     29       6.7523      2.00000
     30       6.9823      2.00000
     31       8.3755      2.00000
     32       8.8760      2.00000
     33      10.4830      0.00000
     34      10.8408      0.00000
     35      11.7157      0.00000
     36      12.1771      0.00000
     37      12.2555      0.00000
     38      12.7614      0.00000
     39      13.2033      0.00000
     40      13.4604      0.00000

 k-point    69 :       0.2857    0.1429    0.4667
  band No.  band energies     occupation 
      1      -7.8277      2.00000
      2      -7.6763      2.00000
      3      -7.4064      2.00000
      4      -7.3130      2.00000
      5      -7.2022      2.00000
      6      -7.1656      2.00000
      7      -1.4876      2.00000
      8      -1.3466      2.00000
      9      -0.7454      2.00000
     10      -0.5367      2.00000
     11      -0.2686      2.00000
     12       0.0358      2.00000
     13       0.8123      2.00000
     14       1.3317      2.00000
     15       1.4859      2.00000
     16       1.6248      2.00000
     17       1.8021      2.00000
     18       2.0049      2.00000
     19       2.5236      2.00000
     20       2.7806      2.00000
     21       4.2311      2.00000
     22       4.3456      2.00000
     23       4.4520      2.00000
     24       4.6623      2.00000
     25       5.7181      2.00000
     26       5.9001      2.00000
     27       6.1298      2.00000
     28       6.3637      2.00000
     29       6.9595      2.00000
     30       7.2164      2.00000
     31       8.7197      2.00000
     32       8.9300      2.00000
     33      10.5342      0.00000
     34      10.7617      0.00000
     35      11.4107      0.00000
     36      11.8628      0.00000
     37      12.3722      0.00000
     38      12.8947      0.00000
     39      13.1674      0.00000
     40      13.3456      0.00000

 k-point    70 :       0.4286    0.1429    0.4667
  band No.  band energies     occupation 
      1      -7.7866      2.00000
      2      -7.7133      2.00000
      3      -7.4209      2.00000
      4      -7.3088      2.00000
      5      -7.2044      2.00000
      6      -7.1611      2.00000
      7      -1.5206      2.00000
      8      -1.4020      2.00000
      9      -0.6092      2.00000
     10      -0.5212      2.00000
     11      -0.2118      2.00000
     12       0.0689      2.00000
     13       0.7862      2.00000
     14       1.2583      2.00000
     15       1.4804      2.00000
     16       1.5769      2.00000
     17       1.7834      2.00000
     18       1.9143      2.00000
     19       2.5626      2.00000
     20       2.8059      2.00000
     21       4.2031      2.00000
     22       4.3514      2.00000
     23       4.3967      2.00000
     24       4.6891      2.00000
     25       5.7547      2.00000
     26       5.8656      2.00000
     27       6.1006      2.00000
     28       6.3183      2.00000
     29       7.0164      2.00000
     30       7.3728      2.00000
     31       8.8287      2.00000
     32       8.9689      2.00000
     33      10.5728      0.00000
     34      10.7015      0.00000
     35      11.2751      0.00000
     36      11.6911      0.00000
     37      12.4590      0.00000
     38      12.8989      0.00000
     39      13.1431      0.00000
     40      13.2960      0.00000

 k-point    71 :      -0.4286    0.1429    0.4667
  band No.  band energies     occupation 
      1      -7.8278      2.00000
      2      -7.6763      2.00000
      3      -7.4065      2.00000
      4      -7.3130      2.00000
      5      -7.2021      2.00000
      6      -7.1657      2.00000
      7      -1.4892      2.00000
      8      -1.3432      2.00000
      9      -0.7578      2.00000
     10      -0.5189      2.00000
     11      -0.2752      2.00000
     12       0.0346      2.00000
     13       0.8146      2.00000
     14       1.3292      2.00000
     15       1.4639      2.00000
     16       1.6624      2.00000
     17       1.8033      2.00000
     18       1.9847      2.00000
     19       2.5309      2.00000
     20       2.7762      2.00000
     21       4.2405      2.00000
     22       4.3269      2.00000
     23       4.4615      2.00000
     24       4.6684      2.00000
     25       5.6791      2.00000
     26       5.9032      2.00000
     27       6.1925      2.00000
     28       6.3559      2.00000
     29       6.8921      2.00000
     30       7.2652      2.00000
     31       8.7023      2.00000
     32       8.9398      2.00000
     33      10.5344      0.00000
     34      10.7651      0.00000
     35      11.4130      0.00000
     36      11.8879      0.00000
     37      12.3531      0.00000
     38      12.8192      0.00000
     39      13.2114      0.00000
     40      13.3568      0.00000

 k-point    72 :       0.2857    0.2857    0.4667
  band No.  band energies     occupation 
      1      -7.7765      2.00000
      2      -7.7177      2.00000
      3      -7.4428      2.00000
      4      -7.2748      2.00000
      5      -7.2287      2.00000
      6      -7.1554      2.00000
      7      -1.5047      2.00000
      8      -1.4463      2.00000
      9      -0.5665      2.00000
     10      -0.3871      2.00000
     11      -0.3255      2.00000
     12       0.0312      2.00000
     13       0.7943      2.00000
     14       1.2511      2.00000
     15       1.5408      2.00000
     16       1.5896      2.00000
     17       1.7779      2.00000
     18       1.8480      2.00000
     19       2.6161      2.00000
     20       2.7293      2.00000
     21       4.2733      2.00000
     22       4.2892      2.00000
     23       4.3711      2.00000
     24       4.7000      2.00000
     25       5.7540      2.00000
     26       5.8471      2.00000
     27       6.1348      2.00000
     28       6.2183      2.00000
     29       7.1273      2.00000
     30       7.5172      2.00000
     31       8.8084      2.00000
     32       8.8396      2.00000
     33      10.5942      0.00000
     34      10.6838      0.00000
     35      11.2573      0.00000
     36      11.6327      0.00000
     37      12.6204      0.00000
     38      12.9453      0.00000
     39      13.0814      0.00000
     40      13.2101      0.00000


--------------------------------------------------------------------------------------------------------


 soft charge-density along one line, spin component           1
         0         1         2         3         4         5         6         7         8         9
 total charge-density along one line
 
 pseudopotential strength for first ion, spin component:           1
 12.316  14.759   0.001  -0.000  -0.001   0.005  -0.000  -0.002
 14.759  17.687   0.002  -0.000  -0.001   0.006  -0.000  -0.002
  0.001   0.002  -5.719   0.000   0.001  -7.586   0.000   0.002
 -0.000  -0.000   0.000  -5.728  -0.000   0.000  -7.599  -0.000
 -0.001  -0.001   0.001  -0.000  -5.743   0.002  -0.000  -7.624
  0.005   0.006  -7.586   0.000   0.002  -9.337   0.000   0.002
 -0.000  -0.000   0.000  -7.599  -0.000   0.000  -9.358  -0.000
 -0.002  -0.002   0.002  -0.000  -7.624   0.002  -0.000  -9.396
 total augmentation occupancy for first ion, spin component:           1
  7.423  -3.470  -0.258   0.000   0.097   0.118   0.000  -0.038
 -3.470   1.814   0.247   0.000  -0.078  -0.099   0.000   0.028
 -0.258   0.247   1.893   0.000  -0.038  -0.251   0.000   0.011
 -0.000   0.000  -0.000   2.250   0.000   0.000  -0.369  -0.000
  0.097  -0.078  -0.038  -0.000   2.248   0.011   0.000  -0.393
  0.118  -0.099  -0.251   0.000   0.011   0.049  -0.000  -0.004
  0.000   0.000   0.000  -0.369  -0.000  -0.000   0.071  -0.000
 -0.038   0.028   0.011   0.000  -0.393  -0.004  -0.000   0.084


------------------------ aborting loop because EDIFF is reached ----------------------------------------


    CHARGE:  cpu time    0.1152: real time    0.1152
    FORLOC:  cpu time    0.0015: real time    0.0015
    FORNL :  cpu time    0.8209: real time    0.8209
    STRESS:  cpu time    2.4564: real time    2.4564
    FORCOR:  cpu time    0.0150: real time    0.0150
    FORHAR:  cpu time    0.0046: real time    0.0046
    MIXING:  cpu time    0.0003: real time    0.0003
    OFIELD:  cpu time    0.0000: real time    0.0000

  FORCE on cell =-STRESS in cart. coord.  units (eV):
  Direction    XX          YY          ZZ          XY          YZ          ZX
  --------------------------------------------------------------------------------------
  Alpha Z    79.28788    79.28788    79.28788
  Ewald    -855.81789  -855.81789  -534.47417    -0.00000    -0.00000     0.00000
  Hartree   130.56566   130.56566   342.37041    -0.00000     0.00000    -0.00000
  E(xc)    -238.03702  -238.03701  -238.05932    -0.00000     0.00000    -0.00000
  Local    -137.02590  -137.02554  -671.71896     0.00000    -0.00000     0.00000
  n-local   206.81978   206.76720   210.41735    -0.54762     0.20584    -0.49843
  augment   -37.06365   -37.06398   -36.88665     0.00164     0.00000     0.00000
  Kinetic   849.63727   853.19791   849.13873    -0.32070     0.21949     0.43383
  Fock        0.00000     0.00000     0.00000     0.00000     0.00000     0.00000
  -------------------------------------------------------------------------------------
  Total       0.12017     0.12017     0.07527    -0.00000     0.00000     0.00000
  in kB       1.25225     1.25225     0.78441    -0.00000     0.00000     0.00000
  external pressure =        1.10 kB  Pullay stress =        0.00 kB


 VOLUME and BASIS-vectors are now :
 -----------------------------------------------------------------------------
  energy-cutoff  :      400.00
  volume of cell :      153.75
      direct lattice vectors                 reciprocal lattice vectors
     3.981027834 -6.895342463 -0.000000000     0.125595706 -0.072512714 -0.000000000
     3.981027824  6.895342469  0.000000000     0.125595706  0.072512715  0.000000000
    -0.000000000 -0.000000000  2.800494485    -0.000000000 -0.000000000  0.357079796

  length of vectors
     7.962055658  7.962055658  2.800494485     0.145025429  0.145025429  0.357079796


 FORCES acting on ions
    electron-ion (+dipol)            ewald-force                    non-local-force                 convergence-correction
 -----------------------------------------------------------------------------------------------
   0.111E+02 -.772E+02 -.250E-07   -.126E+02 0.839E+02 -.245E-14   0.148E+01 -.673E+01 0.000E+00   -.116E-01 0.261E-02 0.234E-13
   0.724E+02 -.290E+02 0.631E-07   -.790E+02 0.310E+02 -.253E-14   0.656E+01 -.209E+01 0.000E+00   -.806E-02 -.875E-02 -.669E-12
   -.613E+02 -.482E+02 -.490E-08   0.664E+02 0.529E+02 0.805E-15   -.509E+01 -.464E+01 -.163E-18   -.355E-02 0.114E-01 -.560E-11
   0.613E+02 0.482E+02 0.491E-08   -.664E+02 -.529E+02 0.817E-15   0.509E+01 0.464E+01 0.163E-18   0.355E-02 -.114E-01 -.334E-12
   -.724E+02 0.290E+02 -.631E-07   0.790E+02 -.310E+02 -.238E-14   -.656E+01 0.209E+01 0.000E+00   0.806E-02 0.875E-02 0.560E-12
   -.111E+02 0.772E+02 0.250E-07   0.126E+02 -.839E+02 -.322E-15   -.148E+01 0.673E+01 0.000E+00   0.116E-01 -.261E-02 0.395E-11
   0.103E-05 -.508E-07 -.272E-07   -.497E-13 0.905E-11 0.401E-15   -.139E-16 0.236E-20 0.139E-16   0.959E-07 -.327E-07 -.698E-14
   -.103E-05 0.508E-07 0.272E-07   0.746E-13 -.894E-11 0.331E-15   -.208E-16 0.139E-16 -.139E-16   -.959E-07 0.327E-07 -.699E-13
   -.234E+01 0.107E+02 -.527E-07   0.431E+00 -.136E+02 0.142E-15   0.191E+01 0.298E+01 -.694E-17   0.243E-02 -.159E-02 0.471E-12
   -.104E+02 0.330E+01 0.218E-06   0.120E+02 -.644E+01 0.298E-14   -.163E+01 0.315E+01 0.239E-17   0.260E-02 0.131E-02 0.161E-15
   0.807E+01 0.736E+01 0.163E-06   -.116E+02 -.719E+01 0.264E-14   0.354E+01 -.166E+00 0.000E+00   -.163E-03 -.290E-02 -.246E-12
   -.807E+01 -.736E+01 -.163E-06   0.116E+02 0.719E+01 0.186E-14   -.354E+01 0.166E+00 0.000E+00   0.163E-03 0.290E-02 0.700E-13
   0.234E+01 -.107E+02 0.527E-07   -.431E+00 0.136E+02 0.153E-15   -.191E+01 -.298E+01 0.694E-17   -.243E-02 0.159E-02 0.147E-12
   0.104E+02 -.330E+01 -.218E-06   -.120E+02 0.644E+01 0.235E-14   0.163E+01 -.315E+01 -.239E-17   -.260E-02 -.131E-02 -.334E-12
 -----------------------------------------------------------------------------------------------
   0.396E-11 -.420E-12 -.466E-11   -.711E-14 0.142E-13 0.480E-14   0.244E-14 -.133E-14 0.000E+00   -.124E-11 -.705E-13 -.204E-11
 
 
 POSITION                                       TOTAL-FORCE (eV/Angst)
 -----------------------------------------------------------------------------------
      4.09491      4.37460      2.10037        -0.025383     -0.003476     -0.000000
      2.23997     -1.16174      0.70012        -0.009681     -0.023720     -0.000000
      5.83597     -1.35900      0.70012        -0.015701      0.020244      0.000000
      2.12608      1.35900      2.10037         0.015701     -0.020244     -0.000000
      5.72208      1.16174      2.10037         0.009681      0.023720      0.000000
      3.86714     -4.37460      0.70012         0.025383      0.003476      0.000000
      3.98103      2.29845      2.10037         0.000000      0.000000     -0.000000
      3.98103     -2.29845      0.70012         0.000000      0.000000     -0.000000
      6.27430     -2.42112      2.10037         0.004337      0.013190      0.000000
      5.23390      4.22315      0.70012        -0.009254      0.010351      0.000000
      5.02143      0.25108      0.70012         0.013591      0.002839      0.000000
      2.94063     -0.25108      2.10037        -0.013591     -0.002839     -0.000000
      1.68775      2.42112      0.70012        -0.004337     -0.013190     -0.000000
      2.72815     -4.22315      2.10037         0.009254     -0.010351     -0.000000
 -----------------------------------------------------------------------------------
    total drift:                                0.000000     -0.000000     -0.000000


--------------------------------------------------------------------------------------------------------



  FREE ENERGIE OF THE ION-ELECTRON SYSTEM (eV)
  ---------------------------------------------------
  free  energy   TOTEN  =       -95.05018588 eV

  energy  without entropy=      -95.05148130  energy(sigma->0) =      -95.05050974
 
 d Force =-0.2820594E-05[-0.457E-05,-0.107E-05]  d Energy = 0.3005338E-04-0.329E-04
 d Force = 0.4232967E-01[ 0.423E-01, 0.424E-01]  d Ewald  =-0.2010377E+00 0.243E+00


--------------------------------------------------------------------------------------------------------


    POTLOK:  cpu time    0.0165: real time    0.0165


--------------------------------------------------------------------------------------------------------




--------------------------------------------------------------------------------------------------------


  
 reached required accuracy - stopping structural energy minimisation
     LOOP+:  cpu time    7.3439: real time    7.3545
    4ORBIT:  cpu time    0.0000: real time    0.0000

 total amount of memory used by VASP MPI-rank0    44985. kBytes
=======================================================================

   base      :      30000. kBytes
   nonlr-proj:       3075. kBytes
   fftplans  :       1358. kBytes
   grid      :       2154. kBytes
   one-center:         12. kBytes
   wavefun   :       8386. kBytes
 
  
  
 General timing and accounting informations for this job:
 ========================================================
  
                  Total CPU time used (sec):      321.007
                            User time (sec):      319.465
                          System time (sec):        1.542
                         Elapsed time (sec):      321.872
  
                   Maximum memory used (kb):      174612.
                   Average memory used (kb):           0.
  
                          Minor page faults:        72600
                          Major page faults:            9
                 Voluntary context switches:         3250
