<?xml version="1.0" encoding="ISO-8859-1"?>
<modeling>
 <generator>
  <i name="program" type="string">vasp </i>
  <i name="version" type="string">5.4.4.18Apr17-6-g9f103f2a35  </i>
  <i name="subversion" type="string">(build Nov 01 2019 12:17:22) complex            parallel </i>
  <i name="platform" type="string">LinuxIFC </i>
  <i name="date" type="string">2023 05 19 </i>
  <i name="time" type="string">11:21:21 </i>
 </generator>
 <incar>
  <i type="string" name="PREC">accurate</i>
  <i type="string" name="ALGO"> Fast</i>
  <i type="int" name="IBRION">     2</i>
  <i type="int" name="NSW">   100</i>
  <i type="int" name="ISIF">     3</i>
  <i type="string" name="LREAL"> Auto</i>
  <i type="int" name="ISMEAR">     2</i>
  <i name="SIGMA">      0.10000000</i>
  <i type="logical" name="LWAVE"> F  </i>
  <i type="logical" name="LCHARG"> F  </i>
  <v type="int" name="KPOINT_BSE">    -1     0     0     0</v>
 </incar>
 <structure name="primitive_cell" >
  <crystal>
   <varray name="basis" >
    <v>       3.80227222      -6.58572867       0.00000000 </v>
    <v>       3.80227222       6.58572867       0.00000000 </v>
    <v>       0.00000000       0.00000000       2.90519908 </v>
   </varray>
   <i name="volume">    145.49662976 </i>
   <varray name="rec_basis" >
    <v>       0.13150032      -0.07592174       0.00000000 </v>
    <v>       0.13150032       0.07592174       0.00000000 </v>
    <v>       0.00000000       0.00000000       0.34421049 </v>
   </varray>
  </crystal>
  <varray name="positions" >
   <v>       0.23108243      -0.17505385      -0.25000000 </v>
   <v>       0.33333333      -0.33333333      -0.25000000 </v>
   <v>      -0.03080551      -0.33014660      -0.25000000 </v>
   <v>       0.29934109      -0.03080551       0.25000000 </v>
   <v>       0.17505385       0.40613628      -0.25000000 </v>
   <v>      -0.40613628      -0.23108243      -0.25000000 </v>
   <v>       0.40613628       0.23108243       0.25000000 </v>
   <v>      -0.17505385      -0.40613628       0.25000000 </v>
   <v>      -0.29934109       0.03080551      -0.25000000 </v>
   <v>       0.33014660       0.29934109      -0.25000000 </v>
   <v>       0.03080551       0.33014660       0.25000000 </v>
   <v>      -0.23108243       0.17505385       0.25000000 </v>
   <v>      -0.33333333       0.33333333       0.25000000 </v>
   <v>      -0.33014660      -0.29934109       0.25000000 </v>
  </varray>
 </structure>
 <varray name="primitive_index" >
  <v type="int" >        1 </v>
  <v type="int" >        7 </v>
  <v type="int" >        9 </v>
  <v type="int" >       10 </v>
  <v type="int" >        4 </v>
  <v type="int" >        5 </v>
  <v type="int" >        2 </v>
  <v type="int" >        3 </v>
  <v type="int" >       14 </v>
  <v type="int" >       12 </v>
  <v type="int" >       13 </v>
  <v type="int" >        6 </v>
  <v type="int" >        8 </v>
  <v type="int" >       11 </v>
 </varray>
 <kpoints>
  <generation param="Auto">
   <i name="subdivisionlength">     45.00000000 </i>
   <v type="int" name="divisions">       7        7       15 </v>
   <v name="usershift">      0.00000000       0.00000000       0.00000000 </v>
   <v name="genvec1">      0.14285714       0.00000000       0.00000000 </v>
   <v name="genvec2">      0.00000000       0.14285714       0.00000000 </v>
   <v name="genvec3">      0.00000000       0.00000000       0.06666667 </v>
   <v name="shift">      0.00000000       0.00000000       0.00000000 </v>
  </generation>
  <varray name="kpointlist" >
   <v>       0.00000000       0.00000000       0.00000000 </v>
   <v>       0.14285714       0.00000000       0.00000000 </v>
   <v>       0.28571429       0.00000000       0.00000000 </v>
   <v>       0.42857143       0.00000000       0.00000000 </v>
   <v>       0.14285714       0.14285714       0.00000000 </v>
   <v>       0.28571429       0.14285714       0.00000000 </v>
   <v>       0.42857143       0.14285714       0.00000000 </v>
   <v>      -0.42857143       0.14285714       0.00000000 </v>
   <v>       0.28571429       0.28571429       0.00000000 </v>
   <v>       0.00000000       0.00000000       0.06666667 </v>
   <v>       0.14285714       0.00000000       0.06666667 </v>
   <v>       0.28571429       0.00000000       0.06666667 </v>
   <v>       0.42857143       0.00000000       0.06666667 </v>
   <v>       0.14285714       0.14285714       0.06666667 </v>
   <v>       0.28571429       0.14285714       0.06666667 </v>
   <v>       0.42857143       0.14285714       0.06666667 </v>
   <v>      -0.42857143       0.14285714       0.06666667 </v>
   <v>       0.28571429       0.28571429       0.06666667 </v>
   <v>       0.00000000       0.00000000       0.13333333 </v>
   <v>       0.14285714       0.00000000       0.13333333 </v>
   <v>       0.28571429       0.00000000       0.13333333 </v>
   <v>       0.42857143       0.00000000       0.13333333 </v>
   <v>       0.14285714       0.14285714       0.13333333 </v>
   <v>       0.28571429       0.14285714       0.13333333 </v>
   <v>       0.42857143       0.14285714       0.13333333 </v>
   <v>      -0.42857143       0.14285714       0.13333333 </v>
   <v>       0.28571429       0.28571429       0.13333333 </v>
   <v>       0.00000000       0.00000000       0.20000000 </v>
   <v>       0.14285714       0.00000000       0.20000000 </v>
   <v>       0.28571429       0.00000000       0.20000000 </v>
   <v>       0.42857143       0.00000000       0.20000000 </v>
   <v>       0.14285714       0.14285714       0.20000000 </v>
   <v>       0.28571429       0.14285714       0.20000000 </v>
   <v>       0.42857143       0.14285714       0.20000000 </v>
   <v>      -0.42857143       0.14285714       0.20000000 </v>
   <v>       0.28571429       0.28571429       0.20000000 </v>
   <v>       0.00000000       0.00000000       0.26666667 </v>
   <v>       0.14285714       0.00000000       0.26666667 </v>
   <v>       0.28571429       0.00000000       0.26666667 </v>
   <v>       0.42857143       0.00000000       0.26666667 </v>
   <v>       0.14285714       0.14285714       0.26666667 </v>
   <v>       0.28571429       0.14285714       0.26666667 </v>
   <v>       0.42857143       0.14285714       0.26666667 </v>
   <v>      -0.42857143       0.14285714       0.26666667 </v>
   <v>       0.28571429       0.28571429       0.26666667 </v>
   <v>       0.00000000       0.00000000       0.33333333 </v>
   <v>       0.14285714       0.00000000       0.33333333 </v>
   <v>       0.28571429       0.00000000       0.33333333 </v>
   <v>       0.42857143       0.00000000       0.33333333 </v>
   <v>       0.14285714       0.14285714       0.33333333 </v>
   <v>       0.28571429       0.14285714       0.33333333 </v>
   <v>       0.42857143       0.14285714       0.33333333 </v>
   <v>      -0.42857143       0.14285714       0.33333333 </v>
   <v>       0.28571429       0.28571429       0.33333333 </v>
   <v>       0.00000000       0.00000000       0.40000000 </v>
   <v>       0.14285714       0.00000000       0.40000000 </v>
   <v>       0.28571429       0.00000000       0.40000000 </v>
   <v>       0.42857143       0.00000000       0.40000000 </v>
   <v>       0.14285714       0.14285714       0.40000000 </v>
   <v>       0.28571429       0.14285714       0.40000000 </v>
   <v>       0.42857143       0.14285714       0.40000000 </v>
   <v>      -0.42857143       0.14285714       0.40000000 </v>
   <v>       0.28571429       0.28571429       0.40000000 </v>
   <v>       0.00000000       0.00000000       0.46666667 </v>
   <v>       0.14285714       0.00000000       0.46666667 </v>
   <v>       0.28571429       0.00000000       0.46666667 </v>
   <v>       0.42857143       0.00000000       0.46666667 </v>
   <v>       0.14285714       0.14285714       0.46666667 </v>
   <v>       0.28571429       0.14285714       0.46666667 </v>
   <v>       0.42857143       0.14285714       0.46666667 </v>
   <v>      -0.42857143       0.14285714       0.46666667 </v>
   <v>       0.28571429       0.28571429       0.46666667 </v>
  </varray>
  <varray name="weights" >
   <v>       0.00136054 </v>
   <v>       0.00816327 </v>
   <v>       0.00816327 </v>
   <v>       0.00816327 </v>
   <v>       0.00816327 </v>
   <v>       0.00816327 </v>
   <v>       0.00816327 </v>
   <v>       0.00816327 </v>
   <v>       0.00816327 </v>
   <v>       0.00272109 </v>
   <v>       0.01632653 </v>
   <v>       0.01632653 </v>
   <v>       0.01632653 </v>
   <v>       0.01632653 </v>
   <v>       0.01632653 </v>
   <v>       0.01632653 </v>
   <v>       0.01632653 </v>
   <v>       0.01632653 </v>
   <v>       0.00272109 </v>
   <v>       0.01632653 </v>
   <v>       0.01632653 </v>
   <v>       0.01632653 </v>
   <v>       0.01632653 </v>
   <v>       0.01632653 </v>
   <v>       0.01632653 </v>
   <v>       0.01632653 </v>
   <v>       0.01632653 </v>
   <v>       0.00272109 </v>
   <v>       0.01632653 </v>
   <v>       0.01632653 </v>
   <v>       0.01632653 </v>
   <v>       0.01632653 </v>
   <v>       0.01632653 </v>
   <v>       0.01632653 </v>
   <v>       0.01632653 </v>
   <v>       0.01632653 </v>
   <v>       0.00272109 </v>
   <v>       0.01632653 </v>
   <v>       0.01632653 </v>
   <v>       0.01632653 </v>
   <v>       0.01632653 </v>
   <v>       0.01632653 </v>
   <v>       0.01632653 </v>
   <v>       0.01632653 </v>
   <v>       0.01632653 </v>
   <v>       0.00272109 </v>
   <v>       0.01632653 </v>
   <v>       0.01632653 </v>
   <v>       0.01632653 </v>
   <v>       0.01632653 </v>
   <v>       0.01632653 </v>
   <v>       0.01632653 </v>
   <v>       0.01632653 </v>
   <v>       0.01632653 </v>
   <v>       0.00272109 </v>
   <v>       0.01632653 </v>
   <v>       0.01632653 </v>
   <v>       0.01632653 </v>
   <v>       0.01632653 </v>
   <v>       0.01632653 </v>
   <v>       0.01632653 </v>
   <v>       0.01632653 </v>
   <v>       0.01632653 </v>
   <v>       0.00272109 </v>
   <v>       0.01632653 </v>
   <v>       0.01632653 </v>
   <v>       0.01632653 </v>
   <v>       0.01632653 </v>
   <v>       0.01632653 </v>
   <v>       0.01632653 </v>
   <v>       0.01632653 </v>
   <v>       0.01632653 </v>
  </varray>
 </kpoints>
 <parameters>
  <separator name="general" >
   <i type="string" name="SYSTEM">unknown system</i>
   <i type="logical" name="LCOMPAT"> F  </i>
  </separator>
  <separator name="electronic" >
   <i type="string" name="PREC">accura</i>
   <i name="ENMAX">    400.00000000</i>
   <i name="ENAUG">    627.11200000</i>
   <i name="EDIFF">      0.00010000</i>
   <i type="int" name="IALGO">    68</i>
   <i type="int" name="IWAVPR">    11</i>
   <i type="int" name="NBANDS">    40</i>
   <i name="NELECT">     62.00000000</i>
   <i type="int" name="TURBO">     0</i>
   <i type="int" name="IRESTART">     0</i>
   <i type="int" name="NREBOOT">     0</i>
   <i type="int" name="NMIN">     0</i>
   <i name="EREF">      0.00000000</i>
   <separator name="electronic smearing" >
    <i type="int" name="ISMEAR">     2</i>
    <i name="SIGMA">      0.10000000</i>
    <i name="KSPACING">      0.50000000</i>
    <i type="logical" name="KGAMMA"> T  </i>
   </separator>
   <separator name="electronic projectors" >
    <i type="logical" name="LREAL"> T  </i>
    <v name="ROPT">     -0.00025000     -0.00025000</v>
    <i type="int" name="LMAXPAW">  -100</i>
    <i type="int" name="LMAXMIX">     2</i>
    <i type="logical" name="NLSPLINE"> F  </i>
   </separator>
   <separator name="electronic startup" >
    <i type="int" name="ISTART">     0</i>
    <i type="int" name="ICHARG">     2</i>
    <i type="int" name="INIWAV">     1</i>
   </separator>
   <separator name="electronic spin" >
    <i type="int" name="ISPIN">     1</i>
    <i type="logical" name="LNONCOLLINEAR"> F  </i>
    <v name="MAGMOM">      1.00000000      1.00000000      1.00000000      1.00000000      1.00000000      1.00000000      1.00000000      1.00000000      1.00000000      1.00000000      1.00000000      1.00000000      1.00000000      1.00000000</v>
    <i name="NUPDOWN">     -1.00000000</i>
    <i type="logical" name="LSORBIT"> F  </i>
    <v name="SAXIS">      0.00000000      0.00000000      1.00000000</v>
    <i type="logical" name="LSPIRAL"> F  </i>
    <v name="QSPIRAL">      0.00000000      0.00000000      0.00000000</v>
    <i type="logical" name="LZEROZ"> F  </i>
   </separator>
   <separator name="electronic exchange-correlation" >
    <i type="logical" name="LASPH"> F  </i>
    <i type="logical" name="LMETAGGA"> F  </i>
   </separator>
   <separator name="electronic convergence" >
    <i type="int" name="NELM">    60</i>
    <i type="int" name="NELMDL">    -5</i>
    <i type="int" name="NELMIN">     2</i>
    <i name="ENINI">    400.00000000</i>
    <separator name="electronic convergence detail" >
     <i type="logical" name="LDIAG"> T  </i>
     <i type="logical" name="LSUBROT"> F  </i>
     <i name="WEIMIN">      0.00100000</i>
     <i name="EBREAK">      0.00000063</i>
     <i name="DEPER">      0.30000000</i>
     <i type="int" name="NRMM">     4</i>
     <i name="TIME">      0.40000000</i>
    </separator>
   </separator>
   <separator name="electronic mixer" >
    <i name="AMIX">      0.40000000</i>
    <i name="BMIX">      1.00000000</i>
    <i name="AMIN">      0.10000000</i>
    <i name="AMIX_MAG">      1.60000000</i>
    <i name="BMIX_MAG">      1.00000000</i>
    <separator name="electronic mixer details" >
     <i type="int" name="IMIX">     4</i>
     <i type="logical" name="MIXFIRST"> F  </i>
     <i type="int" name="MAXMIX">   -45</i>
     <i name="WC">    100.00000000</i>
     <i type="int" name="INIMIX">     1</i>
     <i type="int" name="MIXPRE">     1</i>
     <i type="int" name="MREMOVE">     5</i>
    </separator>
   </separator>
   <separator name="electronic dipolcorrection" >
    <i type="logical" name="LDIPOL"> F  </i>
    <i type="logical" name="LMONO"> F  </i>
    <i type="int" name="IDIPOL">     0</i>
    <i name="EPSILON">      1.00000000</i>
    <v name="DIPOL">   -100.00000000   -100.00000000   -100.00000000</v>
    <i name="EFIELD">      0.00000000</i>
   </separator>
  </separator>
  <separator name="grids" >
   <i type="int" name="NGX">    50</i>
   <i type="int" name="NGY">    50</i>
   <i type="int" name="NGZ">    20</i>
   <i type="int" name="NGXF">   100</i>
   <i type="int" name="NGYF">   100</i>
   <i type="int" name="NGZF">    40</i>
   <i type="logical" name="ADDGRID"> F  </i>
  </separator>
  <separator name="ionic" >
   <i type="int" name="NSW">   100</i>
   <i type="int" name="IBRION">     2</i>
   <i type="int" name="MDALGO">     0</i>
   <i type="int" name="ISIF">     3</i>
   <i name="PSTRESS">      0.00000000</i>
   <i name="EDIFFG">      0.00100000</i>
   <i type="int" name="NFREE">     1</i>
   <i name="POTIM">      0.50000000</i>
   <i name="SMASS">     -3.00000000</i>
   <i name="SCALEE">      1.00000000</i>
  </separator>
  <separator name="ionic md" >
   <i name="TEBEG">      0.00010000</i>
   <i name="TEEND">      0.00010000</i>
   <i type="int" name="NBLOCK">     1</i>
   <i type="int" name="KBLOCK">   100</i>
   <i type="int" name="NPACO">   256</i>
   <i name="APACO">     16.00000000</i>
  </separator>
  <separator name="symmetry" >
   <i type="int" name="ISYM">     2</i>
   <i name="SYMPREC">      0.00001000</i>
  </separator>
  <separator name="dos" >
   <i type="int" name="LORBIT">     0</i>
   <v name="RWIGS">     -1.00000000     -1.00000000</v>
   <i type="int" name="NEDOS">   301</i>
   <i name="EMIN">     10.00000000</i>
   <i name="EMAX">    -10.00000000</i>
   <i name="EFERMI">      0.00000000</i>
  </separator>
  <separator name="writing" >
   <i type="int" name="NWRITE">     2</i>
   <i type="logical" name="LWAVE"> F  </i>
   <i type="logical" name="LDOWNSAMPLE"> F  </i>
   <i type="logical" name="LCHARG"> F  </i>
   <i type="logical" name="LPARD"> F  </i>
   <i type="logical" name="LVTOT"> F  </i>
   <i type="logical" name="LVHAR"> F  </i>
   <i type="logical" name="LELF"> F  </i>
   <i type="logical" name="LOPTICS"> F  </i>
   <v name="STM">      0.00000000      0.00000000      0.00000000      0.00000000      0.00000000      0.00000000      0.00000000</v>
  </separator>
  <separator name="performance" >
   <i type="int" name="NPAR">     4</i>
   <i type="int" name="NSIM">     4</i>
   <i type="int" name="NBLK">    -1</i>
   <i type="logical" name="LPLANE"> T  </i>
   <i type="logical" name="LSCALAPACK"> F  </i>
   <i type="logical" name="LSCAAWARE"> F  </i>
   <i type="logical" name="LSCALU"> F  </i>
   <i type="logical" name="LASYNC"> F  </i>
   <i type="logical" name="LORBITALREAL"> F  </i>
  </separator>
  <separator name="miscellaneous" >
   <i type="int" name="IDIOT">     3</i>
   <i type="int" name="ISPECIAL">     0</i>
   <i type="logical" name="LMUSIC"> F  </i>
   <v name="POMASS">     14.00100000     28.08500000</v>
   <v name="DARWINR">      0.00000000      0.00000000</v>
   <v name="DARWINV">      1.00000000      1.00000000</v>
   <i type="logical" name="LCORR"> T  </i>
  </separator>
  <i type="logical" name="GGA_COMPAT"> T  </i>
  <i type="logical" name="LBERRY"> F  </i>
  <i type="int" name="ICORELEVEL">     0</i>
  <i type="logical" name="LDAU"> F  </i>
  <i type="int" name="I_CONSTRAINED_M">     0</i>
  <separator name="electronic exchange-correlation" >
   <i type="string" name="GGA">--</i>
   <i type="int" name="VOSKOWN">     0</i>
   <i type="logical" name="LHFCALC"> F  </i>
   <i type="string" name="PRECFOCK"></i>
   <i type="logical" name="LSYMGRAD"> F  </i>
   <i type="logical" name="LHFONE"> F  </i>
   <i type="logical" name="LRHFCALC"> F  </i>
   <i type="logical" name="LTHOMAS"> F  </i>
   <i type="logical" name="LMODELHF"> F  </i>
   <i name="ENCUT4O">     -1.00000000</i>
   <i type="int" name="EXXOEP">     0</i>
   <i type="int" name="FOURORBIT">     0</i>
   <i name="AEXX">      0.00000000</i>
   <i name="HFALPHA">      0.00000000</i>
   <i name="MCALPHA">      0.00000000</i>
   <i name="ALDAX">      1.00000000</i>
   <i name="AGGAX">      1.00000000</i>
   <i name="ALDAC">      1.00000000</i>
   <i name="AGGAC">      1.00000000</i>
   <i type="int" name="NKREDX">     1</i>
   <i type="int" name="NKREDY">     1</i>
   <i type="int" name="NKREDZ">     1</i>
   <i type="logical" name="SHIFTRED"> F  </i>
   <i type="logical" name="ODDONLY"> F  </i>
   <i type="logical" name="EVENONLY"> F  </i>
   <i type="int" name="LMAXFOCK">     0</i>
   <i type="int" name="NMAXFOCKAE">     0</i>
   <i type="logical" name="LFOCKAEDFT"> F  </i>
   <i name="HFSCREEN">      0.00000000</i>
   <i name="HFSCREENC">      0.00000000</i>
   <i type="int" name="NBANDSGWLOW">     0</i>
  </separator>
  <separator name="vdW DFT" >
   <i type="logical" name="LUSE_VDW"> F  </i>
   <i name="Zab_VDW">     -0.84910000</i>
   <i name="PARAM1">      0.12340000</i>
   <i name="PARAM2">      1.00000000</i>
   <i name="PARAM3">      0.00000000</i>
  </separator>
  <separator name="model GW" >
   <i type="int" name="MODEL_GW">     0</i>
   <i name="MODEL_EPS0">      6.23556985</i>
   <i name="MODEL_ALPHA">      1.00000000</i>
  </separator>
  <separator name="linear response parameters" >
   <i type="logical" name="LEPSILON"> F  </i>
   <i type="logical" name="LRPA"> F  </i>
   <i type="logical" name="LNABLA"> F  </i>
   <i type="logical" name="LVEL"> F  </i>
   <i type="int" name="KINTER">     0</i>
   <i name="CSHIFT">      0.10000000</i>
   <i name="OMEGAMAX">     -1.00000000</i>
   <i name="DEG_THRESHOLD">      0.00200000</i>
   <i name="RTIME">     -0.10000000</i>
   <i name="WPLASMAI">      0.00000000</i>
   <v name="DFIELD">      0.00000000      0.00000000      0.00000000</v>
   <v name="WPLASMA">      0.00000000      0.00000000      0.00000000      0.00000000      0.00000000      0.00000000      0.00000000      0.00000000      0.00000000</v>
  </separator>
  <separator name="orbital magnetization" >
   <i type="logical" name="NUCIND"> F  </i>
   <v name="MAGPOS">      0.00000000      0.00000000      0.00000000</v>
   <i type="logical" name="LNICSALL"> T  </i>
   <i type="logical" name="ORBITALMAG"> F  </i>
   <i type="logical" name="LMAGBLOCH"> F  </i>
   <i type="logical" name="LCHIMAG"> F  </i>
   <i type="logical" name="LGAUGE"> T  </i>
   <i type="int" name="MAGATOM">     0</i>
   <v name="MAGDIPOL">      0.00000000      0.00000000      0.00000000</v>
   <v name="AVECCONST">      0.00000000      0.00000000      0.00000000</v>
  </separator>
  <separator name="response functions" >
   <i type="logical" name="LADDER"> F  </i>
   <i type="logical" name="LRPAFORCE"> F  </i>
   <i type="logical" name="LFXC"> F  </i>
   <i type="logical" name="LHARTREE"> T  </i>
   <i type="int" name="IBSE">     0</i>
   <v type="int" name="KPOINT">    -1     0     0     0</v>
   <i type="logical" name="LTCTE"> F  </i>
   <i type="logical" name="LTETE"> F  </i>
   <i type="logical" name="LTRIPLET"> F  </i>
   <i type="logical" name="LFXCEPS"> F  </i>
   <i type="logical" name="LFXHEG"> F  </i>
   <i type="int" name="NATURALO">     2</i>
   <i type="logical" name="L2ORDER"> F  </i>
   <i type="logical" name="LMP2LT"> F  </i>
   <i type="logical" name="LUSEW"> F  </i>
   <i name="ENCUTGW">     -2.00000000</i>
   <i name="ENCUTGWSOFT">     -2.00000000</i>
   <i name="ENCUTLF">     -1.00000000</i>
   <i type="int" name="LMAXMP2">    -1</i>
   <i name="SCISSOR">      0.00000000</i>
   <i type="int" name="NOMEGA">     0</i>
   <i type="int" name="NOMEGAR">     0</i>
   <i type="int" name="NBANDSGW">    -1</i>
   <i type="int" name="NBANDSO">    -1</i>
   <i type="int" name="NBANDSV">    -1</i>
   <i type="int" name="NELM">     1</i>
   <i type="int" name="NELMHF">     1</i>
   <i type="int" name="DIM">     3</i>
   <i type="int" name="ANTIRES">     0</i>
   <i name="OMEGAMAX">    -30.00000000</i>
   <i name="OMEGAMIN">    -30.00000000</i>
   <i name="OMEGATL">   -200.00000000</i>
   <i type="int" name="OMEGAGRID">   140</i>
   <i name="CSHIFT">     -0.10000000</i>
   <i type="logical" name="SELFENERGY"> F  </i>
   <i type="logical" name="LSPECTRAL"> F  </i>
   <i type="logical" name="LSPECTRALGW"> F  </i>
   <i type="logical" name="LSINGLES"> F  </i>
   <i type="logical" name="LFERMIGW"> F  </i>
   <i type="logical" name="ODDONLYGW"> F  </i>
   <i type="logical" name="EVENONLYGW"> F  </i>
   <i type="int" name="NKREDLFX">     1</i>
   <i type="int" name="NKREDLFY">     1</i>
   <i type="int" name="NKREDLFZ">     1</i>
   <i type="int" name="MAXMEM">  2800</i>
   <i type="int" name="TELESCOPE">     0</i>
   <i type="int" name="TAUPAR">     1</i>
   <i type="int" name="OMEGAPAR">    -1</i>
   <i name="LAMBDA">      1.00000000</i>
  </separator>
  <separator name="External order field" >
   <i name="OFIELD_KAPPA">      0.00000000</i>
   <v name="OFIELD_K">      0.00000000      0.00000000      0.00000000</v>
   <i name="OFIELD_Q6_NEAR">      0.00000000</i>
   <i name="OFIELD_Q6_FAR">      0.00000000</i>
   <i name="OFIELD_A">      0.00000000</i>
  </separator>
 </parameters>
 <atominfo>
  <atoms>      14 </atoms>
  <types>       2 </types>
  <array name="atoms" >
   <dimension dim="1">ion</dimension>
   <field type="string">element</field>
   <field type="int">atomtype</field>
   <set>
    <rc><c>N </c><c>   1</c></rc>
    <rc><c>N </c><c>   1</c></rc>
    <rc><c>N </c><c>   1</c></rc>
    <rc><c>N </c><c>   1</c></rc>
    <rc><c>N </c><c>   1</c></rc>
    <rc><c>N </c><c>   1</c></rc>
    <rc><c>Si</c><c>   2</c></rc>
    <rc><c>Si</c><c>   2</c></rc>
    <rc><c>Si</c><c>   2</c></rc>
    <rc><c>Si</c><c>   2</c></rc>
    <rc><c>Si</c><c>   2</c></rc>
    <rc><c>Si</c><c>   2</c></rc>
    <rc><c>Si</c><c>   2</c></rc>
    <rc><c>Si</c><c>   2</c></rc>
   </set>
  </array>
  <array name="atomtypes" >
   <dimension dim="1">type</dimension>
   <field type="int">atomspertype</field>
   <field type="string">element</field>
   <field>mass</field>
   <field>valence</field>
   <field type="string">pseudopotential</field>
   <set>
    <rc><c>   6</c><c>N </c><c>     14.00100000</c><c>      5.00000000</c><c>  PAW_PBE N 08Apr2002                   </c></rc>
    <rc><c>   8</c><c>Si</c><c>     28.08500000</c><c>      4.00000000</c><c>  PAW_PBE Si 05Jan2001                  </c></rc>
   </set>
  </array>
 </atominfo>
 <structure name="initialpos" >
  <crystal>
   <varray name="basis" >
    <v>       3.80227222      -6.58572867       0.00000000 </v>
    <v>       3.80227222       6.58572867       0.00000000 </v>
    <v>       0.00000000       0.00000000       2.90519908 </v>
   </varray>
   <i name="volume">    145.49662976 </i>
   <varray name="rec_basis" >
    <v>       0.13150032      -0.07592174       0.00000000 </v>
    <v>       0.13150032       0.07592174       0.00000000 </v>
    <v>       0.00000000       0.00000000       0.34421049 </v>
   </varray>
  </crystal>
  <varray name="positions" >
   <v>       0.23108243       0.82494615       0.75000000 </v>
   <v>       0.40613628       0.23108243       0.25000000 </v>
   <v>       0.82494615       0.59386372       0.25000000 </v>
   <v>       0.17505385       0.40613628       0.75000000 </v>
   <v>       0.59386372       0.76891757       0.75000000 </v>
   <v>       0.76891757       0.17505385       0.25000000 </v>
   <v>       0.33333333       0.66666667       0.75000000 </v>
   <v>       0.66666667       0.33333333       0.25000000 </v>
   <v>       0.96919449       0.66985340       0.75000000 </v>
   <v>       0.29934109       0.96919449       0.25000000 </v>
   <v>       0.66985340       0.70065891       0.25000000 </v>
   <v>       0.33014660       0.29934109       0.75000000 </v>
   <v>       0.03080551       0.33014660       0.25000000 </v>
   <v>       0.70065891       0.03080551       0.75000000 </v>
  </varray>
 </structure>
 <calculation>
  <scstep>
   <time name="dav">    2.25    2.25</time>
   <time name="total">    2.27    2.33</time>
   <energy>
    <i name="alphaZ">     83.78564611 </i>
    <i name="ewald">  -2225.94365591 </i>
    <i name="hartreedc">   -524.46889335 </i>
    <i name="XCdc">     56.45576439 </i>
    <i name="pawpsdc">   1934.58678659 </i>
    <i name="pawaedc">  -1800.98643654 </i>
    <i name="eentropy">      0.00114495 </i>
    <i name="bandstr">    308.60252904 </i>
    <i name="atom">   2411.37598431 </i>
    <i name="e_fr_energy">    243.40886959 </i>
    <i name="e_wo_entrp">    243.40772464 </i>
    <i name="e_0_energy">    243.40858335 </i>
   </energy>
  </scstep>
  <scstep>
   <time name="dav">    2.73    2.74</time>
   <time name="total">    2.74    2.74</time>
   <energy>
    <i name="e_fr_energy">    -71.07290961 </i>
    <i name="e_wo_entrp">    -71.07191307 </i>
    <i name="e_0_energy">    -71.07266048 </i>
   </energy>
  </scstep>
  <scstep>
   <time name="dav">    2.72    2.73</time>
   <time name="total">    2.73    2.73</time>
   <energy>
    <i name="e_fr_energy">    -93.41440523 </i>
    <i name="e_wo_entrp">    -93.41519167 </i>
    <i name="e_0_energy">    -93.41460184 </i>
   </energy>
  </scstep>
  <scstep>
   <time name="dav">    2.70    2.70</time>
   <time name="total">    2.70    2.70</time>
   <energy>
    <i name="e_fr_energy">    -93.88188724 </i>
    <i name="e_wo_entrp">    -93.88307766 </i>
    <i name="e_0_energy">    -93.88218484 </i>
   </energy>
  </scstep>
  <scstep>
   <time name="dav">    2.70    2.70</time>
   <time name="total">    2.83    2.83</time>
   <energy>
    <i name="e_fr_energy">    -93.89271093 </i>
    <i name="e_wo_entrp">    -93.89390203 </i>
    <i name="e_0_energy">    -93.89300870 </i>
   </energy>
  </scstep>
  <scstep>
   <time name="diag">    0.33    0.33</time>
   <time name="diis">    1.38    1.38</time>
   <time name="orth">    0.06    0.06</time>
   <time name="total">    1.92    1.92</time>
   <energy>
    <i name="e_fr_energy">    -82.57963642 </i>
    <i name="e_wo_entrp">    -82.57923682 </i>
    <i name="e_0_energy">    -82.57953652 </i>
   </energy>
  </scstep>
  <scstep>
   <time name="diag">    0.33    0.33</time>
   <time name="diis">    1.45    1.45</time>
   <time name="orth">    0.06    0.06</time>
   <time name="total">    1.99    1.99</time>
   <energy>
    <i name="e_fr_energy">    -82.51474899 </i>
    <i name="e_wo_entrp">    -82.51288911 </i>
    <i name="e_0_energy">    -82.51428402 </i>
   </energy>
  </scstep>
  <scstep>
   <time name="diag">    0.33    0.33</time>
   <time name="diis">    1.38    1.38</time>
   <time name="orth">    0.06    0.06</time>
   <time name="total">    1.91    1.92</time>
   <energy>
    <i name="e_fr_energy">    -82.45971597 </i>
    <i name="e_wo_entrp">    -82.45902857 </i>
    <i name="e_0_energy">    -82.45954412 </i>
   </energy>
  </scstep>
  <scstep>
   <time name="diag">    0.33    0.33</time>
   <time name="diis">    1.38    1.38</time>
   <time name="orth">    0.06    0.06</time>
   <time name="total">    1.91    1.91</time>
   <energy>
    <i name="e_fr_energy">    -82.43839084 </i>
    <i name="e_wo_entrp">    -82.43725933 </i>
    <i name="e_0_energy">    -82.43810796 </i>
   </energy>
  </scstep>
  <scstep>
   <time name="diag">    0.33    0.33</time>
   <time name="diis">    1.49    1.49</time>
   <time name="orth">    0.06    0.06</time>
   <time name="total">    2.02    2.02</time>
   <energy>
    <i name="e_fr_energy">    -82.43874096 </i>
    <i name="e_wo_entrp">    -82.43753710 </i>
    <i name="e_0_energy">    -82.43843999 </i>
   </energy>
  </scstep>
  <scstep>
   <time name="diag">    0.33    0.33</time>
   <time name="diis">    1.00    1.00</time>
   <time name="orth">    0.06    0.06</time>
   <time name="total">    1.53    1.53</time>
   <energy>
    <i name="e_fr_energy">    -82.43863591 </i>
    <i name="e_wo_entrp">    -82.43748650 </i>
    <i name="e_0_energy">    -82.43834856 </i>
   </energy>
  </scstep>
  <scstep>
   <time name="diag">    0.33    0.33</time>
   <time name="diis">    0.94    0.94</time>
   <time name="orth">    0.06    0.06</time>
   <time name="total">    1.35    1.35</time>
   <energy>
    <i name="alphaZ">     83.78564611 </i>
    <i name="ewald">  -2225.94365591 </i>
    <i name="hartreedc">   -616.63884126 </i>
    <i name="XCdc">     63.55218869 </i>
    <i name="pawpsdc">  10394.56404646 </i>
    <i name="pawaedc"> -10263.10861843 </i>
    <i name="eentropy">     -0.00112774 </i>
    <i name="bandstr">     69.97575335 </i>
    <i name="atom">   2411.37598431 </i>
    <i name="e_fr_energy">    -82.43862442 </i>
    <i name="e_wo_entrp">    -82.43749667 </i>
    <i name="e_0_energy">    -82.43834248 </i>
   </energy>
  </scstep>
  <structure>
   <crystal>
    <varray name="basis" >
     <v>       3.80227222      -6.58572867       0.00000000 </v>
     <v>       3.80227222       6.58572867       0.00000000 </v>
     <v>       0.00000000       0.00000000       2.90519908 </v>
    </varray>
    <i name="volume">    145.49662976 </i>
    <varray name="rec_basis" >
     <v>       0.13150032      -0.07592174       0.00000000 </v>
     <v>       0.13150032       0.07592174       0.00000000 </v>
     <v>       0.00000000       0.00000000       0.34421049 </v>
    </varray>
   </crystal>
   <varray name="positions" >
    <v>       0.23108243       0.82494615       0.75000000 </v>
    <v>       0.40613628       0.23108243       0.25000000 </v>
    <v>       0.82494615       0.59386372       0.25000000 </v>
    <v>       0.17505385       0.40613628       0.75000000 </v>
    <v>       0.59386372       0.76891757       0.75000000 </v>
    <v>       0.76891757       0.17505385       0.25000000 </v>
    <v>       0.33333333       0.66666667       0.75000000 </v>
    <v>       0.66666667       0.33333333       0.25000000 </v>
    <v>       0.96919449       0.66985340       0.75000000 </v>
    <v>       0.29934109       0.96919449       0.25000000 </v>
    <v>       0.66985340       0.70065891       0.25000000 </v>
    <v>       0.33014660       0.29934109       0.75000000 </v>
    <v>       0.03080551       0.33014660       0.25000000 </v>
    <v>       0.70065891       0.03080551       0.75000000 </v>
   </varray>
  </structure>
  <varray name="forces" >
   <v>      -0.93888867       1.49538351      -0.00000000 </v>
   <v>      -1.76448444      -0.06540968      -0.00000000 </v>
   <v>       0.82559577       1.56079319       0.00000000 </v>
   <v>      -0.82559577      -1.56079319       0.00000000 </v>
   <v>       1.76448444       0.06540968      -0.00000000 </v>
   <v>       0.93888867      -1.49538351      -0.00000000 </v>
   <v>      -0.00000000       0.00000000      -0.00000000 </v>
   <v>      -0.00000000       0.00000000       0.00000000 </v>
   <v>      -0.71108827      -1.31455464       0.00000000 </v>
   <v>       0.78289357      -1.27309783       0.00000000 </v>
   <v>      -1.49398185      -0.04145681       0.00000000 </v>
   <v>       1.49398185       0.04145681      -0.00000000 </v>
   <v>       0.71108827       1.31455464       0.00000000 </v>
   <v>      -0.78289357       1.27309783      -0.00000000 </v>
  </varray>
  <varray name="stress" >
   <v>     429.80762417      -0.00000002       0.00000000 </v>
   <v>       0.00000002     429.80762417       0.00000000 </v>
   <v>      -0.00000000       0.00000000     239.11952554 </v>
  </varray>
  <energy>
   <i name="e_fr_energy">    -82.43862442 </i>
   <i name="e_wo_entrp">    -82.43834248 </i>
   <i name="e_0_energy">     -0.00112774 </i>
  </energy>
  <time name="totalsc">   29.73   29.97</time>
 </calculation>
 <calculation>
  <scstep>
   <time name="dav">    2.12    2.12</time>
   <time name="total">    2.26    2.26</time>
   <energy>
    <i name="alphaZ">     60.56511300 </i>
    <i name="ewald">  -1991.70937535 </i>
    <i name="hartreedc">   -555.23947759 </i>
    <i name="XCdc">     44.06619676 </i>
    <i name="pawpsdc">  10384.75753579 </i>
    <i name="pawaedc"> -10253.30185780 </i>
    <i name="eentropy">     -0.00004513 </i>
    <i name="bandstr">   -198.93202631 </i>
    <i name="atom">   2411.37598431 </i>
    <i name="e_fr_energy">    -98.41795232 </i>
    <i name="e_wo_entrp">    -98.41790719 </i>
    <i name="e_0_energy">    -98.41794104 </i>
   </energy>
  </scstep>
  <scstep>
   <time name="diag">    0.33    0.33</time>
   <time name="diis">    1.22    1.22</time>
   <time name="orth">    0.06    0.06</time>
   <time name="total">    1.75    1.76</time>
   <energy>
    <i name="e_fr_energy">    -86.06917345 </i>
    <i name="e_wo_entrp">    -86.06959837 </i>
    <i name="e_0_energy">    -86.06927968 </i>
   </energy>
  </scstep>
  <scstep>
   <time name="diag">    0.33    0.33</time>
   <time name="diis">    1.25    1.25</time>
   <time name="orth">    0.06    0.06</time>
   <time name="total">    1.79    1.79</time>
   <energy>
    <i name="e_fr_energy">    -85.21002328 </i>
    <i name="e_wo_entrp">    -85.21214893 </i>
    <i name="e_0_energy">    -85.21055469 </i>
   </energy>
  </scstep>
  <scstep>
   <time name="diag">    0.33    0.33</time>
   <time name="diis">    1.25    1.25</time>
   <time name="orth">    0.06    0.06</time>
   <time name="total">    1.78    1.78</time>
   <energy>
    <i name="e_fr_energy">    -84.93599781 </i>
    <i name="e_wo_entrp">    -84.93742281 </i>
    <i name="e_0_energy">    -84.93635406 </i>
   </energy>
  </scstep>
  <scstep>
   <time name="diag">    0.33    0.33</time>
   <time name="diis">    1.28    1.28</time>
   <time name="orth">    0.06    0.06</time>
   <time name="total">    1.80    1.81</time>
   <energy>
    <i name="e_fr_energy">    -84.88068610 </i>
    <i name="e_wo_entrp">    -84.88232999 </i>
    <i name="e_0_energy">    -84.88109707 </i>
   </energy>
  </scstep>
  <scstep>
   <time name="diag">    0.33    0.33</time>
   <time name="diis">    1.30    1.30</time>
   <time name="orth">    0.06    0.06</time>
   <time name="total">    1.83    1.83</time>
   <energy>
    <i name="e_fr_energy">    -84.88772025 </i>
    <i name="e_wo_entrp">    -84.88949065 </i>
    <i name="e_0_energy">    -84.88816285 </i>
   </energy>
  </scstep>
  <scstep>
   <time name="diag">    0.33    0.33</time>
   <time name="diis">    1.28    1.28</time>
   <time name="orth">    0.06    0.06</time>
   <time name="total">    1.81    1.81</time>
   <energy>
    <i name="e_fr_energy">    -84.88321722 </i>
    <i name="e_wo_entrp">    -84.88508203 </i>
    <i name="e_0_energy">    -84.88368342 </i>
   </energy>
  </scstep>
  <scstep>
   <time name="diag">    0.33    0.33</time>
   <time name="diis">    1.30    1.30</time>
   <time name="orth">    0.06    0.06</time>
   <time name="total">    1.83    1.84</time>
   <energy>
    <i name="e_fr_energy">    -84.88360538 </i>
    <i name="e_wo_entrp">    -84.88545396 </i>
    <i name="e_0_energy">    -84.88406753 </i>
   </energy>
  </scstep>
  <scstep>
   <time name="diag">    0.33    0.33</time>
   <time name="diis">    0.90    0.90</time>
   <time name="orth">    0.06    0.06</time>
   <time name="total">    1.44    1.44</time>
   <energy>
    <i name="e_fr_energy">    -84.88349913 </i>
    <i name="e_wo_entrp">    -84.88534988 </i>
    <i name="e_0_energy">    -84.88396182 </i>
   </energy>
  </scstep>
  <scstep>
   <time name="diag">    0.34    0.34</time>
   <time name="diis">    0.86    0.86</time>
   <time name="orth">    0.06    0.06</time>
   <time name="total">    1.27    1.28</time>
   <energy>
    <i name="alphaZ">     60.56511300 </i>
    <i name="ewald">  -1991.70937535 </i>
    <i name="hartreedc">   -673.51986654 </i>
    <i name="XCdc">     49.99838437 </i>
    <i name="pawpsdc">   5398.86636867 </i>
    <i name="pawaedc">  -5265.96150975 </i>
    <i name="eentropy">      0.00184560 </i>
    <i name="bandstr">    -74.50044157 </i>
    <i name="atom">   2411.37598431 </i>
    <i name="e_fr_energy">    -84.88349725 </i>
    <i name="e_wo_entrp">    -84.88534285 </i>
    <i name="e_0_energy">    -84.88395865 </i>
   </energy>
  </scstep>
  <structure>
   <crystal>
    <varray name="basis" >
     <v>       4.31367470      -7.47150374       0.00000000 </v>
     <v>       4.31367470       7.47150374       0.00000000 </v>
     <v>      -0.00000000       0.00000000       3.12258752 </v>
    </varray>
    <i name="volume">    201.27972239 </i>
    <varray name="rec_basis" >
     <v>       0.11591046      -0.06692093       0.00000000 </v>
     <v>       0.11591046       0.06692093       0.00000000 </v>
     <v>       0.00000000       0.00000000       0.32024723 </v>
    </varray>
   </crystal>
   <varray name="positions" >
    <v>       0.21964910       0.82446700       0.75000000 </v>
    <v>       0.39518210       0.21964910       0.25000000 </v>
    <v>       0.82446700       0.60481790       0.25000000 </v>
    <v>       0.17553300       0.39518210       0.75000000 </v>
    <v>       0.60481790       0.78035090       0.75000000 </v>
    <v>       0.78035090       0.17553300       0.25000000 </v>
    <v>       0.33333333       0.66666667       0.75000000 </v>
    <v>       0.66666667       0.33333333       0.25000000 </v>
    <v>       0.96949817       0.66052753       0.75000000 </v>
    <v>       0.30897064       0.96949817       0.25000000 </v>
    <v>       0.66052753       0.69102936       0.25000000 </v>
    <v>       0.33947247       0.30897064       0.75000000 </v>
    <v>       0.03050183       0.33947247       0.25000000 </v>
    <v>       0.69102936       0.03050183       0.75000000 </v>
   </varray>
  </structure>
  <varray name="forces" >
   <v>      -0.42983090       1.78926483       0.00000000 </v>
   <v>      -1.76446425       0.52238794       0.00000000 </v>
   <v>       1.33463335       1.26687689      -0.00000000 </v>
   <v>      -1.33463335      -1.26687689      -0.00000000 </v>
   <v>       1.76446425      -0.52238794       0.00000000 </v>
   <v>       0.42983090      -1.78926483       0.00000000 </v>
   <v>      -0.00000000      -0.00000000      -0.00000000 </v>
   <v>      -0.00000000      -0.00000000      -0.00000000 </v>
   <v>      -0.92181281      -1.56130783       0.00000000 </v>
   <v>       0.89122584      -1.57896723      -0.00000000 </v>
   <v>      -1.81303865       0.01765940      -0.00000000 </v>
   <v>       1.81303865      -0.01765940       0.00000000 </v>
   <v>       0.92181281       1.56130783      -0.00000000 </v>
   <v>      -0.89122584       1.57896723       0.00000000 </v>
  </varray>
  <varray name="stress" >
   <v>    -159.55717388       0.00000094       0.00000000 </v>
   <v>      -0.00000094    -159.55717388      -0.00000000 </v>
   <v>      -0.00000000       0.00000000    -266.19360130 </v>
  </varray>
  <energy>
   <i name="e_fr_energy">    -84.88349725 </i>
   <i name="e_wo_entrp">    -84.88395865 </i>
   <i name="e_0_energy">      0.00184560 </i>
  </energy>
  <time name="totalsc">   20.90   20.94</time>
 </calculation>
 <calculation>
  <scstep>
   <time name="dav">    2.11    2.11</time>
   <time name="total">    2.25    2.26</time>
   <energy>
    <i name="alphaZ">     68.78722212 </i>
    <i name="ewald">  -2080.02738859 </i>
    <i name="hartreedc">   -701.99920509 </i>
    <i name="XCdc">     57.54336063 </i>
    <i name="pawpsdc">   5400.46583300 </i>
    <i name="pawaedc">  -5267.56287284 </i>
    <i name="eentropy">     -0.00072733 </i>
    <i name="bandstr">     22.84031704 </i>
    <i name="atom">   2411.37598431 </i>
    <i name="e_fr_energy">    -88.57747675 </i>
    <i name="e_wo_entrp">    -88.57674942 </i>
    <i name="e_0_energy">    -88.57729491 </i>
   </energy>
  </scstep>
  <scstep>
   <time name="diag">    0.33    0.33</time>
   <time name="diis">    1.29    1.29</time>
   <time name="orth">    0.06    0.06</time>
   <time name="total">    1.82    1.82</time>
   <energy>
    <i name="e_fr_energy">    -86.32341759 </i>
    <i name="e_wo_entrp">    -86.32218096 </i>
    <i name="e_0_energy">    -86.32310844 </i>
   </energy>
  </scstep>
  <scstep>
   <time name="diag">    0.33    0.33</time>
   <time name="diis">    1.30    1.30</time>
   <time name="orth">    0.06    0.06</time>
   <time name="total">    1.83    1.84</time>
   <energy>
    <i name="e_fr_energy">    -86.18207876 </i>
    <i name="e_wo_entrp">    -86.18092316 </i>
    <i name="e_0_energy">    -86.18178986 </i>
   </energy>
  </scstep>
  <scstep>
   <time name="diag">    0.33    0.33</time>
   <time name="diis">    1.30    1.30</time>
   <time name="orth">    0.06    0.06</time>
   <time name="total">    1.84    1.84</time>
   <energy>
    <i name="e_fr_energy">    -86.12425300 </i>
    <i name="e_wo_entrp">    -86.12335935 </i>
    <i name="e_0_energy">    -86.12402959 </i>
   </energy>
  </scstep>
  <scstep>
   <time name="diag">    0.33    0.33</time>
   <time name="diis">    1.34    1.34</time>
   <time name="orth">    0.06    0.06</time>
   <time name="total">    1.88    1.88</time>
   <energy>
    <i name="e_fr_energy">    -86.11672777 </i>
    <i name="e_wo_entrp">    -86.11579985 </i>
    <i name="e_0_energy">    -86.11649579 </i>
   </energy>
  </scstep>
  <scstep>
   <time name="diag">    0.33    0.33</time>
   <time name="diis">    1.33    1.33</time>
   <time name="orth">    0.06    0.06</time>
   <time name="total">    1.86    1.87</time>
   <energy>
    <i name="e_fr_energy">    -86.11908107 </i>
    <i name="e_wo_entrp">    -86.11811752 </i>
    <i name="e_0_energy">    -86.11884018 </i>
   </energy>
  </scstep>
  <scstep>
   <time name="diag">    0.33    0.33</time>
   <time name="diis">    1.31    1.31</time>
   <time name="orth">    0.06    0.06</time>
   <time name="total">    1.84    1.84</time>
   <energy>
    <i name="e_fr_energy">    -86.11608312 </i>
    <i name="e_wo_entrp">    -86.11515805 </i>
    <i name="e_0_energy">    -86.11585185 </i>
   </energy>
  </scstep>
  <scstep>
   <time name="diag">    0.33    0.33</time>
   <time name="diis">    1.20    1.20</time>
   <time name="orth">    0.06    0.06</time>
   <time name="total">    1.61    1.61</time>
   <energy>
    <i name="alphaZ">     68.78722212 </i>
    <i name="ewald">  -2080.02738859 </i>
    <i name="hartreedc">   -648.86507894 </i>
    <i name="XCdc">     54.96817014 </i>
    <i name="pawpsdc">   6779.06171831 </i>
    <i name="pawaedc">  -6646.62387598 </i>
    <i name="eentropy">     -0.00092899 </i>
    <i name="bandstr">    -24.79188756 </i>
    <i name="atom">   2411.37598431 </i>
    <i name="e_fr_energy">    -86.11606518 </i>
    <i name="e_wo_entrp">    -86.11513619 </i>
    <i name="e_0_energy">    -86.11583293 </i>
   </energy>
  </scstep>
  <structure>
   <crystal>
    <varray name="basis" >
     <v>       4.10609740      -7.11196932       0.00000000 </v>
     <v>       4.10609740       7.11196932       0.00000000 </v>
     <v>      -0.00000000       0.00000000       3.03434996 </v>
    </varray>
    <i name="volume">    177.22083775 </i>
    <varray name="rec_basis" >
     <v>       0.12177013      -0.07030402       0.00000000 </v>
     <v>       0.12177013       0.07030402       0.00000000 </v>
     <v>       0.00000000       0.00000000       0.32955988 </v>
    </varray>
   </crystal>
   <varray name="positions" >
    <v>       0.22373969       0.82463843       0.75000000 </v>
    <v>       0.39910126       0.22373969       0.25000000 </v>
    <v>       0.82463843       0.60089874       0.25000000 </v>
    <v>       0.17536157       0.39910126       0.75000000 </v>
    <v>       0.60089874       0.77626031       0.75000000 </v>
    <v>       0.77626031       0.17536157       0.25000000 </v>
    <v>       0.33333333       0.66666667       0.75000000 </v>
    <v>       0.66666667       0.33333333       0.25000000 </v>
    <v>       0.96938952       0.66386412       0.75000000 </v>
    <v>       0.30552541       0.96938952       0.25000000 </v>
    <v>       0.66386412       0.69447459       0.25000000 </v>
    <v>       0.33613588       0.30552541       0.75000000 </v>
    <v>       0.03061048       0.33613588       0.25000000 </v>
    <v>       0.69447459       0.03061048       0.75000000 </v>
   </varray>
  </structure>
  <varray name="forces" >
   <v>      -0.64480838       1.33787749       0.00000000 </v>
   <v>      -1.48104009       0.11051831      -0.00000000 </v>
   <v>       0.83623170       1.22735919      -0.00000000 </v>
   <v>      -0.83623170      -1.22735919      -0.00000000 </v>
   <v>       1.48104009      -0.11051831       0.00000000 </v>
   <v>       0.64480838      -1.33787749       0.00000000 </v>
   <v>       0.00000000      -0.00000000      -0.00000000 </v>
   <v>       0.00000000       0.00000000      -0.00000000 </v>
   <v>      -0.88057980      -1.66477649       0.00000000 </v>
   <v>       1.00144883      -1.59499272      -0.00000000 </v>
   <v>      -1.88202863      -0.06978377       0.00000000 </v>
   <v>       1.88202863       0.06978377      -0.00000000 </v>
   <v>       0.88057980       1.66477649      -0.00000000 </v>
   <v>      -1.00144883       1.59499272      -0.00000000 </v>
  </varray>
  <varray name="stress" >
   <v>     -18.52533741       0.00000050       0.00000000 </v>
   <v>      -0.00000050     -18.52533741       0.00000000 </v>
   <v>       0.00000000      -0.00000000    -149.82461670 </v>
  </varray>
  <energy>
   <i name="e_fr_energy">    -86.11606518 </i>
   <i name="e_wo_entrp">    -86.11583293 </i>
   <i name="e_0_energy">     -0.00092899 </i>
  </energy>
  <time name="totalsc">   18.43   18.46</time>
 </calculation>
 <calculation>
  <scstep>
   <time name="dav">    2.11    2.11</time>
   <time name="total">    2.25    2.25</time>
   <energy>
    <i name="alphaZ">     68.81614494 </i>
    <i name="ewald">  -2074.57880448 </i>
    <i name="hartreedc">   -651.09583217 </i>
    <i name="XCdc">     54.84239293 </i>
    <i name="pawpsdc">   6787.16173447 </i>
    <i name="pawaedc">  -6654.72205911 </i>
    <i name="eentropy">      0.00070865 </i>
    <i name="bandstr">    -30.64838851 </i>
    <i name="atom">   2411.37598431 </i>
    <i name="e_fr_energy">    -88.84811896 </i>
    <i name="e_wo_entrp">    -88.84882761 </i>
    <i name="e_0_energy">    -88.84829612 </i>
   </energy>
  </scstep>
  <scstep>
   <time name="diag">    0.33    0.33</time>
   <time name="diis">    1.30    1.30</time>
   <time name="orth">    0.06    0.06</time>
   <time name="total">    1.83    1.84</time>
   <energy>
    <i name="e_fr_energy">    -88.94044225 </i>
    <i name="e_wo_entrp">    -88.93994328 </i>
    <i name="e_0_energy">    -88.94031751 </i>
   </energy>
  </scstep>
  <scstep>
   <time name="diag">    0.34    0.34</time>
   <time name="diis">    1.36    1.36</time>
   <time name="orth">    0.06    0.06</time>
   <time name="total">    1.90    1.91</time>
   <energy>
    <i name="e_fr_energy">    -88.82801215 </i>
    <i name="e_wo_entrp">    -88.82671048 </i>
    <i name="e_0_energy">    -88.82768673 </i>
   </energy>
  </scstep>
  <scstep>
   <time name="diag">    0.33    0.33</time>
   <time name="diis">    1.33    1.33</time>
   <time name="orth">    0.06    0.06</time>
   <time name="total">    1.87    1.87</time>
   <energy>
    <i name="e_fr_energy">    -88.80388360 </i>
    <i name="e_wo_entrp">    -88.80236007 </i>
    <i name="e_0_energy">    -88.80350272 </i>
   </energy>
  </scstep>
  <scstep>
   <time name="diag">    0.33    0.33</time>
   <time name="diis">    1.38    1.38</time>
   <time name="orth">    0.06    0.06</time>
   <time name="total">    1.91    1.92</time>
   <energy>
    <i name="e_fr_energy">    -88.80405912 </i>
    <i name="e_wo_entrp">    -88.80256860 </i>
    <i name="e_0_energy">    -88.80368649 </i>
   </energy>
  </scstep>
  <scstep>
   <time name="diag">    0.33    0.33</time>
   <time name="diis">    1.13    1.13</time>
   <time name="orth">    0.06    0.06</time>
   <time name="total">    1.66    1.66</time>
   <energy>
    <i name="e_fr_energy">    -88.80398606 </i>
    <i name="e_wo_entrp">    -88.80252017 </i>
    <i name="e_0_energy">    -88.80361959 </i>
   </energy>
  </scstep>
  <scstep>
   <time name="diag">    0.33    0.33</time>
   <time name="diis">    1.24    1.24</time>
   <time name="orth">    0.06    0.06</time>
   <time name="total">    1.65    1.65</time>
   <energy>
    <i name="alphaZ">     68.81614494 </i>
    <i name="ewald">  -2074.57880448 </i>
    <i name="hartreedc">   -662.74366116 </i>
    <i name="XCdc">     55.27732906 </i>
    <i name="pawpsdc">   6867.43276588 </i>
    <i name="pawaedc">  -6735.10892928 </i>
    <i name="eentropy">     -0.00144250 </i>
    <i name="bandstr">    -19.27337210 </i>
    <i name="atom">   2411.37598431 </i>
    <i name="e_fr_energy">    -88.80398531 </i>
    <i name="e_wo_entrp">    -88.80254281 </i>
    <i name="e_0_energy">    -88.80362469 </i>
   </energy>
  </scstep>
  <structure>
   <crystal>
    <varray name="basis" >
     <v>       4.18569662      -7.24983920      -0.00000000 </v>
     <v>       4.18569661       7.24983920       0.00000000 </v>
     <v>      -0.00000000      -0.00000000       2.91881185 </v>
    </varray>
    <i name="volume">    177.14635339 </i>
    <varray name="rec_basis" >
     <v>       0.11945443      -0.06896705      -0.00000000 </v>
     <v>       0.11945443       0.06896705       0.00000000 </v>
     <v>       0.00000000      -0.00000000       0.34260516 </v>
    </varray>
   </crystal>
   <varray name="positions" >
    <v>       0.21405332       0.82524190       0.75000000 </v>
    <v>       0.38881142       0.21405332       0.25000000 </v>
    <v>       0.82524190       0.61118858       0.25000000 </v>
    <v>       0.17475810       0.38881142       0.75000000 </v>
    <v>       0.61118858       0.78594668       0.75000000 </v>
    <v>       0.78594668       0.17475810       0.25000000 </v>
    <v>       0.33333333       0.66666667       0.75000000 </v>
    <v>       0.66666667       0.33333333       0.25000000 </v>
    <v>       0.96987856       0.65226184       0.75000000 </v>
    <v>       0.31761672       0.96987856       0.25000000 </v>
    <v>       0.65226184       0.68238328       0.25000000 </v>
    <v>       0.34773816       0.31761672       0.75000000 </v>
    <v>       0.03012144       0.34773816       0.25000000 </v>
    <v>       0.68238328       0.03012144       0.75000000 </v>
   </varray>
  </structure>
  <varray name="forces" >
   <v>      -0.45627365       2.17996504       0.00000000 </v>
   <v>      -2.11604193       0.69483794       0.00000000 </v>
   <v>       1.65976827       1.48512709       0.00000000 </v>
   <v>      -1.65976827      -1.48512709      -0.00000000 </v>
   <v>       2.11604193      -0.69483794      -0.00000000 </v>
   <v>       0.45627365      -2.17996504      -0.00000000 </v>
   <v>      -0.00000000      -0.00000000      -0.00000000 </v>
   <v>      -0.00000000      -0.00000000      -0.00000000 </v>
   <v>      -1.21812335      -2.31861352      -0.00000000 </v>
   <v>       1.39891654      -2.21423253      -0.00000000 </v>
   <v>      -2.61703989      -0.10438100      -0.00000000 </v>
   <v>       2.61703989       0.10438100       0.00000000 </v>
   <v>       1.21812335       2.31861352       0.00000000 </v>
   <v>      -1.39891654       2.21423253       0.00000000 </v>
  </varray>
  <varray name="stress" >
   <v>     -57.19011911       0.00000025       0.00000000 </v>
   <v>      -0.00000025     -57.19011911      -0.00000000 </v>
   <v>       0.00000000      -0.00000000    -100.49947023 </v>
  </varray>
  <energy>
   <i name="e_fr_energy">    -88.80398531 </i>
   <i name="e_wo_entrp">    -88.80362469 </i>
   <i name="e_0_energy">     -0.00144250 </i>
  </energy>
  <time name="totalsc">   16.55   16.57</time>
 </calculation>
 <calculation>
  <scstep>
   <time name="dav">    2.17    2.17</time>
   <time name="total">    2.30    2.31</time>
   <energy>
    <i name="alphaZ">     69.27925142 </i>
    <i name="ewald">  -2098.44001742 </i>
    <i name="hartreedc">   -648.23710845 </i>
    <i name="XCdc">     54.76506606 </i>
    <i name="pawpsdc">   6867.45146001 </i>
    <i name="pawaedc">  -6735.12732897 </i>
    <i name="eentropy">      0.00280028 </i>
    <i name="bandstr">    -12.87072254 </i>
    <i name="atom">   2411.37598431 </i>
    <i name="e_fr_energy">    -91.80061530 </i>
    <i name="e_wo_entrp">    -91.80341558 </i>
    <i name="e_0_energy">    -91.80131537 </i>
   </energy>
  </scstep>
  <scstep>
   <time name="diag">    0.33    0.33</time>
   <time name="diis">    1.29    1.29</time>
   <time name="orth">    0.06    0.06</time>
   <time name="total">    1.81    1.82</time>
   <energy>
    <i name="e_fr_energy">    -92.24865082 </i>
    <i name="e_wo_entrp">    -92.25131203 </i>
    <i name="e_0_energy">    -92.24931612 </i>
   </energy>
  </scstep>
  <scstep>
   <time name="diag">    0.33    0.33</time>
   <time name="diis">    1.35    1.35</time>
   <time name="orth">    0.06    0.06</time>
   <time name="total">    1.87    1.88</time>
   <energy>
    <i name="e_fr_energy">    -91.92703652 </i>
    <i name="e_wo_entrp">    -91.92964828 </i>
    <i name="e_0_energy">    -91.92768946 </i>
   </energy>
  </scstep>
  <scstep>
   <time name="diag">    0.33    0.33</time>
   <time name="diis">    1.31    1.31</time>
   <time name="orth">    0.06    0.06</time>
   <time name="total">    1.84    1.84</time>
   <energy>
    <i name="e_fr_energy">    -91.78613736 </i>
    <i name="e_wo_entrp">    -91.78849520 </i>
    <i name="e_0_energy">    -91.78672682 </i>
   </energy>
  </scstep>
  <scstep>
   <time name="diag">    0.33    0.33</time>
   <time name="diis">    1.34    1.34</time>
   <time name="orth">    0.06    0.06</time>
   <time name="total">    1.87    1.87</time>
   <energy>
    <i name="e_fr_energy">    -91.77984969 </i>
    <i name="e_wo_entrp">    -91.78140511 </i>
    <i name="e_0_energy">    -91.78023855 </i>
   </energy>
  </scstep>
  <scstep>
   <time name="diag">    0.33    0.33</time>
   <time name="diis">    1.39    1.39</time>
   <time name="orth">    0.06    0.06</time>
   <time name="total">    1.92    1.92</time>
   <energy>
    <i name="e_fr_energy">    -91.78111443 </i>
    <i name="e_wo_entrp">    -91.78279228 </i>
    <i name="e_0_energy">    -91.78153389 </i>
   </energy>
  </scstep>
  <scstep>
   <time name="diag">    0.33    0.33</time>
   <time name="diis">    1.29    1.29</time>
   <time name="orth">    0.06    0.06</time>
   <time name="total">    1.82    1.82</time>
   <energy>
    <i name="e_fr_energy">    -91.78340608 </i>
    <i name="e_wo_entrp">    -91.78504642 </i>
    <i name="e_0_energy">    -91.78381616 </i>
   </energy>
  </scstep>
  <scstep>
   <time name="diag">    0.33    0.33</time>
   <time name="diis">    0.91    0.91</time>
   <time name="orth">    0.06    0.06</time>
   <time name="total">    1.32    1.32</time>
   <energy>
    <i name="alphaZ">     69.27925142 </i>
    <i name="ewald">  -2098.44001742 </i>
    <i name="hartreedc">   -664.32253427 </i>
    <i name="XCdc">     55.16317815 </i>
    <i name="pawpsdc">   6537.50830168 </i>
    <i name="pawaedc">  -6405.17662331 </i>
    <i name="eentropy">      0.00161643 </i>
    <i name="bandstr">      2.82735026 </i>
    <i name="atom">   2411.37598431 </i>
    <i name="e_fr_energy">    -91.78349276 </i>
    <i name="e_wo_entrp">    -91.78510919 </i>
    <i name="e_0_energy">    -91.78389687 </i>
   </energy>
  </scstep>
  <structure>
   <crystal>
    <varray name="basis" >
     <v>       4.33040733      -7.50048551      -0.00000000 </v>
     <v>       4.33040732       7.50048551       0.00000000 </v>
     <v>      -0.00000000      -0.00000000       2.70876450 </v>
    </varray>
    <i name="volume">    175.96219477 </i>
    <varray name="rec_basis" >
     <v>       0.11546258      -0.06666235      -0.00000000 </v>
     <v>       0.11546258       0.06666235       0.00000000 </v>
     <v>       0.00000000      -0.00000000       0.36917200 </v>
    </varray>
   </crystal>
   <varray name="positions" >
    <v>       0.19677848       0.82631813       0.75000000 </v>
    <v>       0.37046034       0.19677848       0.25000000 </v>
    <v>       0.82631813       0.62953966       0.25000000 </v>
    <v>       0.17368187       0.37046034       0.75000000 </v>
    <v>       0.62953966       0.80322152       0.75000000 </v>
    <v>       0.80322152       0.17368187       0.25000000 </v>
    <v>       0.33333333       0.66666667       0.75000000 </v>
    <v>       0.66666667       0.33333333       0.25000000 </v>
    <v>       0.97075071       0.63157012       0.75000000 </v>
    <v>       0.33918059       0.97075071       0.25000000 </v>
    <v>       0.63157012       0.66081941       0.25000000 </v>
    <v>       0.36842988       0.33918059       0.75000000 </v>
    <v>       0.02924929       0.36842988       0.25000000 </v>
    <v>       0.66081941       0.02924929       0.75000000 </v>
   </varray>
  </structure>
  <varray name="forces" >
   <v>       1.15652407       0.85984700       0.00000000 </v>
   <v>      -0.16638731       1.43150273       0.00000000 </v>
   <v>       1.32291139      -0.57165573      -0.00000000 </v>
   <v>      -1.32291139       0.57165573       0.00000000 </v>
   <v>       0.16638731      -1.43150273      -0.00000000 </v>
   <v>      -1.15652407      -0.85984700      -0.00000000 </v>
   <v>       0.00000000      -0.00000000       0.00000000 </v>
   <v>       0.00000000       0.00000000      -0.00000000 </v>
   <v>      -0.71411632      -0.30600827      -0.00000000 </v>
   <v>      -0.09204722      -0.77144701      -0.00000000 </v>
   <v>      -0.62206910       0.46543874       0.00000000 </v>
   <v>       0.62206910      -0.46543874      -0.00000000 </v>
   <v>       0.71411632       0.30600827       0.00000000 </v>
   <v>       0.09204722       0.77144701       0.00000000 </v>
  </varray>
  <varray name="stress" >
   <v>    -251.36089781       0.00000061      -0.00000000 </v>
   <v>      -0.00000061    -251.36089781       0.00000000 </v>
   <v>       0.00000000       0.00000000      52.75651899 </v>
  </varray>
  <energy>
   <i name="e_fr_energy">    -91.78349276 </i>
   <i name="e_wo_entrp">    -91.78389687 </i>
   <i name="e_0_energy">      0.00161643 </i>
  </energy>
  <time name="totalsc">   18.21   18.24</time>
 </calculation>
 <calculation>
  <scstep>
   <time name="dav">    2.33    2.33</time>
   <time name="total">    2.47    2.47</time>
   <energy>
    <i name="alphaZ">     69.12480545 </i>
    <i name="ewald">  -2089.14878552 </i>
    <i name="hartreedc">   -668.57527240 </i>
    <i name="XCdc">     55.27068205 </i>
    <i name="pawpsdc">   6545.50543189 </i>
    <i name="pawaedc">  -6413.17237668 </i>
    <i name="eentropy">     -0.00253521 </i>
    <i name="bandstr">     -2.26313909 </i>
    <i name="atom">   2411.37598431 </i>
    <i name="e_fr_energy">    -91.88520520 </i>
    <i name="e_wo_entrp">    -91.88267000 </i>
    <i name="e_0_energy">    -91.88457140 </i>
   </energy>
  </scstep>
  <scstep>
   <time name="diag">    0.33    0.33</time>
   <time name="diis">    1.29    1.29</time>
   <time name="orth">    0.06    0.06</time>
   <time name="total">    1.83    1.83</time>
   <energy>
    <i name="e_fr_energy">    -91.85052077 </i>
    <i name="e_wo_entrp">    -91.84841690 </i>
    <i name="e_0_energy">    -91.84999480 </i>
   </energy>
  </scstep>
  <scstep>
   <time name="diag">    0.33    0.33</time>
   <time name="diis">    1.32    1.32</time>
   <time name="orth">    0.06    0.06</time>
   <time name="total">    1.84    1.85</time>
   <energy>
    <i name="e_fr_energy">    -91.82692109 </i>
    <i name="e_wo_entrp">    -91.82525822 </i>
    <i name="e_0_energy">    -91.82650537 </i>
   </energy>
  </scstep>
  <scstep>
   <time name="diag">    0.33    0.33</time>
   <time name="diis">    1.35    1.35</time>
   <time name="orth">    0.06    0.06</time>
   <time name="total">    1.89    1.89</time>
   <energy>
    <i name="e_fr_energy">    -91.82472488 </i>
    <i name="e_wo_entrp">    -91.82293129 </i>
    <i name="e_0_energy">    -91.82427648 </i>
   </energy>
  </scstep>
  <scstep>
   <time name="diag">    0.34    0.34</time>
   <time name="diis">    1.32    1.32</time>
   <time name="orth">    0.06    0.06</time>
   <time name="total">    1.85    1.85</time>
   <energy>
    <i name="e_fr_energy">    -91.82432632 </i>
    <i name="e_wo_entrp">    -91.82250129 </i>
    <i name="e_0_energy">    -91.82387006 </i>
   </energy>
  </scstep>
  <scstep>
   <time name="diag">    0.33    0.33</time>
   <time name="diis">    0.88    0.88</time>
   <time name="orth">    0.06    0.06</time>
   <time name="total">    1.28    1.29</time>
   <energy>
    <i name="alphaZ">     69.12480545 </i>
    <i name="ewald">  -2089.14878552 </i>
    <i name="hartreedc">   -669.69718241 </i>
    <i name="XCdc">     55.39316156 </i>
    <i name="pawpsdc">   6686.75060858 </i>
    <i name="pawaedc">  -6554.47861177 </i>
    <i name="eentropy">     -0.00178387 </i>
    <i name="bandstr">     -1.14249829 </i>
    <i name="atom">   2411.37598431 </i>
    <i name="e_fr_energy">    -91.82430195 </i>
    <i name="e_wo_entrp">    -91.82251808 </i>
    <i name="e_0_energy">    -91.82385598 </i>
   </energy>
  </scstep>
  <structure>
   <crystal>
    <varray name="basis" >
     <v>       4.29736417      -7.44325308      -0.00000000 </v>
     <v>       4.29736417       7.44325309       0.00000000 </v>
     <v>      -0.00000000      -0.00000000       2.75672658 </v>
    </varray>
    <i name="volume">    176.35534814 </i>
    <varray name="rec_basis" >
     <v>       0.11635039      -0.06717493      -0.00000000 </v>
     <v>       0.11635039       0.06717493       0.00000000 </v>
     <v>       0.00000000      -0.00000000       0.36274907 </v>
    </varray>
   </crystal>
   <varray name="positions" >
    <v>       0.20059119       0.82608060       0.75000000 </v>
    <v>       0.37451059       0.20059119       0.25000000 </v>
    <v>       0.82608060       0.62548941       0.25000000 </v>
    <v>       0.17391940       0.37451059       0.75000000 </v>
    <v>       0.62548941       0.79940881       0.75000000 </v>
    <v>       0.79940881       0.17391940       0.25000000 </v>
    <v>       0.33333333       0.66666667       0.75000000 </v>
    <v>       0.66666667       0.33333333       0.25000000 </v>
    <v>       0.97055822       0.63613696       0.75000000 </v>
    <v>       0.33442125       0.97055822       0.25000000 </v>
    <v>       0.63613696       0.66557875       0.25000000 </v>
    <v>       0.36386304       0.33442125       0.75000000 </v>
    <v>       0.02944178       0.36386304       0.25000000 </v>
    <v>       0.66557875       0.02944178       0.75000000 </v>
   </varray>
  </structure>
  <varray name="forces" >
   <v>       0.69888760       1.64401060       0.00000000 </v>
   <v>      -1.07431114       1.42725972       0.00000000 </v>
   <v>       1.77319875       0.21675088       0.00000000 </v>
   <v>      -1.77319875      -0.21675088      -0.00000000 </v>
   <v>       1.07431114      -1.42725972      -0.00000000 </v>
   <v>      -0.69888760      -1.64401060      -0.00000000 </v>
   <v>      -0.00000000      -0.00000000       0.00000000 </v>
   <v>      -0.00000000      -0.00000000      -0.00000000 </v>
   <v>      -0.96819382      -1.10979147      -0.00000000 </v>
   <v>       0.47701070      -1.39337618      -0.00000000 </v>
   <v>      -1.44520452       0.28358471       0.00000000 </v>
   <v>       1.44520452      -0.28358471      -0.00000000 </v>
   <v>       0.96819382       1.10979147       0.00000000 </v>
   <v>      -0.47701070       1.39337618       0.00000000 </v>
  </varray>
  <varray name="stress" >
   <v>    -189.14806701       0.00000055      -0.00000000 </v>
   <v>      -0.00000055    -189.14806701      -0.00000000 </v>
   <v>      -0.00000000       0.00000000      10.60762356 </v>
  </varray>
  <energy>
   <i name="e_fr_energy">    -91.82430195 </i>
   <i name="e_wo_entrp">    -91.82385598 </i>
   <i name="e_0_energy">     -0.00178387 </i>
  </energy>
  <time name="totalsc">   14.69   14.71</time>
 </calculation>
 <calculation>
  <scstep>
   <time name="dav">    2.18    2.18</time>
   <time name="total">    2.32    2.32</time>
   <energy>
    <i name="alphaZ">     72.77424476 </i>
    <i name="ewald">  -2154.05823203 </i>
    <i name="hartreedc">   -661.33663236 </i>
    <i name="XCdc">     58.04079365 </i>
    <i name="pawpsdc">   6691.87464211 </i>
    <i name="pawaedc">  -6559.60207700 </i>
    <i name="eentropy">     -0.00073613 </i>
    <i name="bandstr">     47.20692697 </i>
    <i name="atom">   2411.37598431 </i>
    <i name="e_fr_energy">    -93.72508571 </i>
    <i name="e_wo_entrp">    -93.72434958 </i>
    <i name="e_0_energy">    -93.72490168 </i>
   </energy>
  </scstep>
  <scstep>
   <time name="diag">    0.33    0.33</time>
   <time name="diis">    1.33    1.33</time>
   <time name="orth">    0.06    0.06</time>
   <time name="total">    1.85    1.86</time>
   <energy>
    <i name="e_fr_energy">    -93.42492417 </i>
    <i name="e_wo_entrp">    -93.42371674 </i>
    <i name="e_0_energy">    -93.42462232 </i>
   </energy>
  </scstep>
  <scstep>
   <time name="diag">    0.33    0.33</time>
   <time name="diis">    1.30    1.31</time>
   <time name="orth">    0.06    0.06</time>
   <time name="total">    1.83    1.83</time>
   <energy>
    <i name="e_fr_energy">    -93.36899642 </i>
    <i name="e_wo_entrp">    -93.36787788 </i>
    <i name="e_0_energy">    -93.36871678 </i>
   </energy>
  </scstep>
  <scstep>
   <time name="diag">    0.33    0.33</time>
   <time name="diis">    1.32    1.32</time>
   <time name="orth">    0.06    0.06</time>
   <time name="total">    1.84    1.85</time>
   <energy>
    <i name="e_fr_energy">    -93.35622771 </i>
    <i name="e_wo_entrp">    -93.35482022 </i>
    <i name="e_0_energy">    -93.35587584 </i>
   </energy>
  </scstep>
  <scstep>
   <time name="diag">    0.33    0.33</time>
   <time name="diis">    1.36    1.36</time>
   <time name="orth">    0.06    0.06</time>
   <time name="total">    1.88    1.88</time>
   <energy>
    <i name="e_fr_energy">    -93.35523772 </i>
    <i name="e_wo_entrp">    -93.35383338 </i>
    <i name="e_0_energy">    -93.35488664 </i>
   </energy>
  </scstep>
  <scstep>
   <time name="diag">    0.33    0.33</time>
   <time name="diis">    1.28    1.28</time>
   <time name="orth">    0.06    0.06</time>
   <time name="total">    1.81    1.81</time>
   <energy>
    <i name="e_fr_energy">    -93.35527675 </i>
    <i name="e_wo_entrp">    -93.35387618 </i>
    <i name="e_0_energy">    -93.35492661 </i>
   </energy>
  </scstep>
  <scstep>
   <time name="diag">    0.34    0.34</time>
   <time name="diis">    0.99    0.99</time>
   <time name="orth">    0.06    0.06</time>
   <time name="total">    1.41    1.41</time>
   <energy>
    <i name="alphaZ">     72.77424476 </i>
    <i name="ewald">  -2154.05823203 </i>
    <i name="hartreedc">   -639.46126516 </i>
    <i name="XCdc">     56.98176333 </i>
    <i name="pawpsdc">   7016.77453993 </i>
    <i name="pawaedc">  -6884.59294942 </i>
    <i name="eentropy">     -0.00141969 </i>
    <i name="bandstr">     26.85205601 </i>
    <i name="atom">   2411.37598431 </i>
    <i name="e_fr_energy">    -93.35527797 </i>
    <i name="e_wo_entrp">    -93.35385828 </i>
    <i name="e_0_energy">    -93.35492305 </i>
   </energy>
  </scstep>
  <structure>
   <crystal>
    <varray name="basis" >
     <v>       4.22216787      -7.31300927      -0.00000000 </v>
     <v>       4.22216787       7.31300927       0.00000000 </v>
     <v>      -0.00000000      -0.00000000       2.71258423 </v>
    </varray>
    <i name="volume">    167.51158561 </i>
    <varray name="rec_basis" >
     <v>       0.11842258      -0.06837131      -0.00000000 </v>
     <v>       0.11842258       0.06837131       0.00000000 </v>
     <v>       0.00000000      -0.00000000       0.36865215 </v>
    </varray>
   </crystal>
   <varray name="positions" >
    <v>       0.19582206       0.82975010       0.75000000 </v>
    <v>       0.36607196       0.19582206       0.25000000 </v>
    <v>       0.82975010       0.63392804       0.25000000 </v>
    <v>       0.17024990       0.36607196       0.75000000 </v>
    <v>       0.63392804       0.80417794       0.75000000 </v>
    <v>       0.80417794       0.17024990       0.25000000 </v>
    <v>       0.33333333       0.66666667       0.75000000 </v>
    <v>       0.66666667       0.33333333       0.25000000 </v>
    <v>       0.97009643       0.62772007       0.75000000 </v>
    <v>       0.34237636       0.97009643       0.25000000 </v>
    <v>       0.62772007       0.65762364       0.25000000 </v>
    <v>       0.37227993       0.34237636       0.75000000 </v>
    <v>       0.02990357       0.37227993       0.25000000 </v>
    <v>       0.65762364       0.02990357       0.75000000 </v>
   </varray>
  </structure>
  <varray name="forces" >
   <v>       0.94142713       0.58026462       0.00000000 </v>
   <v>      -0.03181034       1.10543212       0.00000000 </v>
   <v>       0.97323747      -0.52516750      -0.00000000 </v>
   <v>      -0.97323747       0.52516750       0.00000000 </v>
   <v>       0.03181034      -1.10543212      -0.00000000 </v>
   <v>      -0.94142713      -0.58026462      -0.00000000 </v>
   <v>       0.00000000       0.00000000       0.00000000 </v>
   <v>       0.00000000       0.00000000      -0.00000000 </v>
   <v>      -0.63421440      -0.38123647      -0.00000000 </v>
   <v>       0.01305326      -0.73986402      -0.00000000 </v>
   <v>      -0.64726767       0.35862755       0.00000000 </v>
   <v>       0.64726767      -0.35862755      -0.00000000 </v>
   <v>       0.63421440       0.38123647       0.00000000 </v>
   <v>      -0.01305326       0.73986402       0.00000000 </v>
  </varray>
  <varray name="stress" >
   <v>    -195.40336835       0.00000015       0.00000000 </v>
   <v>      -0.00000015    -195.40336835       0.00000000 </v>
   <v>       0.00000000      -0.00000000      57.78763673 </v>
  </varray>
  <energy>
   <i name="e_fr_energy">    -93.35527797 </i>
   <i name="e_wo_entrp">    -93.35492305 </i>
   <i name="e_0_energy">     -0.00141969 </i>
  </energy>
  <time name="totalsc">   16.52   16.55</time>
 </calculation>
 <calculation>
  <scstep>
   <time name="dav">    2.19    2.19</time>
   <time name="total">    2.33    2.33</time>
   <energy>
    <i name="alphaZ">     76.63037858 </i>
    <i name="ewald">  -2226.09678609 </i>
    <i name="hartreedc">   -626.96513974 </i>
    <i name="XCdc">     59.55730634 </i>
    <i name="pawpsdc">   7008.02437190 </i>
    <i name="pawaedc">  -6875.84261279 </i>
    <i name="eentropy">      0.00020121 </i>
    <i name="bandstr">     78.97633794 </i>
    <i name="atom">   2411.37598431 </i>
    <i name="e_fr_energy">    -94.33995836 </i>
    <i name="e_wo_entrp">    -94.34015957 </i>
    <i name="e_0_energy">    -94.34000867 </i>
   </energy>
  </scstep>
  <scstep>
   <time name="diag">    0.33    0.33</time>
   <time name="diis">    1.33    1.33</time>
   <time name="orth">    0.06    0.06</time>
   <time name="total">    1.86    1.86</time>
   <energy>
    <i name="e_fr_energy">    -93.97593255 </i>
    <i name="e_wo_entrp">    -93.97606432 </i>
    <i name="e_0_energy">    -93.97596549 </i>
   </energy>
  </scstep>
  <scstep>
   <time name="diag">    0.33    0.33</time>
   <time name="diis">    1.36    1.36</time>
   <time name="orth">    0.06    0.06</time>
   <time name="total">    1.89    1.89</time>
   <energy>
    <i name="e_fr_energy">    -93.90174494 </i>
    <i name="e_wo_entrp">    -93.90195755 </i>
    <i name="e_0_energy">    -93.90179809 </i>
   </energy>
  </scstep>
  <scstep>
   <time name="diag">    0.34    0.34</time>
   <time name="diis">    1.37    1.37</time>
   <time name="orth">    0.06    0.06</time>
   <time name="total">    1.90    1.90</time>
   <energy>
    <i name="e_fr_energy">    -93.88942446 </i>
    <i name="e_wo_entrp">    -93.88969908 </i>
    <i name="e_0_energy">    -93.88949312 </i>
   </energy>
  </scstep>
  <scstep>
   <time name="diag">    0.33    0.33</time>
   <time name="diis">    1.38    1.38</time>
   <time name="orth">    0.06    0.06</time>
   <time name="total">    1.91    1.91</time>
   <energy>
    <i name="e_fr_energy">    -93.88821035 </i>
    <i name="e_wo_entrp">    -93.88854406 </i>
    <i name="e_0_energy">    -93.88829378 </i>
   </energy>
  </scstep>
  <scstep>
   <time name="diag">    0.33    0.33</time>
   <time name="diis">    1.34    1.34</time>
   <time name="orth">    0.06    0.06</time>
   <time name="total">    1.75    1.75</time>
   <energy>
    <i name="alphaZ">     76.63037858 </i>
    <i name="ewald">  -2226.09678609 </i>
    <i name="hartreedc">   -603.59762724 </i>
    <i name="XCdc">     58.36287009 </i>
    <i name="pawpsdc">   7379.36033692 </i>
    <i name="pawaedc">  -7247.21399394 </i>
    <i name="eentropy">      0.00033705 </i>
    <i name="bandstr">     57.29030596 </i>
    <i name="atom">   2411.37598431 </i>
    <i name="e_fr_energy">    -93.88819437 </i>
    <i name="e_wo_entrp">    -93.88853141 </i>
    <i name="e_0_energy">    -93.88827863 </i>
   </energy>
  </scstep>
  <structure>
   <crystal>
    <varray name="basis" >
     <v>       4.14799172      -7.18453239      -0.00000000 </v>
     <v>       4.14799171       7.18453240       0.00000000 </v>
     <v>      -0.00000000      -0.00000000       2.66904074 </v>
    </varray>
    <i name="volume">    159.08219896 </i>
    <varray name="rec_basis" >
     <v>       0.12054026      -0.06959395      -0.00000000 </v>
     <v>       0.12054026       0.06959395       0.00000000 </v>
     <v>       0.00000000      -0.00000000       0.37466644 </v>
    </varray>
   </crystal>
   <varray name="positions" >
    <v>       0.19103385       0.83343429       0.75000000 </v>
    <v>       0.35759956       0.19103385       0.25000000 </v>
    <v>       0.83343429       0.64240044       0.25000000 </v>
    <v>       0.16656571       0.35759956       0.75000000 </v>
    <v>       0.64240044       0.80896615       0.75000000 </v>
    <v>       0.80896615       0.16656571       0.25000000 </v>
    <v>       0.33333333       0.66666667       0.75000000 </v>
    <v>       0.66666667       0.33333333       0.25000000 </v>
    <v>       0.96963279       0.61926948       0.75000000 </v>
    <v>       0.35036331       0.96963279       0.25000000 </v>
    <v>       0.61926948       0.64963669       0.25000000 </v>
    <v>       0.38073052       0.35036331       0.75000000 </v>
    <v>       0.03036721       0.38073052       0.25000000 </v>
    <v>       0.64963669       0.03036721       0.75000000 </v>
   </varray>
  </structure>
  <varray name="forces" >
   <v>       1.11274694      -0.69325861      -0.00000000 </v>
   <v>       1.15675304       0.61703781       0.00000000 </v>
   <v>      -0.04400610      -1.31029643      -0.00000000 </v>
   <v>       0.04400610       1.31029643       0.00000000 </v>
   <v>      -1.15675304      -0.61703781      -0.00000000 </v>
   <v>      -1.11274694       0.69325861       0.00000000 </v>
   <v>      -0.00000000       0.00000000       0.00000000 </v>
   <v>      -0.00000000       0.00000000      -0.00000000 </v>
   <v>      -0.09486979       0.73882366       0.00000000 </v>
   <v>      -0.68727495       0.28725218       0.00000000 </v>
   <v>       0.59240516       0.45157148       0.00000000 </v>
   <v>      -0.59240516      -0.45157148      -0.00000000 </v>
   <v>       0.09486979      -0.73882366      -0.00000000 </v>
   <v>       0.68727495      -0.28725218      -0.00000000 </v>
  </varray>
  <varray name="stress" >
   <v>    -177.76213449      -0.00000004       0.00000000 </v>
   <v>       0.00000004    -177.76213449      -0.00000000 </v>
   <v>       0.00000000       0.00000000     123.79681400 </v>
  </varray>
  <energy>
   <i name="e_fr_energy">    -93.88819437 </i>
   <i name="e_wo_entrp">    -93.88827863 </i>
   <i name="e_0_energy">      0.00033705 </i>
  </energy>
  <time name="totalsc">   15.34   15.36</time>
 </calculation>
 <calculation>
  <scstep>
   <time name="dav">    2.51    2.51</time>
   <time name="total">    2.65    2.65</time>
   <energy>
    <i name="alphaZ">     80.58351901 </i>
    <i name="ewald">  -2274.28392201 </i>
    <i name="hartreedc">   -606.44425467 </i>
    <i name="XCdc">     61.46997352 </i>
    <i name="pawpsdc">   7347.50274219 </i>
    <i name="pawaedc">  -7215.36028079 </i>
    <i name="eentropy">     -0.00189735 </i>
    <i name="bandstr">     99.93900809 </i>
    <i name="atom">   2411.37598431 </i>
    <i name="e_fr_energy">    -95.21912771 </i>
    <i name="e_wo_entrp">    -95.21723036 </i>
    <i name="e_0_energy">    -95.21865337 </i>
   </energy>
  </scstep>
  <scstep>
   <time name="diag">    0.34    0.34</time>
   <time name="diis">    1.36    1.36</time>
   <time name="orth">    0.06    0.06</time>
   <time name="total">    1.89    1.89</time>
   <energy>
    <i name="e_fr_energy">    -94.86521865 </i>
    <i name="e_wo_entrp">    -94.86522473 </i>
    <i name="e_0_energy">    -94.86522017 </i>
   </energy>
  </scstep>
  <scstep>
   <time name="diag">    0.34    0.34</time>
   <time name="diis">    1.37    1.37</time>
   <time name="orth">    0.06    0.06</time>
   <time name="total">    1.90    1.91</time>
   <energy>
    <i name="e_fr_energy">    -94.78679469 </i>
    <i name="e_wo_entrp">    -94.78654908 </i>
    <i name="e_0_energy">    -94.78673328 </i>
   </energy>
  </scstep>
  <scstep>
   <time name="diag">    0.34    0.34</time>
   <time name="diis">    1.36    1.36</time>
   <time name="orth">    0.06    0.06</time>
   <time name="total">    1.89    1.89</time>
   <energy>
    <i name="e_fr_energy">    -94.76729313 </i>
    <i name="e_wo_entrp">    -94.76658685 </i>
    <i name="e_0_energy">    -94.76711656 </i>
   </energy>
  </scstep>
  <scstep>
   <time name="diag">    0.35    0.35</time>
   <time name="diis">    1.39    1.39</time>
   <time name="orth">    0.06    0.06</time>
   <time name="total">    1.93    1.94</time>
   <energy>
    <i name="e_fr_energy">    -94.76694015 </i>
    <i name="e_wo_entrp">    -94.76637049 </i>
[...]
       <r>   11.6911    0.0000 </r>
       <r>   12.4590    0.0000 </r>
       <r>   12.8989    0.0000 </r>
       <r>   13.1431    0.0000 </r>
       <r>   13.2960    0.0000 </r>
      </set>
      <set comment="kpoint 71">
       <r>   -7.8278    1.0000 </r>
       <r>   -7.6763    1.0000 </r>
       <r>   -7.4065    1.0000 </r>
       <r>   -7.3130    1.0000 </r>
       <r>   -7.2021    1.0000 </r>
       <r>   -7.1657    1.0000 </r>
       <r>   -1.4892    1.0000 </r>
       <r>   -1.3432    1.0000 </r>
       <r>   -0.7578    1.0000 </r>
       <r>   -0.5189    1.0000 </r>
       <r>   -0.2752    1.0000 </r>
       <r>    0.0346    1.0000 </r>
       <r>    0.8146    1.0000 </r>
       <r>    1.3292    1.0000 </r>
       <r>    1.4639    1.0000 </r>
       <r>    1.6624    1.0000 </r>
       <r>    1.8033    1.0000 </r>
       <r>    1.9847    1.0000 </r>
       <r>    2.5309    1.0000 </r>
       <r>    2.7762    1.0000 </r>
       <r>    4.2405    1.0000 </r>
       <r>    4.3269    1.0000 </r>
       <r>    4.4615    1.0000 </r>
       <r>    4.6684    1.0000 </r>
       <r>    5.6791    1.0000 </r>
       <r>    5.9032    1.0000 </r>
       <r>    6.1925    1.0000 </r>
       <r>    6.3559    1.0000 </r>
       <r>    6.8921    1.0000 </r>
       <r>    7.2652    1.0000 </r>
       <r>    8.7023    1.0000 </r>
       <r>    8.9398    1.0000 </r>
       <r>   10.5344    0.0000 </r>
       <r>   10.7651    0.0000 </r>
       <r>   11.4130    0.0000 </r>
       <r>   11.8879    0.0000 </r>
       <r>   12.3531    0.0000 </r>
       <r>   12.8192    0.0000 </r>
       <r>   13.2114    0.0000 </r>
       <r>   13.3568    0.0000 </r>
      </set>
      <set comment="kpoint 72">
       <r>   -7.7765    1.0000 </r>
       <r>   -7.7177    1.0000 </r>
       <r>   -7.4428    1.0000 </r>
       <r>   -7.2748    1.0000 </r>
       <r>   -7.2287    1.0000 </r>
       <r>   -7.1554    1.0000 </r>
       <r>   -1.5047    1.0000 </r>
       <r>   -1.4463    1.0000 </r>
       <r>   -0.5665    1.0000 </r>
       <r>   -0.3871    1.0000 </r>
       <r>   -0.3255    1.0000 </r>
       <r>    0.0312    1.0000 </r>
       <r>    0.7943    1.0000 </r>
       <r>    1.2511    1.0000 </r>
       <r>    1.5408    1.0000 </r>
       <r>    1.5896    1.0000 </r>
       <r>    1.7779    1.0000 </r>
       <r>    1.8480    1.0000 </r>
       <r>    2.6161    1.0000 </r>
       <r>    2.7293    1.0000 </r>
       <r>    4.2733    1.0000 </r>
       <r>    4.2892    1.0000 </r>
       <r>    4.3711    1.0000 </r>
       <r>    4.7000    1.0000 </r>
       <r>    5.7540    1.0000 </r>
       <r>    5.8471    1.0000 </r>
       <r>    6.1348    1.0000 </r>
       <r>    6.2183    1.0000 </r>
       <r>    7.1273    1.0000 </r>
       <r>    7.5172    1.0000 </r>
       <r>    8.8084    1.0000 </r>
       <r>    8.8396    1.0000 </r>
       <r>   10.5942    0.0000 </r>
       <r>   10.6838    0.0000 </r>
       <r>   11.2573    0.0000 </r>
       <r>   11.6327    0.0000 </r>
       <r>   12.6204    0.0000 </r>
       <r>   12.9453    0.0000 </r>
       <r>   13.0814    0.0000 </r>
       <r>   13.2101    0.0000 </r>
      </set>
     </set>
    </set>
   </array>
  </eigenvalues>
  <separator name="orbital magnetization" >
   <v name="MAGDIPOLOUT">      0.00000000      0.00000000      0.00000000</v>
  </separator>
  <dos>
   <i name="efermi">     10.03671422 </i>
   <total>
    <array>
     <dimension dim="1">gridpoints</dimension>
     <dimension dim="2">spin</dimension>
     <field>energy</field>
     <field>total</field>
     <field>integrated</field>
     <set>
      <set comment="spin 1">
       <r>   -11.4501     0.0000     0.0000 </r>
       <r>   -11.3565     0.0000     0.0000 </r>
       <r>   -11.2629     0.0000     0.0000 </r>
       <r>   -11.1693     0.0000     0.0000 </r>
       <r>   -11.0757     0.0000     0.0000 </r>
       <r>   -10.9821     0.0000     0.0000 </r>
       <r>   -10.8885     0.0000     0.0000 </r>
       <r>   -10.7949     0.0000     0.0000 </r>
       <r>   -10.7013     0.0000     0.0000 </r>
       <r>   -10.6077     0.0000     0.0000 </r>
       <r>   -10.5141     0.0000     0.0000 </r>
       <r>   -10.4205     0.0002     0.0000 </r>
       <r>   -10.3270     0.0016     0.0002 </r>
       <r>   -10.2334    -0.0123    -0.0010 </r>
       <r>   -10.1398     0.1117     0.0095 </r>
       <r>   -10.0462     0.6204     0.0675 </r>
       <r>    -9.9526     0.8496     0.1471 </r>
       <r>    -9.8590     1.2862     0.2674 </r>
       <r>    -9.7654     1.4110     0.3995 </r>
       <r>    -9.6718     1.4695     0.5370 </r>
       <r>    -9.5782     1.7450     0.7004 </r>
       <r>    -9.4846     2.0309     0.8904 </r>
       <r>    -9.3910     2.3797     1.1132 </r>
       <r>    -9.2974     2.0800     1.3079 </r>
       <r>    -9.2038     3.5325     1.6385 </r>
       <r>    -9.1102     3.4224     1.9588 </r>
       <r>    -9.0166     3.8732     2.3213 </r>
       <r>    -8.9230     2.9587     2.5982 </r>
       <r>    -8.8294     2.1975     2.8039 </r>
       <r>    -8.7358     2.4686     3.0350 </r>
       <r>    -8.6422     3.1969     3.3342 </r>
       <r>    -8.5486     4.0153     3.7100 </r>
       <r>    -8.4550     3.7601     4.0619 </r>
       <r>    -8.3614     4.0716     4.4430 </r>
       <r>    -8.2678     4.4288     4.8575 </r>
       <r>    -8.1743     6.0685     5.4255 </r>
       <r>    -8.0807     5.0381     5.8970 </r>
       <r>    -7.9871     4.5395     6.3219 </r>
       <r>    -7.8935     5.5684     6.8431 </r>
       <r>    -7.7999     5.1961     7.3294 </r>
       <r>    -7.7063     5.9110     7.8827 </r>
       <r>    -7.6127     9.0698     8.7316 </r>
       <r>    -7.5191     4.9075     9.1909 </r>
       <r>    -7.4255     4.5669     9.6183 </r>
       <r>    -7.3319     6.8005    10.2548 </r>
       <r>    -7.2383     5.6966    10.7880 </r>
       <r>    -7.1447     8.0846    11.5447 </r>
       <r>    -7.0511     3.6982    11.8908 </r>
       <r>    -6.9575     1.2625    12.0090 </r>
       <r>    -6.8639    -0.1081    11.9989 </r>
       <r>    -6.7703     0.0098    11.9998 </r>
       <r>    -6.6767     0.0021    12.0000 </r>
       <r>    -6.5831     0.0000    12.0000 </r>
       <r>    -6.4895     0.0000    12.0000 </r>
       <r>    -6.3959     0.0000    12.0000 </r>
       <r>    -6.3023     0.0000    12.0000 </r>
       <r>    -6.2087     0.0000    12.0000 </r>
       <r>    -6.1151     0.0000    12.0000 </r>
       <r>    -6.0216     0.0000    12.0000 </r>
       <r>    -5.9280     0.0000    12.0000 </r>
       <r>    -5.8344     0.0000    12.0000 </r>
       <r>    -5.7408     0.0000    12.0000 </r>
       <r>    -5.6472     0.0000    12.0000 </r>
       <r>    -5.5536     0.0000    12.0000 </r>
       <r>    -5.4600     0.0000    12.0000 </r>
       <r>    -5.3664     0.0000    12.0000 </r>
       <r>    -5.2728     0.0000    12.0000 </r>
       <r>    -5.1792     0.0000    12.0000 </r>
       <r>    -5.0856     0.0000    12.0000 </r>
       <r>    -4.9920     0.0000    12.0000 </r>
       <r>    -4.8984     0.0000    12.0000 </r>
       <r>    -4.8048     0.0000    12.0000 </r>
       <r>    -4.7112     0.0000    12.0000 </r>
       <r>    -4.6176     0.0000    12.0000 </r>
       <r>    -4.5240     0.0000    12.0000 </r>
       <r>    -4.4304     0.0000    12.0000 </r>
       <r>    -4.3368     0.0000    12.0000 </r>
       <r>    -4.2432     0.0000    12.0000 </r>
       <r>    -4.1496     0.0000    12.0000 </r>
       <r>    -4.0560     0.0000    12.0000 </r>
       <r>    -3.9625     0.0000    12.0000 </r>
       <r>    -3.8689     0.0000    12.0000 </r>
       <r>    -3.7753     0.0000    12.0000 </r>
       <r>    -3.6817     0.0000    12.0000 </r>
       <r>    -3.5881     0.0000    12.0000 </r>
       <r>    -3.4945     0.0000    12.0000 </r>
       <r>    -3.4009     0.0000    12.0000 </r>
       <r>    -3.3073     0.0000    12.0000 </r>
       <r>    -3.2137     0.0007    12.0001 </r>
       <r>    -3.1201     0.0002    12.0001 </r>
       <r>    -3.0265    -0.0119    11.9990 </r>
       <r>    -2.9329     0.3028    12.0273 </r>
       <r>    -2.8393     0.8900    12.1106 </r>
       <r>    -2.7457     1.2497    12.2276 </r>
       <r>    -2.6521     0.8228    12.3046 </r>
       <r>    -2.5585     1.3123    12.4274 </r>
       <r>    -2.4649     0.8140    12.5036 </r>
       <r>    -2.3713     0.6432    12.5638 </r>
       <r>    -2.2777     1.3476    12.6899 </r>
       <r>    -2.1841     0.9606    12.7798 </r>
       <r>    -2.0905     0.2943    12.8074 </r>
       <r>    -1.9969     0.9618    12.8974 </r>
       <r>    -1.9033     2.0364    13.0880 </r>
       <r>    -1.8098     2.5703    13.3286 </r>
       <r>    -1.7162     2.5947    13.5714 </r>
       <r>    -1.6226     1.7536    13.7355 </r>
       <r>    -1.5290     2.6749    13.9859 </r>
       <r>    -1.4354     4.9061    14.4451 </r>
       <r>    -1.3418     6.7408    15.0760 </r>
       <r>    -1.2482     5.4549    15.5866 </r>
       <r>    -1.1546     5.0490    16.0591 </r>
       <r>    -1.0610     4.3237    16.4638 </r>
       <r>    -0.9674     3.8922    16.8281 </r>
       <r>    -0.8738     2.6655    17.0776 </r>
       <r>    -0.7802     3.4073    17.3965 </r>
       <r>    -0.6866     4.7023    17.8366 </r>
       <r>    -0.5930     4.4646    18.2545 </r>
       <r>    -0.4994     5.5763    18.7764 </r>
       <r>    -0.4058     5.0727    19.2512 </r>
       <r>    -0.3122     4.1187    19.6367 </r>
       <r>    -0.2186     4.8612    20.0916 </r>
       <r>    -0.1250     4.6459    20.5265 </r>
       <r>    -0.0314     4.3244    20.9312 </r>
       <r>     0.0622     6.2734    21.5184 </r>
       <r>     0.1558     4.5378    21.9431 </r>
       <r>     0.2494     1.0431    22.0408 </r>
       <r>     0.3429     1.9221    22.2206 </r>
       <r>     0.4365     3.2308    22.5230 </r>
       <r>     0.5301     4.7816    22.9706 </r>
       <r>     0.6237     3.0904    23.2598 </r>
       <r>     0.7173     5.3499    23.7606 </r>
       <r>     0.8109     6.5546    24.3740 </r>
       <r>     0.9045     3.5131    24.7028 </r>
       <r>     0.9981     2.8775    24.9722 </r>
       <r>     1.0917     2.6029    25.2158 </r>
       <r>     1.1853     2.9313    25.4901 </r>
       <r>     1.2789     4.5732    25.9182 </r>
       <r>     1.3725     3.8538    26.2789 </r>
       <r>     1.4661     4.0033    26.6536 </r>
       <r>     1.5597     6.9918    27.3080 </r>
       <r>     1.6533     5.3954    27.8129 </r>
       <r>     1.7469     4.0501    28.1920 </r>
       <r>     1.8405     8.1377    28.9537 </r>
       <r>     1.9341     6.3501    29.5480 </r>
       <r>     2.0277     4.9656    30.0128 </r>
       <r>     2.1213     3.5780    30.3477 </r>
       <r>     2.2149     3.0797    30.6359 </r>
       <r>     2.3085     4.9461    31.0988 </r>
       <r>     2.4020     5.7420    31.6363 </r>
       <r>     2.4956     5.4790    32.1491 </r>
       <r>     2.5892     5.6511    32.6780 </r>
       <r>     2.6828     5.1827    33.1631 </r>
       <r>     2.7764     7.1914    33.8362 </r>
       <r>     2.8700     7.5537    34.5431 </r>
       <r>     2.9636     4.2843    34.9441 </r>
       <r>     3.0572     5.0828    35.4199 </r>
       <r>     3.1508     5.8695    35.9692 </r>
       <r>     3.2444     4.2074    36.3630 </r>
       <r>     3.3380     3.7175    36.7110 </r>
       <r>     3.4316     4.8836    37.1680 </r>
       <r>     3.5252     5.7831    37.7093 </r>
       <r>     3.6188     4.5917    38.1391 </r>
       <r>     3.7124     4.6860    38.5777 </r>
       <r>     3.8060     4.5951    39.0077 </r>
       <r>     3.8996     6.3418    39.6013 </r>
       <r>     3.9932     5.3722    40.1041 </r>
       <r>     4.0868     4.1258    40.4903 </r>
       <r>     4.1804     3.8775    40.8532 </r>
       <r>     4.2740     6.1564    41.4294 </r>
       <r>     4.3676     8.2525    42.2018 </r>
       <r>     4.4612     7.8684    42.9383 </r>
       <r>     4.5547     9.6711    43.8434 </r>
       <r>     4.6483     9.6738    44.7489 </r>
       <r>     4.7419     9.4833    45.6364 </r>
       <r>     4.8355     6.3094    46.2270 </r>
       <r>     4.9291     4.3378    46.6330 </r>
       <r>     5.0227     2.7592    46.8912 </r>
       <r>     5.1163     1.8096    47.0606 </r>
       <r>     5.2099     3.0887    47.3497 </r>
       <r>     5.3035     3.2657    47.6553 </r>
       <r>     5.3971     2.1267    47.8544 </r>
       <r>     5.4907     1.6258    48.0066 </r>
       <r>     5.5843     2.5096    48.2414 </r>
       <r>     5.6779     3.4388    48.5633 </r>
       <r>     5.7715     4.8793    49.0200 </r>
       <r>     5.8651     4.7806    49.4674 </r>
       <r>     5.9587     6.7800    50.1020 </r>
       <r>     6.0523     5.2716    50.5954 </r>
       <r>     6.1459     4.6095    51.0268 </r>
       <r>     6.2395     5.8068    51.5703 </r>
       <r>     6.3331     7.5418    52.2762 </r>
       <r>     6.4267     7.6945    52.9964 </r>
       <r>     6.5203     5.7829    53.5376 </r>
       <r>     6.6139     5.0883    54.0139 </r>
       <r>     6.7074     3.2457    54.3177 </r>
       <r>     6.8010     4.9427    54.7803 </r>
       <r>     6.8946     4.3253    55.1851 </r>
       <r>     6.9882     1.2975    55.3065 </r>
       <r>     7.0818     1.3996    55.4375 </r>
       <r>     7.1754     1.1185    55.5422 </r>
       <r>     7.2690     2.3082    55.7583 </r>
       <r>     7.3626     1.8031    55.9270 </r>
       <r>     7.4562     2.2348    56.1362 </r>
       <r>     7.5498     2.1774    56.3400 </r>
       <r>     7.6434     1.3491    56.4663 </r>
       <r>     7.7370     2.5435    56.7043 </r>
       <r>     7.8306     3.8751    57.0670 </r>
       <r>     7.9242     3.0747    57.3548 </r>
       <r>     8.0178     2.8562    57.6221 </r>
       <r>     8.1114     3.2892    57.9300 </r>
       <r>     8.2050     0.2481    57.9532 </r>
       <r>     8.2986     1.3354    58.0782 </r>
       <r>     8.3922     2.5005    58.3122 </r>
       <r>     8.4858     3.5195    58.6416 </r>
       <r>     8.5794     2.6006    58.8850 </r>
       <r>     8.6730     0.6429    58.9452 </r>
       <r>     8.7665     1.8655    59.1198 </r>
       <r>     8.8601     2.8477    59.3863 </r>
       <r>     8.9537     2.0151    59.5749 </r>
       <r>     9.0473     1.1752    59.6849 </r>
       <r>     9.1409     1.4230    59.8181 </r>
       <r>     9.2345     2.8136    60.0815 </r>
       <r>     9.3281     1.7971    60.2496 </r>
       <r>     9.4217     1.2461    60.3663 </r>
       <r>     9.5153     1.8737    60.5416 </r>
       <r>     9.6089     1.2302    60.6568 </r>
       <r>     9.7025     2.4867    60.8895 </r>
       <r>     9.7961     4.6464    61.3244 </r>
       <r>     9.8897     3.1111    61.6156 </r>
       <r>     9.9833     3.1263    61.9082 </r>
       <r>    10.0769     1.7535    62.0723 </r>
       <r>    10.1705     2.5835    62.3141 </r>
       <r>    10.2641     1.7860    62.4813 </r>
       <r>    10.3577     1.5446    62.6259 </r>
       <r>    10.4513     2.8152    62.8894 </r>
       <r>    10.5449     3.5851    63.2249 </r>
       <r>    10.6385     3.3966    63.5428 </r>
       <r>    10.7321     2.9482    63.8187 </r>
       <r>    10.8257     2.7641    64.0775 </r>
       <r>    10.9192     2.7179    64.3318 </r>
       <r>    11.0128     4.2741    64.7319 </r>
       <r>    11.1064     4.8700    65.1877 </r>
       <r>    11.2000     4.9874    65.6545 </r>
       <r>    11.2936     5.5938    66.1780 </r>
       <r>    11.3872     3.2259    66.4800 </r>
       <r>    11.4808     3.2661    66.7857 </r>
       <r>    11.5744     2.9324    67.0601 </r>
       <r>    11.6680     2.5985    67.3033 </r>
       <r>    11.7616     3.1057    67.5940 </r>
       <r>    11.8552     2.7390    67.8504 </r>
       <r>    11.9488     2.9683    68.1282 </r>
       <r>    12.0424     2.3188    68.3452 </r>
       <r>    12.1360     3.7237    68.6937 </r>
       <r>    12.2296     5.5480    69.2130 </r>
       <r>    12.3232     4.6725    69.6503 </r>
       <r>    12.4168     3.7243    69.9989 </r>
       <r>    12.5104     3.4843    70.3250 </r>
       <r>    12.6040     2.5898    70.5674 </r>
       <r>    12.6976     2.3461    70.7870 </r>
       <r>    12.7912     2.8255    71.0514 </r>
       <r>    12.8848     5.1346    71.5320 </r>
       <r>    12.9784     4.7470    71.9763 </r>
       <r>    13.0719     5.5264    72.4936 </r>
       <r>    13.1655     8.0741    73.2493 </r>
       <r>    13.2591     6.8590    73.8912 </r>
       <r>    13.3527     6.4903    74.4987 </r>
       <r>    13.4463     6.1202    75.0715 </r>
       <r>    13.5399     5.4448    75.5811 </r>
       <r>    13.6335     3.9381    75.9497 </r>
       <r>    13.7271     2.8688    76.2182 </r>
       <r>    13.8207     3.6564    76.5605 </r>
       <r>    13.9143     2.0007    76.7477 </r>
       <r>    14.0079     4.1502    77.1362 </r>
       <r>    14.1015     5.2868    77.6310 </r>
       <r>    14.1951     3.2722    77.9372 </r>
       <r>    14.2887     3.8308    78.2958 </r>
       <r>    14.3823     3.9439    78.6649 </r>
       <r>    14.4759     2.4188    78.8913 </r>
       <r>    14.5695     3.6719    79.2350 </r>
       <r>    14.6631     1.8642    79.4095 </r>
       <r>    14.7567     1.9861    79.5954 </r>
       <r>    14.8503     1.9147    79.7746 </r>
       <r>    14.9439     0.6986    79.8400 </r>
       <r>    15.0375     1.0791    79.9410 </r>
       <r>    15.1310     0.3707    79.9756 </r>
       <r>    15.2246     0.1951    79.9939 </r>
       <r>    15.3182     0.0463    79.9982 </r>
       <r>    15.4118     0.0175    79.9999 </r>
       <r>    15.5054     0.0015    80.0000 </r>
       <r>    15.5990    -0.0003    80.0000 </r>
       <r>    15.6926     0.0001    80.0000 </r>
       <r>    15.7862     0.0000    80.0000 </r>
       <r>    15.8798     0.0000    80.0000 </r>
       <r>    15.9734     0.0000    80.0000 </r>
       <r>    16.0670     0.0000    80.0000 </r>
       <r>    16.1606     0.0000    80.0000 </r>
       <r>    16.2542     0.0000    80.0000 </r>
       <r>    16.3478     0.0000    80.0000 </r>
       <r>    16.4414     0.0000    80.0000 </r>
       <r>    16.5350     0.0000    80.0000 </r>
       <r>    16.6286     0.0000    80.0000 </r>
      </set>
     </set>
    </array>
   </total>
  </dos>
 </calculation>
 <structure name="finalpos" >
  <crystal>
   <varray name="basis" >
    <v>       3.98102783      -6.89534246      -0.00000000 </v>
    <v>       3.98102782       6.89534247       0.00000000 </v>
    <v>      -0.00000000      -0.00000000       2.80049448 </v>
   </varray>
   <i name="volume">    153.75022914 </i>
   <varray name="rec_basis" >
    <v>       0.12559571      -0.07251271      -0.00000000 </v>
    <v>       0.12559571       0.07251271       0.00000000 </v>
    <v>      -0.00000000      -0.00000000       0.35707980 </v>
   </varray>
  </crystal>
  <varray name="positions" >
   <v>       0.19708959       0.83151770       0.75000000 </v>
   <v>       0.36557189       0.19708959       0.25000000 </v>
   <v>       0.83151770       0.63442811       0.25000000 </v>
   <v>       0.16848230       0.36557189       0.75000000 </v>
   <v>       0.63442811       0.80291041       0.75000000 </v>
   <v>       0.80291041       0.16848230       0.25000000 </v>
   <v>       0.33333333       0.66666667       0.75000000 </v>
   <v>       0.66666667       0.33333333       0.25000000 </v>
   <v>       0.96358754       0.61246345       0.75000000 </v>
   <v>       0.35112409       0.96358754       0.25000000 </v>
   <v>       0.61246345       0.64887591       0.25000000 </v>
   <v>       0.38753655       0.35112409       0.75000000 </v>
   <v>       0.03641246       0.38753655       0.25000000 </v>
   <v>       0.64887591       0.03641246       0.75000000 </v>
  </varray>
 </structure>
</modeling>
