unknown system                          
           1
     3.802272   -6.585729    0.000000
     3.802272    6.585729    0.000000
     0.000000    0.000000    2.905199
   Si   N 
   6   8
Direct configuration=     1
   0.23108243  0.82494615  0.75000000
   0.40613628  0.23108243  0.25000000
   0.82494615  0.59386372  0.25000000
   0.17505385  0.40613628  0.75000000
   0.59386372  0.76891757  0.75000000
   0.76891757  0.17505385  0.25000000
   0.33333333  0.66666667  0.75000000
   0.66666667  0.33333333  0.25000000
   0.96919449  0.66985340  0.75000000
   0.29934109  0.96919449  0.25000000
   0.66985340  0.70065891  0.25000000
   0.33014660  0.29934109  0.75000000
   0.03080551  0.33014660  0.25000000
   0.70065891  0.03080551  0.75000000
unknown system                          
           1
     4.313675   -7.471504    0.000000
     4.313675    7.471504    0.000000
    -0.000000    0.000000    3.122588
   Si   N 
   6   8
Direct configuration=     2
   0.21964910  0.82446700  0.75000000
   0.39518210  0.21964910  0.25000000
   0.82446700  0.60481790  0.25000000
   0.17553300  0.39518210  0.75000000
   0.60481790  0.78035090  0.75000000
   0.78035090  0.17553300  0.25000000
   0.33333333  0.66666667  0.75000000
   0.66666667  0.33333333  0.25000000
   0.96949817  0.66052753  0.75000000
   0.30897064  0.96949817  0.25000000
   0.66052753  0.69102936  0.25000000
   0.33947247  0.30897064  0.75000000
   0.03050183  0.33947247  0.25000000
   0.69102936  0.03050183  0.75000000
unknown system                          
           1
     4.106097   -7.111969    0.000000
     4.106097    7.111969    0.000000
    -0.000000    0.000000    3.034350
   Si   N 
   6   8
Direct configuration=     3
   0.22373969  0.82463843  0.75000000
   0.39910126  0.22373969  0.25000000
   0.82463843  0.60089874  0.25000000
   0.17536157  0.39910126  0.75000000
   0.60089874  0.77626031  0.75000000
   0.77626031  0.17536157  0.25000000
   0.33333333  0.66666667  0.75000000
   0.66666667  0.33333333  0.25000000
   0.96938952  0.66386412  0.75000000
   0.30552541  0.96938952  0.25000000
   0.66386412  0.69447459  0.25000000
   0.33613588  0.30552541  0.75000000
   0.03061048  0.33613588  0.25000000
   0.69447459  0.03061048  0.75000000
unknown system                          
           1
     4.185697   -7.249839   -0.000000
     4.185697    7.249839    0.000000
    -0.000000   -0.000000    2.918812
   Si   N 
   6   8
Direct configuration=     4
   0.21405332  0.82524190  0.75000000
   0.38881142  0.21405332  0.25000000
   0.82524190  0.61118858  0.25000000
   0.17475810  0.38881142  0.75000000
   0.61118858  0.78594668  0.75000000
   0.78594668  0.17475810  0.25000000
   0.33333333  0.66666667  0.75000000
   0.66666667  0.33333333  0.25000000
   0.96987856  0.65226184  0.75000000
   0.31761672  0.96987856  0.25000000
   0.65226184  0.68238328  0.25000000
   0.34773816  0.31761672  0.75000000
   0.03012144  0.34773816  0.25000000
   0.68238328  0.03012144  0.75000000
unknown system                          
           1
     4.330407   -7.500486   -0.000000
     4.330407    7.500486    0.000000
    -0.000000   -0.000000    2.708765
   Si   N 
   6   8
Direct configuration=     5
   0.19677848  0.82631813  0.75000000
   0.37046034  0.19677848  0.25000000
   0.82631813  0.62953966  0.25000000
   0.17368187  0.37046034  0.75000000
   0.62953966  0.80322152  0.75000000
   0.80322152  0.17368187  0.25000000
   0.33333333  0.66666667  0.75000000
   0.66666667  0.33333333  0.25000000
   0.97075071  0.63157012  0.75000000
   0.33918059  0.97075071  0.25000000
   0.63157012  0.66081941  0.25000000
   0.36842988  0.33918059  0.75000000
   0.02924929  0.36842988  0.25000000
   0.66081941  0.02924929  0.75000000
unknown system                          
           1
     4.297364   -7.443253   -0.000000
     4.297364    7.443253    0.000000
    -0.000000   -0.000000    2.756727
   Si   N 
   6   8
Direct configuration=     6
   0.20059119  0.82608060  0.75000000
   0.37451059  0.20059119  0.25000000
   0.82608060  0.62548941  0.25000000
   0.17391940  0.37451059  0.75000000
   0.62548941  0.79940881  0.75000000
   0.79940881  0.17391940  0.25000000
   0.33333333  0.66666667  0.75000000
   0.66666667  0.33333333  0.25000000
   0.97055822  0.63613696  0.75000000
   0.33442125  0.97055822  0.25000000
   0.63613696  0.66557875  0.25000000
   0.36386304  0.33442125  0.75000000
   0.02944178  0.36386304  0.25000000
   0.66557875  0.02944178  0.75000000
unknown system                          
           1
     4.222168   -7.313009   -0.000000
     4.222168    7.313009    0.000000
    -0.000000   -0.000000    2.712584
   Si   N 
   6   8
Direct configuration=     7
   0.19582206  0.82975010  0.75000000
   0.36607196  0.19582206  0.25000000
   0.82975010  0.63392804  0.25000000
   0.17024990  0.36607196  0.75000000
   0.63392804  0.80417794  0.75000000
   0.80417794  0.17024990  0.25000000
   0.33333333  0.66666667  0.75000000
   0.66666667  0.33333333  0.25000000
   0.97009643  0.62772007  0.75000000
   0.34237636  0.97009643  0.25000000
   0.62772007  0.65762364  0.25000000
   0.37227993  0.34237636  0.75000000
   0.02990357  0.37227993  0.25000000
   0.65762364  0.02990357  0.75000000
unknown system                          
           1
     4.147992   -7.184532   -0.000000
     4.147992    7.184532    0.000000
    -0.000000   -0.000000    2.669041
   Si   N 
   6   8
Direct configuration=     8
   0.19103385  0.83343429  0.75000000
   0.35759956  0.19103385  0.25000000
   0.83343429  0.64240044  0.25000000
   0.16656571  0.35759956  0.75000000
   0.64240044  0.80896615  0.75000000
   0.80896615  0.16656571  0.25000000
   0.33333333  0.66666667  0.75000000
   0.66666667  0.33333333  0.25000000
   0.96963279  0.61926948  0.75000000
   0.35036331  0.96963279  0.25000000
   0.61926948  0.64963669  0.25000000
   0.38073052  0.35036331  0.75000000
   0.03036721  0.38073052  0.25000000
   0.64963669  0.03036721  0.75000000
unknown system                          
           1
     4.016563   -6.956891   -0.000000
     4.016563    6.956891    0.000000
    -0.000000   -0.000000    2.706927
   Si   N 
   6   8
Direct configuration=     9
   0.19353169  0.83632118  0.75000000
   0.35721051  0.19353169  0.25000000
   0.83632118  0.64278949  0.25000000
   0.16367882  0.35721051  0.75000000
   0.64278949  0.80646831  0.75000000
   0.80646831  0.16367882  0.25000000
   0.33333333  0.66666667  0.75000000
   0.66666667  0.33333333  0.25000000
   0.96816311  0.61768540  0.75000000
   0.35047771  0.96816311  0.25000000
   0.61768540  0.64952229  0.25000000
   0.38231460  0.35047771  0.75000000
   0.03183689  0.38231460  0.25000000
   0.64952229  0.03183689  0.75000000
unknown system                          
           1
     3.979942   -6.893463   -0.000000
     3.979942    6.893463    0.000000
    -0.000000   -0.000000    2.717484
   Si   N 
   6   8
Direct configuration=    10
   0.19425044  0.83715188  0.75000000
   0.35709856  0.19425044  0.25000000
   0.83715188  0.64290144  0.25000000
   0.16284812  0.35709856  0.75000000
   0.64290144  0.80574956  0.75000000
   0.80574956  0.16284812  0.25000000
   0.33333333  0.66666667  0.75000000
   0.66666667  0.33333333  0.25000000
   0.96774021  0.61722958  0.75000000
   0.35051063  0.96774021  0.25000000
   0.61722958  0.64948937  0.25000000
   0.38277042  0.35051063  0.75000000
   0.03225979  0.38277042  0.25000000
   0.64948937  0.03225979  0.75000000
unknown system                          
           1
     3.987765   -6.907012   -0.000000
     3.987765    6.907012    0.000000
    -0.000000   -0.000000    2.771458
   Si   N 
   6   8
Direct configuration=    11
   0.19576599  0.83739956  0.75000000
   0.35836643  0.19576599  0.25000000
   0.83739956  0.64163357  0.25000000
   0.16260044  0.35836643  0.75000000
   0.64163357  0.80423401  0.75000000
   0.80423401  0.16260044  0.25000000
   0.33333333  0.66666667  0.75000000
   0.66666667  0.33333333  0.25000000
   0.96720813  0.61714821  0.75000000
   0.35005991  0.96720813  0.25000000
   0.61714821  0.64994009  0.25000000
   0.38285179  0.35005991  0.75000000
   0.03279187  0.38285179  0.25000000
   0.64994009  0.03279187  0.75000000
unknown system                          
           1
     3.991980   -6.914312   -0.000000
     3.991980    6.914312    0.000000
    -0.000000   -0.000000    2.800541
   Si   N 
   6   8
Direct configuration=    12
   0.19658101  0.83753276  0.75000000
   0.35904825  0.19658101  0.25000000
   0.83753276  0.64095175  0.25000000
   0.16246724  0.35904825  0.75000000
   0.64095175  0.80341899  0.75000000
   0.80341899  0.16246724  0.25000000
   0.33333333  0.66666667  0.75000000
   0.66666667  0.33333333  0.25000000
   0.96692199  0.61710446  0.75000000
   0.34981753  0.96692199  0.25000000
   0.61710446  0.65018247  0.25000000
   0.38289554  0.34981753  0.75000000
   0.03307801  0.38289554  0.25000000
   0.65018247  0.03307801  0.75000000
unknown system                          
           1
     3.986831   -6.905394   -0.000000
     3.986831    6.905394    0.000000
    -0.000000   -0.000000    2.801190
   Si   N 
   6   8
Direct configuration=    13
   0.19700980  0.83710822  0.75000000
   0.35990158  0.19700980  0.25000000
   0.83710822  0.64009842  0.25000000
   0.16289178  0.35990158  0.75000000
   0.64009842  0.80299020  0.75000000
   0.80299020  0.16289178  0.25000000
   0.33333333  0.66666667  0.75000000
   0.66666667  0.33333333  0.25000000
   0.96652390  0.61705318  0.75000000
   0.34947072  0.96652390  0.25000000
   0.61705318  0.65052928  0.25000000
   0.38294682  0.34947072  0.75000000
   0.03347610  0.38294682  0.25000000
   0.65052928  0.03347610  0.75000000
unknown system                          
           1
     3.983625   -6.899841   -0.000000
     3.983625    6.899841    0.000000
     0.000000   -0.000000    2.801594
   Si   N 
   6   8
Direct configuration=    14
   0.19727713  0.83684354  0.75000000
   0.36043359  0.19727713  0.25000000
   0.83684354  0.63956641  0.25000000
   0.16315646  0.36043359  0.75000000
   0.63956641  0.80272287  0.75000000
   0.80272287  0.16315646  0.25000000
   0.33333333  0.66666667  0.75000000
   0.66666667  0.33333333  0.25000000
   0.96627571  0.61702121  0.75000000
   0.34925450  0.96627571  0.25000000
   0.61702121  0.65074550  0.25000000
   0.38297879  0.34925450  0.75000000
   0.03372429  0.38297879  0.25000000
   0.65074550  0.03372429  0.75000000
unknown system                          
           1
     3.983873   -6.900270   -0.000000
     3.983873    6.900270    0.000000
     0.000000   -0.000000    2.800618
   Si   N 
   6   8
Direct configuration=    15
   0.19721015  0.83594643  0.75000000
   0.36126372  0.19721015  0.25000000
   0.83594643  0.63873628  0.25000000
   0.16405357  0.36126372  0.75000000
   0.63873628  0.80278985  0.75000000
   0.80278985  0.16405357  0.25000000
   0.33333333  0.66666667  0.75000000
   0.66666667  0.33333333  0.25000000
   0.96596056  0.61643694  0.75000000
   0.34952362  0.96596056  0.25000000
   0.61643694  0.65047638  0.25000000
   0.38356306  0.34952362  0.75000000
   0.03403944  0.38356306  0.25000000
   0.65047638  0.03403944  0.75000000
unknown system                          
           1
     3.984617   -6.901559   -0.000000
     3.984617    6.901559    0.000000
    -0.000000   -0.000000    2.797691
   Si   N 
   6   8
Direct configuration=    16
   0.19700920  0.83325525  0.75000000
   0.36375395  0.19700920  0.25000000
   0.83325525  0.63624605  0.25000000
   0.16674475  0.36375395  0.75000000
   0.63624605  0.80299080  0.75000000
   0.80299080  0.16674475  0.25000000
   0.33333333  0.66666667  0.75000000
   0.66666667  0.33333333  0.25000000
   0.96501516  0.61468424  0.75000000
   0.35033091  0.96501516  0.25000000
   0.61468424  0.64966909  0.25000000
   0.38531576  0.35033091  0.75000000
   0.03498484  0.38531576  0.25000000
   0.64966909  0.03498484  0.75000000
unknown system                          
           1
     3.986105   -6.904136   -0.000000
     3.986105    6.904136    0.000000
    -0.000000   -0.000000    2.791837
   Si   N 
   6   8
Direct configuration=    17
   0.19660738  0.82787391  0.75000000
   0.36873347  0.19660738  0.25000000
   0.82787391  0.63126653  0.25000000
   0.17212609  0.36873347  0.75000000
   0.63126653  0.80339262  0.75000000
   0.80339262  0.17212609  0.25000000
   0.33333333  0.66666667  0.75000000
   0.66666667  0.33333333  0.25000000
   0.96312470  0.61117950  0.75000000
   0.35194520  0.96312470  0.25000000
   0.61117950  0.64805480  0.25000000
   0.38882050  0.35194520  0.75000000
   0.03687530  0.38882050  0.25000000
   0.64805480  0.03687530  0.75000000
unknown system                          
           1
     3.985032   -6.902277   -0.000000
     3.985032    6.902277    0.000000
    -0.000000   -0.000000    2.796060
   Si   N 
   6   8
Direct configuration=    18
   0.19689714  0.83175448  0.75000000
   0.36514266  0.19689714  0.25000000
   0.83175448  0.63485734  0.25000000
   0.16824552  0.36514266  0.75000000
   0.63485734  0.80310286  0.75000000
   0.80310286  0.16824552  0.25000000
   0.33333333  0.66666667  0.75000000
   0.66666667  0.33333333  0.25000000
   0.96448794  0.61370683  0.75000000
   0.35078111  0.96448794  0.25000000
   0.61370683  0.64921889  0.25000000
   0.38629317  0.35078111  0.75000000
   0.03551206  0.38629317  0.25000000
   0.64921889  0.03551206  0.75000000
unknown system                          
           1
     3.986371   -6.904598   -0.000000
     3.986371    6.904598    0.000000
    -0.000000   -0.000000    2.799128
   Si   N 
   6   8
Direct configuration=    19
   0.19724232  0.83162072  0.75000000
   0.36562160  0.19724232  0.25000000
   0.83162072  0.63437840  0.25000000
   0.16837928  0.36562160  0.75000000
   0.63437840  0.80275768  0.75000000
   0.80275768  0.16837928  0.25000000
   0.33333333  0.66666667  0.75000000
   0.66666667  0.33333333  0.25000000
   0.96349932  0.61231529  0.75000000
   0.35118403  0.96349932  0.25000000
   0.61231529  0.64881597  0.25000000
   0.38768471  0.35118403  0.75000000
   0.03650068  0.38768471  0.25000000
   0.64881597  0.03650068  0.75000000
unknown system                          
           1
     3.985927   -6.903829   -0.000000
     3.985927    6.903829    0.000000
    -0.000000   -0.000000    2.798111
   Si   N 
   6   8
Direct configuration=    20
   0.19712797  0.83166503  0.75000000
   0.36546294  0.19712797  0.25000000
   0.83166503  0.63453706  0.25000000
   0.16833497  0.36546294  0.75000000
   0.63453706  0.80287203  0.75000000
   0.80287203  0.16833497  0.25000000
   0.33333333  0.66666667  0.75000000
   0.66666667  0.33333333  0.25000000
   0.96382682  0.61277626  0.75000000
   0.35105056  0.96382682  0.25000000
   0.61277626  0.64894944  0.25000000
   0.38722374  0.35105056  0.75000000
   0.03617318  0.38722374  0.25000000
   0.64894944  0.03617318  0.75000000
unknown system                          
           1
     3.980306   -6.894092   -0.000000
     3.980306    6.894092    0.000000
    -0.000000   -0.000000    2.800846
   Si   N 
   6   8
Direct configuration=    21
   0.19708393  0.83149596  0.75000000
   0.36558797  0.19708393  0.25000000
   0.83149596  0.63441203  0.25000000
   0.16850404  0.36558797  0.75000000
   0.63441203  0.80291607  0.75000000
   0.80291607  0.16850404  0.25000000
   0.33333333  0.66666667  0.75000000
   0.66666667  0.33333333  0.25000000
   0.96355223  0.61241729  0.75000000
   0.35113494  0.96355223  0.25000000
   0.61241729  0.64886506  0.25000000
   0.38758271  0.35113494  0.75000000
   0.03644777  0.38758271  0.25000000
   0.64886506  0.03644777  0.75000000
unknown system                          
           1
     3.981028   -6.895342   -0.000000
     3.981028    6.895342    0.000000
    -0.000000   -0.000000    2.800494
   Si   N 
   6   8
Direct configuration=    22
   0.19708959  0.83151770  0.75000000
   0.36557189  0.19708959  0.25000000
   0.83151770  0.63442811  0.25000000
   0.16848230  0.36557189  0.75000000
   0.63442811  0.80291041  0.75000000
   0.80291041  0.16848230  0.25000000
   0.33333333  0.66666667  0.75000000
   0.66666667  0.33333333  0.25000000
   0.96358754  0.61246345  0.75000000
   0.35112409  0.96358754  0.25000000
   0.61246345  0.64887591  0.25000000
   0.38753655  0.35112409  0.75000000
   0.03641246  0.38753655  0.25000000
   0.64887591  0.03641246  0.75000000
