  14  14   0   0
  0.1065598E+02  0.7882435E-09  0.7882435E-09  0.2772490E-09  0.5000000E-15
  1.000000000000000E-004
  CAR 
 unknown system                          
     16.81814910    -11.33828048  301     10.39904350      1.00000000
    -11.338  0.0000E+00  0.0000E+00
    -11.244  0.0000E+00  0.0000E+00
    -11.151  0.0000E+00  0.0000E+00
    -11.057  0.0000E+00  0.0000E+00
    -10.963  0.0000E+00  0.0000E+00
    -10.869  0.5713E-30  0.5362E-31
    -10.775  0.6607E-24  0.6201E-25
    -10.681  0.1253E-18  0.1176E-19
    -10.587  0.3874E-14  0.3636E-15
    -10.494  0.1931E-10  0.1813E-11
    -10.400  0.1526E-07  0.1434E-08
    -10.306  0.1758E-05  0.1664E-06
    -10.212  0.1602E-04  0.1670E-05
    -10.118 -0.1239E-03 -0.9958E-05
    -10.024  0.1109E-02  0.9412E-04
     -9.930  0.5741E-02  0.6330E-03
     -9.837  0.8309E-02  0.1413E-02
     -9.743  0.1222E-01  0.2560E-02
     -9.649  0.1264E-01  0.3746E-02
     -9.555  0.1506E-01  0.5159E-02
     -9.461  0.1657E-01  0.6714E-02
     -9.367  0.1720E-01  0.8329E-02
     -9.273  0.2135E-01  0.1033E-01
     -9.180  0.2173E-01  0.1237E-01
     -9.086  0.3006E-01  0.1519E-01
     -8.992  0.3044E-01  0.1805E-01
     -8.898  0.3667E-01  0.2149E-01
     -8.804  0.3204E-01  0.2450E-01
     -8.710  0.2595E-01  0.2693E-01
     -8.616  0.2512E-01  0.2929E-01
     -8.523  0.2619E-01  0.3175E-01
     -8.429  0.2684E-01  0.3427E-01
     -8.335  0.4083E-01  0.3810E-01
     -8.241  0.4323E-01  0.4216E-01
     -8.147  0.3829E-01  0.4575E-01
     -8.053  0.4320E-01  0.4981E-01
     -7.960  0.5253E-01  0.5474E-01
     -7.866  0.5033E-01  0.5946E-01
     -7.772  0.5453E-01  0.6458E-01
     -7.678  0.4265E-01  0.6858E-01
     -7.584  0.4381E-01  0.7269E-01
     -7.490  0.8177E-01  0.8037E-01
     -7.396  0.5978E-01  0.8598E-01
     -7.303  0.5510E-01  0.9115E-01
     -7.209  0.5777E-01  0.9657E-01
     -7.115  0.4312E-01  0.1006E+00
     -7.021  0.6153E-01  0.1064E+00
     -6.927  0.7948E-01  0.1139E+00
     -6.833  0.4345E-01  0.1179E+00
     -6.739  0.2211E-01  0.1200E+00
     -6.646 -0.2685E-05  0.1200E+00
     -6.552 -0.1163E-03  0.1200E+00
     -6.458  0.5284E-04  0.1200E+00
     -6.364  0.1306E-05  0.1200E+00
     -6.270  0.3760E-08  0.1200E+00
     -6.176  0.1566E-11  0.1200E+00
     -6.082  0.1010E-15  0.1200E+00
     -5.989  0.0000E+00  0.1200E+00
     -5.895  0.0000E+00  0.1200E+00
     -5.801  0.0000E+00  0.1200E+00
     -5.707  0.0000E+00  0.1200E+00
     -5.613  0.0000E+00  0.1200E+00
     -5.519  0.0000E+00  0.1200E+00
     -5.425  0.0000E+00  0.1200E+00
     -5.332  0.0000E+00  0.1200E+00
     -5.238  0.0000E+00  0.1200E+00
     -5.144  0.0000E+00  0.1200E+00
     -5.050  0.0000E+00  0.1200E+00
     -4.956  0.0000E+00  0.1200E+00
     -4.862  0.0000E+00  0.1200E+00
     -4.768  0.0000E+00  0.1200E+00
     -4.675  0.0000E+00  0.1200E+00
     -4.581  0.0000E+00  0.1200E+00
     -4.487  0.0000E+00  0.1200E+00
     -4.393  0.0000E+00  0.1200E+00
     -4.299  0.0000E+00  0.1200E+00
     -4.205  0.0000E+00  0.1200E+00
     -4.111  0.0000E+00  0.1200E+00
     -4.018  0.0000E+00  0.1200E+00
     -3.924  0.0000E+00  0.1200E+00
     -3.830  0.0000E+00  0.1200E+00
     -3.736  0.0000E+00  0.1200E+00
     -3.642  0.1052E-29  0.1200E+00
     -3.548  0.1387E-23  0.1200E+00
     -3.454  0.2966E-18  0.1200E+00
     -3.361  0.1011E-13  0.1200E+00
     -3.267  0.5294E-10  0.1200E+00
     -3.173  0.4022E-07  0.1200E+00
     -3.079  0.3825E-05  0.1200E+00
     -2.985  0.1595E-04  0.1200E+00
     -2.891 -0.1762E-03  0.1200E+00
     -2.797  0.2195E-02  0.1202E+00
     -2.704  0.7251E-02  0.1209E+00
     -2.610  0.1227E-01  0.1220E+00
     -2.516  0.9074E-02  0.1229E+00
     -2.422  0.1048E-01  0.1239E+00
     -2.328  0.9056E-02  0.1247E+00
     -2.234  0.8358E-02  0.1255E+00
     -2.141  0.1232E-01  0.1266E+00
     -2.047  0.5403E-02  0.1272E+00
     -1.953  0.5676E-02  0.1277E+00
     -1.859  0.1060E-01  0.1287E+00
     -1.765  0.1601E-01  0.1302E+00
     -1.671  0.1890E-01  0.1320E+00
     -1.577  0.2550E-01  0.1344E+00
     -1.484  0.1769E-01  0.1360E+00
     -1.390  0.2521E-01  0.1384E+00
     -1.296  0.4407E-01  0.1425E+00
     -1.202  0.4911E-01  0.1471E+00
     -1.108  0.4579E-01  0.1514E+00
     -1.014  0.5290E-01  0.1564E+00
     -0.920  0.6926E-01  0.1629E+00
     -0.827  0.3675E-01  0.1663E+00
     -0.733  0.2172E-01  0.1684E+00
     -0.639  0.2540E-01  0.1708E+00
     -0.545  0.4212E-01  0.1747E+00
     -0.451  0.4597E-01  0.1790E+00
     -0.357  0.4516E-01  0.1833E+00
     -0.263  0.5093E-01  0.1880E+00
     -0.170  0.4437E-01  0.1922E+00
     -0.076  0.4821E-01  0.1967E+00
      0.018  0.3918E-01  0.2004E+00
      0.112  0.5251E-01  0.2053E+00
      0.206  0.4818E-01  0.2099E+00
      0.300  0.4181E-01  0.2138E+00
      0.394  0.3629E-01  0.2172E+00
      0.487  0.3472E-01  0.2205E+00
      0.581  0.3882E-01  0.2241E+00
      0.675  0.2326E-01  0.2263E+00
      0.769  0.3331E-01  0.2294E+00
      0.863  0.3856E-01  0.2330E+00
      0.957  0.5085E-01  0.2378E+00
      1.051  0.5462E-01  0.2429E+00
      1.144  0.3522E-01  0.2462E+00
      1.238  0.3377E-01  0.2494E+00
      1.332  0.4018E-01  0.2532E+00
      1.426  0.2935E-01  0.2559E+00
      1.520  0.4233E-01  0.2599E+00
      1.614  0.3130E-01  0.2628E+00
      1.708  0.3422E-01  0.2660E+00
      1.801  0.6230E-01  0.2719E+00
      1.895  0.5051E-01  0.2766E+00
      1.989  0.3999E-01  0.2804E+00
      2.083  0.8687E-01  0.2885E+00
      2.177  0.7044E-01  0.2952E+00
      2.271  0.5777E-01  0.3006E+00
      2.365  0.4008E-01  0.3043E+00
      2.458  0.3336E-01  0.3075E+00
      2.552  0.3297E-01  0.3106E+00
      2.646  0.4096E-01  0.3144E+00
      2.740  0.5620E-01  0.3197E+00
      2.834  0.6237E-01  0.3255E+00
      2.928  0.7030E-01  0.3321E+00
      3.021  0.6042E-01  0.3378E+00
      3.115  0.5874E-01  0.3433E+00
      3.209  0.5077E-01  0.3481E+00
      3.303  0.4664E-01  0.3525E+00
      3.397  0.6673E-01  0.3587E+00
      3.491  0.4089E-01  0.3626E+00
      3.585  0.4294E-01  0.3666E+00
      3.678  0.4039E-01  0.3704E+00
      3.772  0.4222E-01  0.3743E+00
      3.866  0.5714E-01  0.3797E+00
      3.960  0.4233E-01  0.3837E+00
      4.054  0.4904E-01  0.3883E+00
      4.148  0.5337E-01  0.3933E+00
      4.242  0.4480E-01  0.3975E+00
      4.335  0.5390E-01  0.4026E+00
      4.429  0.4939E-01  0.4072E+00
      4.523  0.6488E-01  0.4133E+00
      4.617  0.7120E-01  0.4200E+00
      4.711  0.6157E-01  0.4257E+00
      4.805  0.7819E-01  0.4331E+00
      4.899  0.1023E+00  0.4427E+00
      4.992  0.7270E-01  0.4495E+00
      5.086  0.7224E-01  0.4563E+00
      5.180  0.8102E-01  0.4639E+00
      5.274  0.4010E-01  0.4677E+00
      5.368  0.2100E-01  0.4696E+00
      5.462  0.1617E-01  0.4711E+00
      5.556  0.2653E-01  0.4736E+00
      5.649  0.2471E-01  0.4759E+00
      5.743  0.2546E-01  0.4783E+00
      5.837  0.2103E-01  0.4803E+00
      5.931  0.2201E-01  0.4824E+00
      6.025  0.5093E-01  0.4872E+00
      6.119  0.5464E-01  0.4923E+00
      6.213  0.4445E-01  0.4965E+00
      6.306  0.6188E-01  0.5023E+00
      6.400  0.5402E-01  0.5073E+00
      6.494  0.6146E-01  0.5131E+00
      6.588  0.6709E-01  0.5194E+00
      6.682  0.7117E-01  0.5261E+00
      6.776  0.6420E-01  0.5321E+00
      6.870  0.5443E-01  0.5372E+00
      6.963  0.4995E-01  0.5419E+00
      7.057  0.2883E-01  0.5446E+00
      7.151  0.4508E-01  0.5488E+00
      7.245  0.3617E-01  0.5522E+00
      7.339  0.2402E-01  0.5545E+00
      7.433  0.1741E-01  0.5561E+00
      7.527  0.5732E-02  0.5567E+00
      7.620  0.1323E-01  0.5579E+00
      7.714  0.1373E-01  0.5592E+00
      7.808  0.2364E-01  0.5614E+00
      7.902  0.2032E-01  0.5633E+00
      7.996  0.2501E-01  0.5657E+00
      8.090  0.2380E-01  0.5679E+00
      8.184  0.3189E-01  0.5709E+00
      8.277  0.3442E-01  0.5741E+00
      8.371  0.2738E-01  0.5767E+00
      8.465  0.2382E-01  0.5789E+00
      8.559  0.1889E-01  0.5807E+00
      8.653  0.1030E-01  0.5817E+00
      8.747  0.1779E-01  0.5833E+00
      8.840  0.2076E-01  0.5853E+00
      8.934  0.1973E-01  0.5871E+00
      9.028  0.3258E-01  0.5902E+00
      9.122  0.2455E-01  0.5925E+00
      9.216  0.2067E-01  0.5944E+00
      9.310  0.1865E-01  0.5962E+00
      9.404  0.6863E-02  0.5968E+00
      9.497  0.1599E-01  0.5983E+00
      9.591  0.1535E-01  0.5998E+00
      9.685  0.2557E-01  0.6022E+00
      9.779  0.2242E-01  0.6043E+00
      9.873  0.1603E-01  0.6058E+00
      9.967  0.1261E-01  0.6070E+00
     10.061  0.2295E-01  0.6091E+00
     10.154  0.4684E-01  0.6135E+00
     10.248  0.3277E-01  0.6166E+00
     10.342  0.2231E-01  0.6187E+00
     10.436  0.2278E-01  0.6208E+00
     10.530  0.1850E-01  0.6226E+00
     10.624  0.1567E-01  0.6240E+00
     10.718  0.1273E-01  0.6252E+00
     10.811  0.2462E-01  0.6275E+00
     10.905  0.2270E-01  0.6297E+00
     10.999  0.2953E-01  0.6324E+00
     11.093  0.3386E-01  0.6356E+00
     11.187  0.3863E-01  0.6392E+00
     11.281  0.3010E-01  0.6421E+00
     11.375  0.3627E-01  0.6455E+00
     11.468  0.3998E-01  0.6492E+00
     11.562  0.4272E-01  0.6532E+00
     11.656  0.5277E-01  0.6582E+00
     11.750  0.4802E-01  0.6627E+00
     11.844  0.4076E-01  0.6665E+00
     11.938  0.2996E-01  0.6693E+00
     12.032  0.3105E-01  0.6722E+00
     12.125  0.2951E-01  0.6750E+00
     12.219  0.3200E-01  0.6780E+00
     12.313  0.2316E-01  0.6802E+00
     12.407  0.2691E-01  0.6827E+00
     12.501  0.2697E-01  0.6852E+00
     12.595  0.3591E-01  0.6886E+00
     12.689  0.2118E-01  0.6906E+00
     12.782  0.3593E-01  0.6940E+00
     12.876  0.6043E-01  0.6997E+00
     12.970  0.3888E-01  0.7033E+00
     13.064  0.2814E-01  0.7059E+00
     13.158  0.3138E-01  0.7089E+00
     13.252  0.3942E-01  0.7126E+00
     13.346  0.2187E-01  0.7146E+00
     13.439  0.4054E-01  0.7184E+00
     13.533  0.5410E-01  0.7235E+00
     13.627  0.6386E-01  0.7295E+00
     13.721  0.8131E-01  0.7371E+00
     13.815  0.6220E-01  0.7430E+00
     13.909  0.5985E-01  0.7486E+00
     14.003  0.5413E-01  0.7537E+00
     14.096  0.4592E-01  0.7580E+00
     14.190  0.3084E-01  0.7609E+00
     14.284  0.3229E-01  0.7639E+00
     14.378  0.3441E-01  0.7671E+00
     14.472  0.2537E-01  0.7695E+00
     14.566  0.3191E-01  0.7725E+00
     14.659  0.4625E-01  0.7769E+00
     14.753  0.3312E-01  0.7800E+00
     14.847  0.3432E-01  0.7832E+00
     14.941  0.4178E-01  0.7871E+00
     15.035  0.3197E-01  0.7901E+00
     15.129  0.3604E-01  0.7935E+00
     15.223  0.2329E-01  0.7957E+00
     15.316  0.2043E-01  0.7976E+00
     15.410  0.1198E-01  0.7987E+00
     15.504  0.1109E-01  0.7998E+00
     15.598  0.2844E-02  0.8000E+00
     15.692 -0.3695E-03  0.8000E+00
     15.786  0.4232E-04  0.8000E+00
     15.880  0.3310E-05  0.8000E+00
     15.973  0.2649E-07  0.8000E+00
     16.067  0.3454E-10  0.8000E+00
     16.161  0.7248E-14  0.8000E+00
     16.255  0.2414E-18  0.8000E+00
     16.349  0.0000E+00  0.8000E+00
     16.443  0.0000E+00  0.8000E+00
     16.537  0.0000E+00  0.8000E+00
     16.630  0.0000E+00  0.8000E+00
     16.724  0.0000E+00  0.8000E+00
     16.818  0.0000E+00  0.8000E+00
