   14   14  100    1
  0.1065598E+02  0.7882435E-09  0.7882435E-09  0.2772490E-09  0.5000000E-15
  1.000000000000000E-004
  CAR 
 unknown system                          
     62     81     40
 
  0.3742002E-15  0.3742002E-15  0.3742002E-15  0.1275510E-02
    1      -10.058443   1.000000
    2       -8.857960   1.000000
    3       -8.857960   1.000000
    4       -8.228400   1.000000
    5       -8.228400   1.000000
    6       -8.079732   1.000000
    7       -1.812301   1.000000
    8       -1.812301   1.000000
    9       -1.596238   1.000000
   10       -0.914579   1.000000
   11        0.348015   1.000000
   12        1.006494   1.000000
   13        1.006494   1.000000
   14        2.914141   1.000000
   15        2.914141   1.000000
   16        3.841006   1.000000
   17        4.120773   1.000000
   18        4.120773   1.000000
   19        4.596333   1.000000
   20        4.865541   1.000000
   21        5.418522   1.000000
   22        5.418522   1.000000
   23        5.924579   1.000000
   24        5.924579   1.000000
   25        6.100771   1.000000
   26        7.277281   1.000000
   27        7.287145   1.000000
   28        7.287145   1.000000
   29        9.263358   1.000000
   30        9.513055   1.000000
   31        9.513055   1.000000
   32       13.549782   0.000000
   33       13.835535   0.000000
   34       13.835535   0.000000
   35       13.920782   0.000000
   36       13.920782   0.000000
   37       15.010068   0.000000
   38       15.228979   0.000000
   39       15.354615   0.000000
   40       15.359029   0.000000
 
  0.1428571E+00  0.4002334E-15  0.3742002E-15  0.7653061E-02
    1      -10.018987   1.000000
    2       -8.946848   1.000000
    3       -8.896485   1.000000
    4       -8.387361   1.000000
    5       -8.169881   1.000000
    6       -7.859703   1.000000
    7       -2.084686   1.000000
    8       -1.800435   1.000000
    9       -1.536525   1.000000
   10       -0.638798   1.000000
   11        0.224656   1.000000
   12        0.889466   1.000000
   13        1.119736   1.000000
   14        2.826009   1.000000
   15        2.966414   1.000000
   16        3.819443   1.000000
   17        3.972356   1.000000
   18        4.260066   1.000000
   19        4.860785   1.000000
   20        4.886188   1.000000
   21        5.385392   1.000000
   22        5.407461   1.000000
   23        5.880562   1.000000
   24        5.936443   1.000000
   25        6.151603   1.000000
   26        7.055236   1.000000
   27        7.097290   1.000000
   28        7.389768   1.000000
   29        9.207821   1.000000
   30        9.678279   1.000000
   31        9.726289   1.000000
   32       13.271751   0.000000
   33       13.641196   0.000000
   34       13.686147   0.000000
   35       13.945038   0.000000
   36       14.046268   0.000000
   37       15.035910   0.000000
   38       15.081251   0.000000
   39       15.222273   0.000000
   40       15.335820   0.000000
 
  0.2857143E+00  0.3959619E-15  0.3742002E-15  0.7653061E-02
    1       -9.902986   1.000000
    2       -9.180948   1.000000
    3       -8.966482   1.000000
    4       -8.482487   1.000000
    5       -8.053196   1.000000
    6       -7.620708   1.000000
    7       -2.466120   1.000000
    8       -1.771841   1.000000
    9       -1.367985   1.000000
   10       -0.359251   1.000000
   11        0.009041   1.000000
   12        0.646579   1.000000
   13        1.487365   1.000000
   14        2.654542   1.000000
   15        2.937618   1.000000
   16        3.656453   1.000000
   17        4.013250   1.000000
   18        4.506283   1.000000
   19        4.949922   1.000000
   20        5.281995   1.000000
   21        5.298887   1.000000
   22        5.387921   1.000000
   23        5.827106   1.000000
   24        5.963883   1.000000
   25        6.228229   1.000000
   26        6.588416   1.000000
   27        6.748467   1.000000
   28        7.694314   1.000000
   29        9.033490   1.000000
   30        9.978402   1.000000
   31       10.194935   0.995078
   32       12.434028   0.000000
   33       13.388698   0.000000
   34       13.620214   0.000000
   35       13.987719   0.000000
   36       14.204926   0.000000
   37       14.777542   0.000000
   38       15.089115   0.000000
   39       15.107228   0.000000
   40       15.216542   0.000000
 
  0.4285714E+00  0.3992459E-15  0.3742002E-15  0.7653061E-02
    1       -9.722171   1.000000
    2       -9.449116   1.000000
    3       -9.012622   1.000000
    4       -8.511774   1.000000
    5       -7.967656   1.000000
    6       -7.483820   1.000000
    7       -2.691051   1.000000
    8       -1.745738   1.000000
    9       -1.149236   1.000000
   10       -0.525151   1.000000
   11        0.044919   1.000000
   12        0.465589   1.000000
   13        2.059877   1.000000
   14        2.535240   1.000000
   15        2.675556   1.000000
   16        3.337402   1.000000
   17        4.335809   1.000000
   18        4.682100   1.000000
   19        5.042507   1.000000
   20        5.185100   1.000000
   21        5.373732   1.000000
   22        5.515754   1.000000
   23        5.801989   1.000000
   24        5.982676   1.000000
   25        6.187167   1.000000
   26        6.274073   1.000000
   27        6.561882   1.000000
   28        8.066584   1.000000
   29        8.774270   1.000000
   30       10.158053   0.997316
   31       10.785012   0.000002
   32       11.564220   0.000000
   33       13.228193   0.000000
   34       13.567660   0.000000
   35       14.114702   0.000000
   36       14.305521   0.000000
   37       14.588899   0.000000
   38       14.955360   0.000000
   39       15.030142   0.000000
   40       15.222534   0.000000
 
  0.1428571E+00  0.1428571E+00  0.3742002E-15  0.7653061E-02
    1       -9.941156   1.000000
    2       -9.051286   1.000000
    3       -9.026786   1.000000
    4       -8.427404   1.000000
    5       -8.108805   1.000000
    6       -7.671665   1.000000
    7       -2.387052   1.000000
    8       -1.751520   1.000000
    9       -1.419742   1.000000
   10       -0.441866   1.000000
   11        0.033957   1.000000
   12        0.819545   1.000000
   13        1.299572   1.000000
   14        2.633755   1.000000
   15        3.093446   1.000000
   16        3.714727   1.000000
   17        3.869803   1.000000
   18        4.484471   1.000000
   19        4.929339   1.000000
   20        5.172993   1.000000
   21        5.337333   1.000000
   22        5.379617   1.000000
   23        5.847172   1.000000
   24        5.949282   1.000000
   25        6.211907   1.000000
   26        6.718421   1.000000
   27        6.843693   1.000000
   28        7.595730   1.000000
   29        9.095335   1.000000
   30        9.924506   1.000000
   31       10.031949   0.999993
   32       12.755086   0.000000
   33       13.196645   0.000000
   34       13.800321   0.000000
   35       13.897561   0.000000
   36       14.222352   0.000000
   37       14.940687   0.000000
   38       15.047676   0.000000
   39       15.084452   0.000000
   40       15.380421   0.000000
 
  0.2857143E+00  0.1428571E+00  0.3742002E-15  0.7653061E-02
    1       -9.790784   1.000000
    2       -9.297241   1.000000
    3       -9.115396   1.000000
    4       -8.412543   1.000000
    5       -8.042300   1.000000
    6       -7.502493   1.000000
    7       -2.668938   1.000000
    8       -1.656058   1.000000
    9       -1.207845   1.000000
   10       -0.529717   1.000000
   11       -0.215411   1.000000
   12        0.898224   1.000000
   13        1.687808   1.000000
   14        2.408521   1.000000
   15        3.083895   1.000000
   16        3.439851   1.000000
   17        3.999795   1.000000
   18        4.718963   1.000000
   19        5.008126   1.000000
   20        5.248566   1.000000
   21        5.343096   1.000000
   22        5.462165   1.000000
   23        5.831021   1.000000
   24        5.961611   1.000000
   25        6.266587   1.000000
   26        6.457233   1.000000
   27        6.483531   1.000000
   28        7.941995   1.000000
   29        8.875117   1.000000
   30       10.223806   0.998318
   31       10.447737   0.068737
   32       11.956286   0.000000
   33       12.854689   0.000000
   34       13.717542   0.000000
   35       14.045396   0.000000
   36       14.468687   0.000000
   37       14.673461   0.000000
   38       14.918738   0.000000
   39       15.172509   0.000000
   40       15.254134   0.000000
 
  0.4285714E+00  0.1428571E+00  0.3742002E-15  0.7653061E-02
    1       -9.619906   1.000000
    2       -9.513653   1.000000
    3       -9.142915   1.000000
    4       -8.404389   1.000000
    5       -8.011019   1.000000
    6       -7.439006   1.000000
    7       -2.775376   1.000000
    8       -1.598670   1.000000
    9       -1.046867   1.000000
   10       -0.672702   1.000000
   11       -0.353987   1.000000
   12        0.941617   1.000000
   13        2.165158   1.000000
   14        2.195124   1.000000
   15        2.851194   1.000000
   16        3.325246   1.000000
   17        4.166975   1.000000
   18        4.805934   1.000000
   19        5.084812   1.000000
   20        5.163564   1.000000
   21        5.330412   1.000000
   22        5.547206   1.000000
   23        5.827966   1.000000
   24        5.964748   1.000000
   25        6.193661   1.000000
   26        6.285984   1.000000
   27        6.499570   1.000000
   28        8.209013   1.000000
   29        8.670277   1.000000
   30       10.288034   1.045325
   31       10.982675   0.000000
   32       11.266134   0.000000
   33       12.789113   0.000000
   34       13.647551   0.000000
   35       14.237330   0.000000
   36       14.339765   0.000000
   37       14.732715   0.000000
   38       14.809431   0.000000
   39       15.174142   0.000000
   40       15.267587   0.000000
 
 -0.4285714E+00  0.1428571E+00  0.3742002E-15  0.7653061E-02
    1       -9.790794   1.000000
    2       -9.297285   1.000000
    3       -9.115375   1.000000
    4       -8.412623   1.000000
    5       -8.042219   1.000000
    6       -7.502419   1.000000
    7       -2.668977   1.000000
    8       -1.653862   1.000000
    9       -1.214624   1.000000
   10       -0.515359   1.000000
   11       -0.224519   1.000000
   12        0.894340   1.000000
   13        1.685545   1.000000
   14        2.431355   1.000000
   15        3.111849   1.000000
   16        3.348609   1.000000
   17        4.043183   1.000000
   18        4.743145   1.000000
   19        5.007802   1.000000
   20        5.248747   1.000000
   21        5.343303   1.000000
   22        5.451880   1.000000
   23        5.831068   1.000000
   24        5.961484   1.000000
   25        6.266581   1.000000
   26        6.317470   1.000000
   27        6.612182   1.000000
   28        7.946619   1.000000
   29        8.872747   1.000000
   30       10.170849   0.996365
   31       10.514953  -0.041408
   32       11.902712   0.000000
   33       12.922097   0.000000
   34       13.725304   0.000000
   35       14.004049   0.000000
   36       14.424573   0.000000
   37       14.694745   0.000000
   38       14.961915   0.000000
   39       15.177780   0.000000
   40       15.258689   0.000000
 
  0.2857143E+00  0.2857143E+00  0.3742002E-15  0.7653061E-02
    1       -9.614356   1.000000
    2       -9.393029   1.000000
    3       -9.327021   1.000000
    4       -8.268257   1.000000
    5       -8.106376   1.000000
    6       -7.414789   1.000000
    7       -2.824256   1.000000
    8       -1.376808   1.000000
    9       -1.003738   1.000000
   10       -0.849119   1.000000
   11       -0.589334   1.000000
   12        1.456338   1.000000
   13        1.790779   1.000000
   14        2.132521   1.000000
   15        2.977546   1.000000
   16        3.509874   1.000000
   17        3.872285   1.000000
   18        4.847204   1.000000
   19        5.087211   1.000000
   20        5.214293   1.000000
   21        5.261623   1.000000
   22        5.562098   1.000000
   23        5.871078   1.000000
   24        5.931266   1.000000
   25        6.293279   1.000000
   26        6.319201   1.000000
   27        6.411287   1.000000
   28        8.269965   1.000000
   29        8.632682   1.000000
   30       10.470576  -0.024888
   31       10.788825   0.000002
   32       11.336415   0.000000
   33       12.507068   0.000000
   34       13.588599   0.000000
   35       14.250288   0.000000
   36       14.513750   0.000000
   37       14.604571   0.000000
   38       15.038069   0.000000
   39       15.173222   0.000000
   40       15.295604   0.000000
 
  0.3742002E-15  0.3742002E-15  0.6250000E-01  0.2551020E-02
    1      -10.004950   1.000000
    2       -8.811620   1.000000
    3       -8.811620   1.000000
    4       -8.185283   1.000000
    5       -8.185283   1.000000
    6       -8.041229   1.000000
    7       -1.768341   1.000000
    8       -1.768340   1.000000
    9       -1.534850   1.000000
   10       -0.859569   1.000000
   11        0.375493   1.000000
   12        1.038605   1.000000
   13        1.038605   1.000000
   14        2.962431   1.000000
   15        2.962432   1.000000
   16        3.851076   1.000000
   17        4.128677   1.000000
   18        4.128677   1.000000
   19        4.578992   1.000000
   20        4.579079   1.000000
   21        5.151673   1.000000
   22        5.151673   1.000000
   23        5.648786   1.000000
   24        5.648786   1.000000
   25        5.775054   1.000000
   26        7.302509   1.000000
   27        7.302509   1.000000
   28        7.455395   1.000000
   29        9.207460   1.000000
   30        9.626644   1.000000
   31        9.626644   1.000000
   32       13.463370   0.000000
   33       13.672709   0.000000
   34       13.672710   0.000000
   35       13.965364   0.000000
   36       13.965373   0.000000
   37       14.606575   0.000000
   38       14.894255   0.000000
   39       14.897397   0.000000
   40       14.897485   0.000000
 
  0.1428571E+00  0.4002334E-15  0.6250000E-01  0.1530612E-01
    1       -9.965683   1.000000
    2       -8.899650   1.000000
    3       -8.849651   1.000000
    4       -8.344409   1.000000
    5       -8.127593   1.000000
    6       -7.821906   1.000000
    7       -2.034740   1.000000
    8       -1.755408   1.000000
    9       -1.475472   1.000000
   10       -0.589244   1.000000
   11        0.256580   1.000000
   12        0.922546   1.000000
   13        1.150051   1.000000
   14        2.874243   1.000000
   15        3.002308   1.000000
   16        3.831710   1.000000
   17        3.962983   1.000000
   18        4.263350   1.000000
   19        4.610576   1.000000
   20        4.844286   1.000000
   21        5.121270   1.000000
   22        5.143861   1.000000
   23        5.579210   1.000000
   24        5.670930   1.000000
   25        5.871759   1.000000
   26        7.084944   1.000000
   27        7.128031   1.000000
   28        7.550537   1.000000
   29        9.160308   1.000000
   30        9.771601   1.000000
   31        9.816692   1.000000
   32       13.306928   0.000000
   33       13.540912   0.000000
   34       13.630313   0.000000
   35       13.850695   0.000000
   36       13.968757   0.000000
   37       14.570477   0.000000
   38       14.857320   0.000000
   39       14.879124   0.000000
   40       14.960634   0.000000
 
  0.2857143E+00  0.3959619E-15  0.6250000E-01  0.1530612E-01
    1       -9.850204   1.000000
    2       -9.132074   1.000000
    3       -8.918954   1.000000
    4       -8.439213   1.000000
    5       -8.012522   1.000000
    6       -7.585165   1.000000
    7       -2.410694   1.000000
    8       -1.724075   1.000000
    9       -1.308175   1.000000
   10       -0.310330   1.000000
   11        0.045673   1.000000
   12        0.680632   1.000000
   13        1.511521   1.000000
   14        2.703251   1.000000
   15        2.958612   1.000000
   16        3.644219   1.000000
   17        3.997824   1.000000
   18        4.493694   1.000000
   19        4.704885   1.000000
   20        4.973987   1.000000
   21        5.140338   1.000000
   22        5.290745   1.000000
   23        5.547301   1.000000
   24        5.716691   1.000000
   25        5.993346   1.000000
   26        6.635632   1.000000
   27        6.783189   1.000000
   28        7.815795   1.000000
   29        9.008385   1.000000
   30       10.030424   0.999993
   31       10.255366   1.015841
   32       12.504798   0.000000
   33       13.432897   0.000000
   34       13.529682   0.000000
   35       13.820045   0.000000
   36       14.121745   0.000000
   37       14.322583   0.000000
   38       14.768880   0.000000
   39       15.029677   0.000000
   40       15.082039   0.000000
 
  0.4285714E+00  0.3992459E-15  0.6250000E-01  0.1530612E-01
    1       -9.670264   1.000000
    2       -9.398691   1.000000
    3       -8.964544   1.000000
    4       -8.468356   1.000000
    5       -7.928371   1.000000
    6       -7.449758   1.000000
    7       -2.633067   1.000000
    8       -1.695786   1.000000
    9       -1.091600   1.000000
   10       -0.471497   1.000000
   11        0.081751   1.000000
   12        0.499690   1.000000
   13        2.072421   1.000000
   14        2.584857   1.000000
   15        2.690906   1.000000
   16        3.337768   1.000000
   17        4.244770   1.000000
   18        4.637564   1.000000
   19        4.824593   1.000000
   20        4.904230   1.000000
   21        5.156481   1.000000
   22        5.470865   1.000000
   23        5.577561   1.000000
   24        5.748693   1.000000
   25        6.081425   1.000000
   26        6.240770   1.000000
   27        6.575682   1.000000
   28        8.141741   1.000000
   29        8.780573   1.000000
   30       10.182764   0.995547
   31       10.831417   0.000000
   32       11.628668   0.000000
   33       13.280072   0.000000
   34       13.586546   0.000000
   35       13.814970   0.000000
   36       14.049270   0.000000
   37       14.383382   0.000000
   38       14.643316   0.000000
   39       14.991170   0.000000
   40       15.129950   0.000000
 
  0.1428571E+00  0.1428571E+00  0.6250000E-01  0.1530612E-01
    1       -9.888226   1.000000
    2       -9.003295   1.000000
    3       -8.978872   1.000000
    4       -8.384519   1.000000
    5       -8.067441   1.000000
    6       -7.635635   1.000000
    7       -2.332724   1.000000
    8       -1.704768   1.000000
    9       -1.359809   1.000000
   10       -0.393561   1.000000
   11        0.071376   1.000000
   12        0.851222   1.000000
   13        1.327126   1.000000
   14        2.680330   1.000000
   15        3.114746   1.000000
   16        3.708998   1.000000
   17        3.873261   1.000000
   18        4.453650   1.000000
   19        4.686321   1.000000
   20        5.034607   1.000000
   21        5.072540   1.000000
   22        5.229100   1.000000
   23        5.553594   1.000000
   24        5.697121   1.000000
   25        5.965569   1.000000
   26        6.755498   1.000000
   27        6.885338   1.000000
   28        7.729727   1.000000
   29        9.061670   1.000000
   30        9.993147   0.999999
   31       10.093624   0.999769
   32       12.829746   0.000000
   33       13.216606   0.000000
   34       13.619717   0.000000
   35       13.898303   0.000000
   36       14.043349   0.000000
   37       14.393795   0.000000
   38       14.830873   0.000000
   39       15.018477   0.000000
   40       15.067592   0.000000
 
  0.2857143E+00  0.1428571E+00  0.6250000E-01  0.1530612E-01
    1       -9.738510   1.000000
    2       -9.247698   1.000000
    3       -9.066837   1.000000
    4       -8.369848   1.000000
    5       -8.002111   1.000000
    6       -7.468157   1.000000
    7       -2.611426   1.000000
    8       -1.607339   1.000000
    9       -1.149919   1.000000
   10       -0.478243   1.000000
   11       -0.173027   1.000000
   12        0.926047   1.000000
   13        1.709173   1.000000
   14        2.451582   1.000000
   15        3.095834   1.000000
   16        3.434440   1.000000
   17        3.983984   1.000000
   18        4.614642   1.000000
   19        4.827152   1.000000
   20        4.939494   1.000000
   21        5.113061   1.000000
   22        5.440153   1.000000
   23        5.589656   1.000000
   24        5.720848   1.000000
   25        6.062174   1.000000
   26        6.492142   1.000000
   27        6.521639   1.000000
   28        8.033701   1.000000
   29        8.866673   1.000000
   30       10.242384   1.006494
   31       10.511687  -0.044087
   32       12.022365   0.000000
   33       12.907343   0.000000
   34       13.669274   0.000000
   35       13.871468   0.000000
   36       14.144575   0.000000
   37       14.303990   0.000000
   38       14.772239   0.000000
   39       15.058052   0.000000
   40       15.280338   0.000000
 
  0.4285714E+00  0.1428571E+00  0.6250000E-01  0.1530612E-01
    1       -9.568568   1.000000
    2       -9.462825   1.000000
    3       -9.094099   1.000000
    4       -8.361708   1.000000
    5       -7.971499   1.000000
    6       -7.405474   1.000000
    7       -2.716884   1.000000
    8       -1.549019   1.000000
    9       -0.991446   1.000000
   10       -0.617320   1.000000
   11       -0.310909   1.000000
   12        0.968444   1.000000
   13        2.172052   1.000000
   14        2.233795   1.000000
   15        2.875374   1.000000
   16        3.328346   1.000000
   17        4.111612   1.000000
   18        4.675328   1.000000
   19        4.843013   1.000000
   20        4.971781   1.000000
   21        5.110637   1.000000
   22        5.520300   1.000000
   23        5.578750   1.000000
   24        5.728764   1.000000
   25        6.118193   1.000000
   26        6.234826   1.000000
   27        6.515558   1.000000
   28        8.266757   1.000000
   29        8.685223   1.000000
   30       10.302399   1.051604
   31       11.026181   0.000000
   32       11.337816   0.000000
   33       12.838262   0.000000
   34       13.742227   0.000000
   35       13.824695   0.000000
   36       13.991260   0.000000
   37       14.445718   0.000000
   38       14.747037   0.000000
   39       15.072121   0.000000
   40       15.320107   0.000000
 
 -0.4285714E+00  0.1428571E+00  0.6250000E-01  0.1530612E-01
    1       -9.738519   1.000000
    2       -9.247684   1.000000
    3       -9.066843   1.000000
    4       -8.369894   1.000000
    5       -8.002092   1.000000
    6       -7.468116   1.000000
    7       -2.611492   1.000000
    8       -1.605038   1.000000
    9       -1.157083   1.000000
   10       -0.462838   1.000000
   11       -0.182951   1.000000
   12        0.922475   1.000000
   13        1.706875   1.000000
   14        2.472941   1.000000
   15        3.126979   1.000000
   16        3.346463   1.000000
   17        4.020311   1.000000
   18        4.623202   1.000000
   19        4.812097   1.000000
   20        5.008614   1.000000
   21        5.067667   1.000000
   22        5.452777   1.000000
   23        5.575391   1.000000
   24        5.720143   1.000000
   25        6.062797   1.000000
   26        6.359182   1.000000
   27        6.643769   1.000000
   28        8.037423   1.000000
   29        8.864780   1.000000
   30       10.207929   0.995496
   31       10.556372  -0.006093
   32       11.977392   0.000000
   33       12.962734   0.000000
   34       13.706146   0.000000
   35       13.824338   0.000000
   36       14.123552   0.000000
   37       14.297110   0.000000
   38       14.805995   0.000000
   39       15.071958   0.000000
   40       15.214381   0.000000
 
  0.2857143E+00  0.2857143E+00  0.6250000E-01  0.1530612E-01
    1       -9.563008   1.000000
    2       -9.342817   1.000000
    3       -9.277237   1.000000
    4       -8.226718   1.000000
    5       -8.066032   1.000000
    6       -7.381452   1.000000
    7       -2.765536   1.000000
    8       -1.327988   1.000000
    9       -0.954932   1.000000
   10       -0.791301   1.000000
   11       -0.538921   1.000000
   12        1.473769   1.000000
   13        1.811970   1.000000
   14        2.166779   1.000000
   15        2.992594   1.000000
   16        3.504150   1.000000
   17        3.851893   1.000000
   18        4.689329   1.000000
   19        4.906622   1.000000
   20        4.963605   1.000000
   21        5.049206   1.000000
   22        5.549809   1.000000
   23        5.611128   1.000000
   24        5.686416   1.000000
   25        6.127027   1.000000
   26        6.351904   1.000000
   27        6.442146   1.000000
   28        8.321902   1.000000
   29        8.647201   1.000000
   30       10.461710   0.002293
   31       10.857656   0.000000
   32       11.411522   0.000000
   33       12.548441   0.000000
   34       13.735988   0.000000
   35       13.819151   0.000000
   36       13.969239   0.000000
   37       14.419809   0.000000
   38       15.038339   0.000000
   39       15.116636   0.000000
   40       15.354328   0.000000
 
  0.3742002E-15  0.3742002E-15  0.1250000E+00  0.2551020E-02
    1       -9.846310   1.000000
    2       -8.674592   1.000000
    3       -8.674591   1.000000
    4       -8.058759   1.000000
    5       -8.058759   1.000000
    6       -7.929538   1.000000
    7       -1.640865   1.000000
    8       -1.640865   1.000000
    9       -1.351247   1.000000
   10       -0.695024   1.000000
   11        0.441187   1.000000
   12        1.124090   1.000000
   13        1.124090   1.000000
   14        3.106855   1.000000
   15        3.106855   1.000000
   16        3.832889   1.000000
   17        3.887515   1.000000
   18        4.116489   1.000000
   19        4.116489   1.000000
   20        4.385345   1.000000
   21        4.487945   1.000000
   22        4.487945   1.000000
   23        5.009078   1.000000
   24        5.009078   1.000000
   25        5.291487   1.000000
   26        7.326146   1.000000
   27        7.326147   1.000000
   28        7.747832   1.000000
   29        8.987071   1.000000
   30        9.874632   1.000000
   31        9.874633   1.000000
   32       12.766066   0.000000
   33       12.766067   0.000000
   34       12.857701   0.000000
   35       13.466651   0.000000
   36       14.218951   0.000000
   37       14.218953   0.000000
   38       14.572557   0.000000
   39       14.572558   0.000000
   40       15.403413   0.000000
 
  0.1428571E+00  0.4002334E-15  0.1250000E+00  0.1530612E-01
    1       -9.807570   1.000000
    2       -8.760283   1.000000
    3       -8.711262   1.000000
    4       -8.218875   1.000000
    5       -8.003815   1.000000
    6       -7.712594   1.000000
    7       -1.888518   1.000000
    8       -1.625128   1.000000
    9       -1.293486   1.000000
   10       -0.443373   1.000000
   11        0.338320   1.000000
   12        1.009819   1.000000
   13        1.228663   1.000000
   14        3.016909   1.000000
   15        3.081295   1.000000
   16        3.792970   1.000000
   17        3.882445   1.000000
   18        4.001161   1.000000
   19        4.204693   1.000000
   20        4.427928   1.000000
   21        4.527656   1.000000
   22        4.680179   1.000000
   23        4.918002   1.000000
   24        5.049294   1.000000
   25        5.461361   1.000000
   26        7.132936   1.000000
   27        7.175232   1.000000
   28        7.822184   1.000000
   29        8.959274   1.000000
   30        9.968477   1.000000
   31       10.016924   0.999997
   32       12.798949   0.000000
   33       12.827017   0.000000
   34       12.873434   0.000000
   35       13.511932   0.000000
   36       13.710169   0.000000
   37       13.991035   0.000000
   38       14.546467   0.000000
   39       14.678907   0.000000
   40       15.482767   0.000000
 
  0.2857143E+00  0.3959619E-15  0.1250000E+00  0.1530612E-01
    1       -9.693695   1.000000
    2       -8.987588   1.000000
    3       -8.778261   1.000000
    4       -8.312550   1.000000
    5       -7.893947   1.000000
    6       -7.482872   1.000000
    7       -2.246932   1.000000
    8       -1.586501   1.000000
    9       -1.130543   1.000000
   10       -0.168068   1.000000
   11        0.145995   1.000000
   12        0.770869   1.000000
   13        1.569043   1.000000
   14        2.847634   1.000000
   15        2.973832   1.000000
   16        3.559198   1.000000
   17        3.771445   1.000000
   18        4.207722   1.000000
   19        4.273644   1.000000
   20        4.377277   1.000000
   21        4.702904   1.000000
   22        4.844663   1.000000
   23        5.034751   1.000000
   24        5.127067   1.000000
   25        5.751272   1.000000
   26        6.716591   1.000000
   27        6.844621   1.000000
   28        8.027285   1.000000
   29        8.870137   1.000000
   30       10.122765   0.999173
   31       10.390931   0.585377
   32       12.631791   0.000000
   33       12.829315   0.000000
   34       12.913879   0.000000
   35       13.125828   0.000000
   36       13.626729   0.000000
   37       13.705548   0.000000
   38       14.459170   0.000000
   39       14.783531   0.000000
   40       15.466657   0.000000
 
  0.4285714E+00  0.3992459E-15  0.1250000E+00  0.1530612E-01
    1       -9.516520   1.000000
    2       -9.249325   1.000000
    3       -8.822589   1.000000
    4       -8.341315   1.000000
    5       -7.813767   1.000000
    6       -7.352106   1.000000
    7       -2.460824   1.000000
    8       -1.551706   1.000000
    9       -0.921324   1.000000
   10       -0.314288   1.000000
   11        0.184032   1.000000
   12        0.590314   1.000000
   13        2.089900   1.000000
   14        2.704498   1.000000
   15        2.735841   1.000000
   16        3.291548   1.000000
   17        3.752718   1.000000
   18        4.158310   1.000000
   19        4.284226   1.000000
   20        4.577766   1.000000
   21        4.868940   1.000000