 vasp.5.4.4.18Apr17-6-g9f103f2a35 (build Nov 01 2019 12:17:22) complex          
  
 executed on             LinuxIFC date 2023.05.19  18:18:47
 running on   16 total cores
 distrk:  each k-point on   16 cores,    1 groups
 distr:  one band on NCORES_PER_BAND=   4 cores,    4 groups


--------------------------------------------------------------------------------------------------------


 INCAR:
 POTCAR:    PAW_PBE N 08Apr2002                   
 POTCAR:    PAW_PBE Si 05Jan2001                  
 POTCAR:    PAW_PBE N 08Apr2002                   
   VRHFIN =N: s2p3                                                              
   LEXCH  = PE                                                                  
   EATOM  =   264.5486 eV,   19.4438 Ry                                         
                                                                                
   TITEL  = PAW_PBE N 08Apr2002                                                 
   LULTRA =        F    use ultrasoft PP ?                                      
   IUNSCR =        1    unscreen: 0-lin 1-nonlin 2-no                           
   RPACOR =    1.200    partial core radius                                     
   POMASS =   14.001; ZVAL   =    5.000    mass and valenz                      
   RCORE  =    1.500    outmost cutoff radius                                   
   RWIGS  =    1.400; RWIGS  =    0.741    wigner-seitz radius (au A)           
   ENMAX  =  400.000; ENMIN  =  300.000 eV                                      
   ICORE  =        2    local potential                                         
   LCOR   =        T    correct aug charges                                     
   LPAW   =        T    paw PP                                                  
   EAUG   =  627.112                                                            
   DEXC   =    0.000                                                            
   RMAX   =    1.529    core radius for proj-oper                               
   RAUG   =    1.300    factor for augmentation sphere                          
   RDEP   =    1.514    radius for radial grids                                 
   RDEPT  =    1.338    core radius for aug-charge                              
                                                                                
   Atomic configuration                                                         
    4 entries                                                                   
     n  l   j            E        occ.                                          
     1  0  0.50      -384.7179   2.0000                                         
     2  0  0.50       -18.5828   2.0000                                         
     2  1  0.50        -7.0898   3.0000                                         
     3  2  1.50        -6.8029   0.0000                                         
   Description                                                                  
     l       E           TYP  RCUT    TYP  RCUT                                 
     0    -18.5828119     23  1.200                                             
     0    -13.5018863     23  1.200                                             
     1     -7.0897853     23  1.500                                             
     1      9.5240782     23  1.500                                             
     2     -6.8029130      7  1.500                                             
  local pseudopotential read in
  partial core-charges read in
  partial kinetic energy density read in
  atomic valenz-charges read in
  non local Contribution for L=           0  read in
    real space projection operators read in
  non local Contribution for L=           0  read in
    real space projection operators read in
  non local Contribution for L=           1  read in
    real space projection operators read in
  non local Contribution for L=           1  read in
    real space projection operators read in
    PAW grid and wavefunctions read in
 
   number of l-projection  operators is LMAX  =           4
   number of lm-projection operators is LMMAX =           8
 
 POTCAR:    PAW_PBE Si 05Jan2001                  
   VRHFIN =Si: s2p2                                                             
   LEXCH  = PE                                                                  
   EATOM  =   103.0669 eV,    7.5752 Ry                                         
                                                                                
   TITEL  = PAW_PBE Si 05Jan2001                                                
   LULTRA =        F    use ultrasoft PP ?                                      
   IUNSCR =        1    unscreen: 0-lin 1-nonlin 2-no                           
   RPACOR =    1.500    partial core radius                                     
   POMASS =   28.085; ZVAL   =    4.000    mass and valenz                      
   RCORE  =    1.900    outmost cutoff radius                                   
   RWIGS  =    2.480; RWIGS  =    1.312    wigner-seitz radius (au A)           
   ENMAX  =  245.345; ENMIN  =  184.009 eV                                      
   ICORE  =        2    local potential                                         
   LCOR   =        T    correct aug charges                                     
   LPAW   =        T    paw PP                                                  
   EAUG   =  322.069                                                            
   DEXC   =    0.000                                                            
   RMAX   =    1.950    core radius for proj-oper                               
   RAUG   =    1.300    factor for augmentation sphere                          
   RDEP   =    1.993    radius for radial grids                                 
   RDEPT  =    1.837    core radius for aug-charge                              
                                                                                
   Atomic configuration                                                         
    6 entries                                                                   
     n  l   j            E        occ.                                          
     1  0  0.50     -1785.8828   2.0000                                         
     2  0  0.50      -139.4969   2.0000                                         
     2  1  1.50       -95.5546   6.0000                                         
     3  0  0.50       -10.8127   2.0000                                         
     3  1  0.50        -4.0811   2.0000                                         
     3  2  1.50        -4.0817   0.0000                                         
   Description                                                                  
     l       E           TYP  RCUT    TYP  RCUT                                 
     0    -10.8127223     23  1.900                                             
     0     -7.6451159     23  1.900                                             
     1     -4.0811372     23  1.900                                             
     1      2.4879257     23  1.900                                             
     2     -4.0817478      7  1.900                                             
  local pseudopotential read in
  partial core-charges read in
  partial kinetic energy density read in
  atomic valenz-charges read in
  non local Contribution for L=           0  read in
    real space projection operators read in
  non local Contribution for L=           0  read in
    real space projection operators read in
  non local Contribution for L=           1  read in
    real space projection operators read in
  non local Contribution for L=           1  read in
    real space projection operators read in
    PAW grid and wavefunctions read in
 
   number of l-projection  operators is LMAX  =           4
   number of lm-projection operators is LMMAX =           8
 
 Optimization of the real space projectors (new method)

 maximal supplied QI-value         = 25.13
 optimisation between [QCUT,QGAM] = [ 10.05, 20.36] = [ 28.30,116.06] Ry 
 Optimized for a Real-space Cutoff    1.70 Angstroem

   l    n(q)    QCUT    max X(q) W(low)/X(q) W(high)/X(q)  e(spline) 
   0     10    10.053    79.467    0.61E-04    0.98E-04    0.61E-06
   0     10    10.053    66.151    0.60E-04    0.98E-04    0.61E-06
   1     10    10.053     8.350    0.17E-03    0.71E-03    0.45E-05
   1     10    10.053     5.531    0.18E-03    0.77E-03    0.49E-05
 Optimization of the real space projectors (new method)

 maximal supplied QI-value         = 19.84
 optimisation between [QCUT,QGAM] = [ 10.12, 20.44] = [ 28.68,116.96] Ry 
 Optimized for a Real-space Cutoff    1.38 Angstroem

   l    n(q)    QCUT    max X(q) W(low)/X(q) W(high)/X(q)  e(spline) 
   0      8    10.119   159.560    0.58E-04    0.11E-03    0.54E-07
   0      8    10.119   115.863    0.56E-04    0.11E-03    0.54E-07
   1      8    10.119    88.339    0.22E-03    0.17E-03    0.19E-06
   1      8    10.119    48.592    0.22E-03    0.17E-03    0.18E-06
  PAW_PBE N 08Apr2002                   :
 energy of atom  1       EATOM= -264.5486
 kinetic energy error for atom=    0.0736 (will be added to EATOM!!)
  PAW_PBE Si 05Jan2001                  :
 energy of atom  2       EATOM= -103.0669
 kinetic energy error for atom=    0.0012 (will be added to EATOM!!)
 
 
 POSCAR: Si6 N8                                  
  positions in direct lattice
  No initial velocities read in
 exchange correlation table for  LEXCH =        8
   RHO(1)=    0.500       N(1)  =     2000
   RHO(2)=  100.500       N(2)  =     4000
 


--------------------------------------------------------------------------------------------------------


 ion  position               nearest neighbor table
   1  0.197  0.832  0.750-   9 1.79  10 1.79  10 1.79   7 2.06
   2  0.366  0.197  0.250-  10 1.79  12 1.79  12 1.79   8 2.06
   3  0.832  0.634  0.250-  11 1.79   9 1.79   9 1.79   8 2.06
   4  0.168  0.366  0.750-  12 1.79  13 1.79  13 1.79   7 2.06
   5  0.634  0.803  0.750-  14 1.79  11 1.79  11 1.79   7 2.06
   6  0.803  0.168  0.250-  13 1.79  14 1.79  14 1.79   8 2.06
   7  0.333  0.667  0.750-   5 2.06   4 2.06   1 2.06  11 2.66  11 2.66  13 2.66  13 2.66  10 2.66
                            10 2.66  12 2.73  14 2.73   9 2.73
   8  0.667  0.333  0.250-   2 2.06   3 2.06   6 2.06  12 2.66  12 2.66   9 2.66   9 2.66  14 2.66
                            14 2.66  11 2.73  10 2.73  13 2.73
   9  0.964  0.612  0.750-   1 1.79   3 1.79   3 1.79  13 2.53  13 2.53   8 2.66   8 2.66   7 2.73

  10  0.351  0.964  0.250-   2 1.79   1 1.79   1 1.79  14 2.53  14 2.53   7 2.66   7 2.66   8 2.73

  11  0.612  0.649  0.250-   3 1.79   5 1.79   5 1.79  12 2.53  12 2.53   7 2.66   7 2.66   8 2.73

  12  0.388  0.351  0.750-   4 1.79   2 1.79   2 1.79  11 2.53  11 2.53   8 2.66   8 2.66   7 2.73

  13  0.036  0.388  0.250-   6 1.79   4 1.79   4 1.79   9 2.53   9 2.53   7 2.66   7 2.66   8 2.73

  14  0.649  0.036  0.750-   5 1.79   6 1.79   6 1.79  10 2.53  10 2.53   8 2.66   8 2.66   7 2.73

 
  LATTYP: Found a hexagonal cell.
 ALAT       =     7.8824351010
 C/A-ratio  =     0.3517300815
  
  Lattice vectors:
  
 A1 = (   3.9412175556,  -6.8263890382,   0.0000000000)
 A2 = (   3.9412175454,   6.8263890441,   0.0000000000)
 A3 = (   0.0000000000,   0.0000000000,   2.7724895401)


Analysis of symmetry for initial positions (statically):
=====================================================================
 Subroutine PRICEL returns:
 Original cell was already a primitive cell.
 

 Routine SETGRP: Setting up the symmetry group for a 
 hexagonal supercell.


 Subroutine GETGRP returns: Found 12 space group operations
 (whereof  6 operations were pure point group operations)
 out of a pool of 24 trial point group operations.


The static configuration has the point symmetry S_6 .
 The point group associated with its full space group is C_6h.


Analysis of symmetry for dynamics (positions and initial velocities):
=====================================================================
 Subroutine PRICEL returns:
 Original cell was already a primitive cell.
 

 Routine SETGRP: Setting up the symmetry group for a 
 hexagonal supercell.


 Subroutine GETGRP returns: Found 12 space group operations
 (whereof  6 operations were pure point group operations)
 out of a pool of 24 trial point group operations.


The dynamic configuration has the point symmetry S_6 .
 The point group associated with its full space group is C_6h.


 Subroutine INISYM returns: Found 12 space group operations
 (whereof  6 operations are pure point group operations),
 and found     1 'primitive' translations

 
 
 KPOINTS: Automatic mesh                          

Automatic generation of k-mesh.
 generate k-points for:    7    7   16
Space group operators:
 irot       det(A)        alpha          n_x          n_y          n_z        tau_x        tau_y        tau_z
    1     1.000000     0.000001     1.000000     0.000000     0.000000     0.000000     0.000000     0.000000
    2    -1.000000     0.000001     1.000000     0.000000     0.000000     0.000000     0.000000     0.000000
    3     1.000000   120.000000     0.000000     0.000000    -1.000000     0.000000     0.000000     0.000000
    4    -1.000000   120.000000     0.000000     0.000000    -1.000000     0.000000     0.000000     0.000000
    5     1.000000   120.000000     0.000000     0.000000     1.000000     0.000000     0.000000     0.000000
    6    -1.000000   120.000000     0.000000     0.000000     1.000000     0.000000     0.000000     0.000000
    7     1.000000    60.000000     0.000000     0.000000    -1.000000     0.000000     0.000000     0.500000
    8    -1.000000    60.000000     0.000000     0.000000    -1.000000     0.000000     0.000000     0.500000
    9     1.000000   180.000000     0.000000     0.000000     1.000000     0.000000     0.000000     0.500000
   10    -1.000000   180.000000     0.000000     0.000000     1.000000     0.000000     0.000000     0.500000
   11     1.000000    60.000000     0.000000     0.000000     1.000000     0.000000     0.000000     0.500000
   12    -1.000000    60.000000     0.000000     0.000000     1.000000     0.000000     0.000000     0.500000
 
 Subroutine IBZKPT returns following result:
 ===========================================
 
 Found     81 irreducible k-points:
 
 Following reciprocal coordinates:
            Coordinates               Weight
  0.000000  0.000000  0.000000      1.000000
  0.142857  0.000000  0.000000      6.000000
  0.285714  0.000000  0.000000      6.000000
  0.428571  0.000000  0.000000      6.000000
  0.142857  0.142857  0.000000      6.000000
  0.285714  0.142857  0.000000      6.000000
  0.428571  0.142857  0.000000      6.000000
 -0.428571  0.142857  0.000000      6.000000
  0.285714  0.285714  0.000000      6.000000
  0.000000  0.000000  0.062500      2.000000
  0.142857  0.000000  0.062500     12.000000
  0.285714  0.000000  0.062500     12.000000
  0.428571  0.000000  0.062500     12.000000
  0.142857  0.142857  0.062500     12.000000
  0.285714  0.142857  0.062500     12.000000
  0.428571  0.142857  0.062500     12.000000
 -0.428571  0.142857  0.062500     12.000000
  0.285714  0.285714  0.062500     12.000000
  0.000000  0.000000  0.125000      2.000000
  0.142857  0.000000  0.125000     12.000000
  0.285714  0.000000  0.125000     12.000000
  0.428571  0.000000  0.125000     12.000000
  0.142857  0.142857  0.125000     12.000000
  0.285714  0.142857  0.125000     12.000000
  0.428571  0.142857  0.125000     12.000000
 -0.428571  0.142857  0.125000     12.000000
  0.285714  0.285714  0.125000     12.000000
  0.000000  0.000000  0.187500      2.000000
  0.142857  0.000000  0.187500     12.000000
  0.285714  0.000000  0.187500     12.000000
  0.428571  0.000000  0.187500     12.000000
  0.142857  0.142857  0.187500     12.000000
  0.285714  0.142857  0.187500     12.000000
  0.428571  0.142857  0.187500     12.000000
 -0.428571  0.142857  0.187500     12.000000
  0.285714  0.285714  0.187500     12.000000
  0.000000  0.000000  0.250000      2.000000
  0.142857  0.000000  0.250000     12.000000
  0.285714  0.000000  0.250000     12.000000
  0.428571  0.000000  0.250000     12.000000
  0.142857  0.142857  0.250000     12.000000
  0.285714  0.142857  0.250000     12.000000
  0.428571  0.142857  0.250000     12.000000
 -0.428571  0.142857  0.250000     12.000000
  0.285714  0.285714  0.250000     12.000000
  0.000000  0.000000  0.312500      2.000000
  0.142857  0.000000  0.312500     12.000000
  0.285714  0.000000  0.312500     12.000000
  0.428571  0.000000  0.312500     12.000000
  0.142857  0.142857  0.312500     12.000000
  0.285714  0.142857  0.312500     12.000000
  0.428571  0.142857  0.312500     12.000000
 -0.428571  0.142857  0.312500     12.000000
  0.285714  0.285714  0.312500     12.000000
  0.000000  0.000000  0.375000      2.000000
  0.142857  0.000000  0.375000     12.000000
  0.285714  0.000000  0.375000     12.000000
  0.428571  0.000000  0.375000     12.000000
  0.142857  0.142857  0.375000     12.000000
  0.285714  0.142857  0.375000     12.000000
  0.428571  0.142857  0.375000     12.000000
 -0.428571  0.142857  0.375000     12.000000
  0.285714  0.285714  0.375000     12.000000
  0.000000  0.000000  0.437500      2.000000
  0.142857  0.000000  0.437500     12.000000
  0.285714  0.000000  0.437500     12.000000
  0.428571  0.000000  0.437500     12.000000
  0.142857  0.142857  0.437500     12.000000
  0.285714  0.142857  0.437500     12.000000
  0.428571  0.142857  0.437500     12.000000
 -0.428571  0.142857  0.437500     12.000000
  0.285714  0.285714  0.437500     12.000000
  0.000000  0.000000  0.500000      1.000000
  0.142857  0.000000  0.500000      6.000000
  0.285714  0.000000  0.500000      6.000000
  0.428571  0.000000  0.500000      6.000000
  0.142857  0.142857  0.500000      6.000000
  0.285714  0.142857  0.500000      6.000000
  0.428571  0.142857  0.500000      6.000000
 -0.428571  0.142857  0.500000      6.000000
  0.285714  0.285714  0.500000      6.000000
 
 Following cartesian coordinates:
            Coordinates               Weight
  0.000000  0.000000  0.000000      1.000000
  0.018123 -0.010464  0.000000      6.000000
  0.036247 -0.020927  0.000000      6.000000
  0.054370 -0.031391  0.000000      6.000000
  0.036247  0.000000  0.000000      6.000000
  0.054370 -0.010464  0.000000      6.000000
  0.072494 -0.020927  0.000000      6.000000
 -0.036247  0.041854  0.000000      6.000000
  0.072494  0.000000  0.000000      6.000000
  0.000000  0.000000  0.022543      2.000000
  0.018123 -0.010464  0.022543     12.000000
  0.036247 -0.020927  0.022543     12.000000
  0.054370 -0.031391  0.022543     12.000000
  0.036247  0.000000  0.022543     12.000000
  0.054370 -0.010464  0.022543     12.000000
  0.072494 -0.020927  0.022543     12.000000
 -0.036247  0.041854  0.022543     12.000000
  0.072494  0.000000  0.022543     12.000000
  0.000000  0.000000  0.045086      2.000000
  0.018123 -0.010464  0.045086     12.000000
  0.036247 -0.020927  0.045086     12.000000
  0.054370 -0.031391  0.045086     12.000000
  0.036247  0.000000  0.045086     12.000000
  0.054370 -0.010464  0.045086     12.000000
  0.072494 -0.020927  0.045086     12.000000
 -0.036247  0.041854  0.045086     12.000000
  0.072494  0.000000  0.045086     12.000000
  0.000000  0.000000  0.067629      2.000000
  0.018123 -0.010464  0.067629     12.000000
  0.036247 -0.020927  0.067629     12.000000
  0.054370 -0.031391  0.067629     12.000000
  0.036247  0.000000  0.067629     12.000000
  0.054370 -0.010464  0.067629     12.000000
  0.072494 -0.020927  0.067629     12.000000
 -0.036247  0.041854  0.067629     12.000000
  0.072494  0.000000  0.067629     12.000000
  0.000000  0.000000  0.090172      2.000000
  0.018123 -0.010464  0.090172     12.000000
  0.036247 -0.020927  0.090172     12.000000
  0.054370 -0.031391  0.090172     12.000000
  0.036247  0.000000  0.090172     12.000000
  0.054370 -0.010464  0.090172     12.000000
  0.072494 -0.020927  0.090172     12.000000
 -0.036247  0.041854  0.090172     12.000000
  0.072494  0.000000  0.090172     12.000000
  0.000000  0.000000  0.112715      2.000000
  0.018123 -0.010464  0.112715     12.000000
  0.036247 -0.020927  0.112715     12.000000
  0.054370 -0.031391  0.112715     12.000000
  0.036247  0.000000  0.112715     12.000000
  0.054370 -0.010464  0.112715     12.000000
  0.072494 -0.020927  0.112715     12.000000
 -0.036247  0.041854  0.112715     12.000000
  0.072494  0.000000  0.112715     12.000000
  0.000000  0.000000  0.135257      2.000000
  0.018123 -0.010464  0.135257     12.000000
  0.036247 -0.020927  0.135257     12.000000
  0.054370 -0.031391  0.135257     12.000000
  0.036247  0.000000  0.135257     12.000000
  0.054370 -0.010464  0.135257     12.000000
  0.072494 -0.020927  0.135257     12.000000
 -0.036247  0.041854  0.135257     12.000000
  0.072494  0.000000  0.135257     12.000000
  0.000000  0.000000  0.157800      2.000000
  0.018123 -0.010464  0.157800     12.000000
  0.036247 -0.020927  0.157800     12.000000
  0.054370 -0.031391  0.157800     12.000000
  0.036247  0.000000  0.157800     12.000000
  0.054370 -0.010464  0.157800     12.000000
  0.072494 -0.020927  0.157800     12.000000
 -0.036247  0.041854  0.157800     12.000000
  0.072494  0.000000  0.157800     12.000000
  0.000000  0.000000  0.180343      1.000000
  0.018123 -0.010464  0.180343      6.000000
  0.036247 -0.020927  0.180343      6.000000
  0.054370 -0.031391  0.180343      6.000000
  0.036247  0.000000  0.180343      6.000000
  0.054370 -0.010464  0.180343      6.000000
  0.072494 -0.020927  0.180343      6.000000
 -0.036247  0.041854  0.180343      6.000000
  0.072494  0.000000  0.180343      6.000000
 


--------------------------------------------------------------------------------------------------------




 Dimension of arrays:
   k-points           NKPTS =     81   k-points in BZ     NKDIM =     81   number of bands    NBANDS=     40
   number of dos      NEDOS =    301   number of ions     NIONS =     14
   non local maximal  LDIM  =      4   non local SUM 2l+1 LMDIM =      8
   total plane-waves  NPLWV =  52488
   max r-space proj   IRMAX =   7263   max aug-charges    IRDMAX=  11962
   dimension x,y,z NGX =    54 NGY =   54 NGZ =   18
   dimension x,y,z NGXF=   108 NGYF=  108 NGZF=   36
   support grid    NGXF=   108 NGYF=  108 NGZF=   36
   ions per type =               6   8
   NGX,Y,Z   is equivalent  to a cutoff of  11.39, 11.39, 10.79 a.u.
   NGXF,Y,Z  is equivalent  to a cutoff of  22.78, 22.78, 21.59 a.u.

 SYSTEM =  unknown system                          
 POSCAR =  Si6 N8                                  

 Startparameter for this run:
   NWRITE =      2    write-flag & timer
   PREC   = accura    normal or accurate (medium, high low for compatibility)
   ISTART =      0    job   : 0-new  1-cont  2-samecut
   ICHARG =      2    charge: 1-file 2-atom 10-const
   ISPIN  =      1    spin polarized calculation?
   LNONCOLLINEAR =      F non collinear calculations
   LSORBIT =      F    spin-orbit coupling
   INIWAV =      1    electr: 0-lowe 1-rand  2-diag
   LASPH  =      F    aspherical Exc in radial PAW
   METAGGA=      F    non-selfconsistent MetaGGA calc.

 Electronic Relaxation 1
   ENCUT  =  400.0 eV  29.40 Ry    5.42 a.u.  12.85 12.85  4.52*2*pi/ulx,y,z
   ENINI  =  400.0     initial cutoff
   ENAUG  =  627.1 eV  augmentation charge cutoff
   NELM   =     60;   NELMIN=  2; NELMDL= -5     # of ELM steps 
   EDIFF  = 0.1E-03   stopping-criterion for ELM
   LREAL  =      T    real-space projection
   NLSPLINE    = F    spline interpolate recip. space projectors
   LCOMPAT=      F    compatible to vasp.4.4
   GGA_COMPAT  = T    GGA compatible to vasp.4.4-vasp.4.6
   LMAXPAW     = -100 max onsite density
   LMAXMIX     =    2 max onsite mixed and CHGCAR
   VOSKOWN=      0    Vosko Wilk Nusair interpolation
   ROPT   =   -0.00025  -0.00025
 Ionic relaxation
   EDIFFG = 0.1E-02   stopping-criterion for IOM
   NSW    =    100    number of steps for IOM
   NBLOCK =      1;   KBLOCK =    100    inner block; outer block 
   IBRION =      2    ionic relax: 0-MD 1-quasi-New 2-CG
   NFREE  =      1    steps in history (QN), initial steepest desc. (CG)
   ISIF   =      2    stress and relaxation
   IWAVPR =     11    prediction:  0-non 1-charg 2-wave 3-comb
   ISYM   =      2    0-nonsym 1-usesym 2-fastsym
   LCORR  =      T    Harris-Foulkes like correction to forces

   POTIM  = 0.5000    time-step for ionic-motion
   TEIN   =    0.0    initial temperature
   TEBEG  =    0.0;   TEEND  =   0.0 temperature during run
   SMASS  =  -3.00    Nose mass-parameter (am)
   estimated Nose-frequenzy (Omega)   =  0.10E-29 period in steps =****** mass=  -0.142E-26a.u.
   SCALEE = 1.0000    scale energy and forces
   NPACO  =    256;   APACO  = 16.0  distance and # of slots for P.C.
   PSTRESS=    0.0 pullay stress

  Mass of Ions in am
   POMASS =  14.00 28.09
  Ionic Valenz
   ZVAL   =   5.00  4.00
  Atomic Wigner-Seitz radii
   RWIGS  =  -1.00 -1.00
  virtual crystal weights 
   VCA    =   1.00  1.00
   NELECT =      62.0000    total number of electrons
   NUPDOWN=      -1.0000    fix difference up-down

 DOS related values:
   EMIN   =  10.00;   EMAX   =-10.00  energy-range for DOS
   EFERMI =   0.00
   ISMEAR =     2;   SIGMA  =   0.10  broadening in eV -4-tet -1-fermi 0-gaus

 Electronic relaxation 2 (details)
   IALGO  =     68    algorithm
   LDIAG  =      T    sub-space diagonalisation (order eigenvalues)
   LSUBROT=      F    optimize rotation matrix (better conditioning)
   TURBO    =      0    0=normal 1=particle mesh
   IRESTART =      0    0=no restart 2=restart with 2 vectors
   NREBOOT  =      0    no. of reboots
   NMIN     =      0    reboot dimension
   EREF     =   0.00    reference energy to select bands
   IMIX   =      4    mixing-type and parameters
     AMIX     =   0.40;   BMIX     =  1.00
     AMIX_MAG =   1.60;   BMIX_MAG =  1.00
     AMIN     =   0.10
     WC   =   100.;   INIMIX=   1;  MIXPRE=   1;  MAXMIX= -45

 Intra band minimization:
   WEIMIN = 0.0010     energy-eigenvalue tresh-hold
   EBREAK =  0.63E-06  absolut break condition
   DEPER  =   0.30     relativ break condition  

   TIME   =   0.40     timestep for ELM

  volume/ion in A,a.u.               =      10.66        71.91
  Fermi-wavevector in a.u.,A,eV,Ry     =   1.221701  2.308680 20.307422  1.492553
  Thomas-Fermi vector in A             =   2.356874
 
 Write flags
   LWAVE        =      F    write WAVECAR
   LDOWNSAMPLE  =      F    k-point downsampling of WAVECAR
   LCHARG       =      F    write CHGCAR
   LVTOT        =      F    write LOCPOT, total local potential
   LVHAR        =      F    write LOCPOT, Hartree potential only
   LELF         =      F    write electronic localiz. function (ELF)
   LORBIT       =      0    0 simple, 1 ext, 2 COOP (PROOUT), +10 PAW based schemes


 Dipole corrections
   LMONO  =      F    monopole corrections only (constant potential shift)
   LDIPOL =      F    correct potential (dipole corrections)
   IDIPOL =      0    1-x, 2-y, 3-z, 4-all directions 
   EPSILON=  1.0000000 bulk dielectric constant

 Exchange correlation treatment:
   GGA     =    --    GGA type
   LEXCH   =     8    internal setting for exchange type
   VOSKOWN=      0    Vosko Wilk Nusair interpolation
   LHFCALC =     F    Hartree Fock is set to
   LHFONE  =     F    Hartree Fock one center treatment
   AEXX    =    0.0000 exact exchange contribution

 Linear response parameters
   LEPSILON=     F    determine dielectric tensor
   LRPA    =     F    only Hartree local field effects (RPA)
   LNABLA  =     F    use nabla operator in PAW spheres
   LVEL    =     F    velocity operator in full k-point grid
   LINTERFAST=   F  fast interpolation
   KINTER  =     0    interpolate to denser k-point grid
   CSHIFT  =0.1000    complex shift for real part using Kramers Kronig
   OMEGAMAX=  -1.0    maximum frequency
   DEG_THRESHOLD= 0.2000000E-02 threshold for treating states as degnerate
   RTIME   =   -0.100 relaxation time in fs
  (WPLASMAI=    0.000 imaginary part of plasma frequency in eV, 0.658/RTIME)
   DFIELD  = 0.0000000 0.0000000 0.0000000 field for delta impulse in time
 
 Orbital magnetization related:
   ORBITALMAG=     F  switch on orbital magnetization
   LCHIMAG   =     F  perturbation theory with respect to B field
   DQ        =  0.001000  dq finite difference perturbation B field
   LLRAUG    =     F  two centre corrections for induced B field



--------------------------------------------------------------------------------------------------------


 conjugate gradient relaxation of ions
 charge density and potential will be updated during run
 non-spin polarized calculation
 RMM-DIIS sequential band-by-band and
  variant of blocked Davidson during initial phase
 perform sub-space diagonalisation
    before iterative eigenvector-optimisation
 modified Broyden-mixing scheme, WC =      100.0
 initial mixing is a Kerker type mixing with AMIX =  0.4000 and BMIX =      1.0000
 Hartree-type preconditioning will be used
 using additional bands            9
 real space projection scheme for non local part
 use partial core corrections
 calculate Harris-corrections to forces 
   (improved forces if not selfconsistent)
 use gradient corrections 
 use of overlap-Matrix (Vanderbilt PP)
 Methfessel and Paxton  Order N= 2 SIGMA  =   0.10


--------------------------------------------------------------------------------------------------------


  energy-cutoff  :      400.00
  volume of cell :      149.18
      direct lattice vectors                 reciprocal lattice vectors
     3.941217556 -6.826389038  0.000000000     0.126864349 -0.073245166  0.000000000
     3.941217545  6.826389044  0.000000000     0.126864349  0.073245166  0.000000000
     0.000000000  0.000000000  2.772489540     0.000000000  0.000000000  0.360686663

  length of vectors
     7.882435101  7.882435101  2.772489540     0.146490332  0.146490332  0.360686663


 
 k-points in units of 2pi/SCALE and weight: Automatic mesh                          
   0.00000000  0.00000000  0.00000000       0.001
   0.01812348 -0.01046360  0.00000000       0.008
   0.03624696 -0.02092719  0.00000000       0.008
   0.05437044 -0.03139079  0.00000000       0.008
   0.03624696  0.00000000  0.00000000       0.008
   0.05437044 -0.01046360  0.00000000       0.008
   0.07249391 -0.02092719  0.00000000       0.008
  -0.03624696  0.04185438  0.00000000       0.008
   0.07249391  0.00000000  0.00000000       0.008
   0.00000000  0.00000000  0.02254292       0.003
   0.01812348 -0.01046360  0.02254292       0.015
   0.03624696 -0.02092719  0.02254292       0.015
   0.05437044 -0.03139079  0.02254292       0.015
   0.03624696  0.00000000  0.02254292       0.015
   0.05437044 -0.01046360  0.02254292       0.015
   0.07249391 -0.02092719  0.02254292       0.015
  -0.03624696  0.04185438  0.02254292       0.015
   0.07249391  0.00000000  0.02254292       0.015
   0.00000000  0.00000000  0.04508583       0.003
   0.01812348 -0.01046360  0.04508583       0.015
   0.03624696 -0.02092719  0.04508583       0.015
   0.05437044 -0.03139079  0.04508583       0.015
   0.03624696  0.00000000  0.04508583       0.015
   0.05437044 -0.01046360  0.04508583       0.015
   0.07249391 -0.02092719  0.04508583       0.015
  -0.03624696  0.04185438  0.04508583       0.015
   0.07249391  0.00000000  0.04508583       0.015
   0.00000000  0.00000000  0.06762875       0.003
   0.01812348 -0.01046360  0.06762875       0.015
   0.03624696 -0.02092719  0.06762875       0.015
   0.05437044 -0.03139079  0.06762875       0.015
   0.03624696  0.00000000  0.06762875       0.015
   0.05437044 -0.01046360  0.06762875       0.015
   0.07249391 -0.02092719  0.06762875       0.015
  -0.03624696  0.04185438  0.06762875       0.015
   0.07249391  0.00000000  0.06762875       0.015
   0.00000000  0.00000000  0.09017167       0.003
   0.01812348 -0.01046360  0.09017167       0.015
   0.03624696 -0.02092719  0.09017167       0.015
   0.05437044 -0.03139079  0.09017167       0.015
   0.03624696  0.00000000  0.09017167       0.015
   0.05437044 -0.01046360  0.09017167       0.015
   0.07249391 -0.02092719  0.09017167       0.015
  -0.03624696  0.04185438  0.09017167       0.015
   0.07249391  0.00000000  0.09017167       0.015
   0.00000000  0.00000000  0.11271458       0.003
   0.01812348 -0.01046360  0.11271458       0.015
   0.03624696 -0.02092719  0.11271458       0.015
   0.05437044 -0.03139079  0.11271458       0.015
   0.03624696  0.00000000  0.11271458       0.015
   0.05437044 -0.01046360  0.11271458       0.015
   0.07249391 -0.02092719  0.11271458       0.015
  -0.03624696  0.04185438  0.11271458       0.015
   0.07249391  0.00000000  0.11271458       0.015
   0.00000000  0.00000000  0.13525750       0.003
   0.01812348 -0.01046360  0.13525750       0.015
   0.03624696 -0.02092719  0.13525750       0.015
   0.05437044 -0.03139079  0.13525750       0.015
   0.03624696  0.00000000  0.13525750       0.015
   0.05437044 -0.01046360  0.13525750       0.015
   0.07249391 -0.02092719  0.13525750       0.015
  -0.03624696  0.04185438  0.13525750       0.015
   0.07249391  0.00000000  0.13525750       0.015
   0.00000000  0.00000000  0.15780041       0.003
   0.01812348 -0.01046360  0.15780041       0.015
   0.03624696 -0.02092719  0.15780041       0.015
   0.05437044 -0.03139079  0.15780041       0.015
   0.03624696  0.00000000  0.15780041       0.015
   0.05437044 -0.01046360  0.15780041       0.015
   0.07249391 -0.02092719  0.15780041       0.015
  -0.03624696  0.04185438  0.15780041       0.015
   0.07249391  0.00000000  0.15780041       0.015
   0.00000000  0.00000000  0.18034333       0.001
   0.01812348 -0.01046360  0.18034333       0.008
   0.03624696 -0.02092719  0.18034333       0.008
   0.05437044 -0.03139079  0.18034333       0.008
   0.03624696  0.00000000  0.18034333       0.008
   0.05437044 -0.01046360  0.18034333       0.008
   0.07249391 -0.02092719  0.18034333       0.008
  -0.03624696  0.04185438  0.18034333       0.008
   0.07249391  0.00000000  0.18034333       0.008
 
 k-points in reciprocal lattice and weights: Automatic mesh                          
   0.00000000  0.00000000  0.00000000       0.001
   0.14285714  0.00000000  0.00000000       0.008
   0.28571429  0.00000000  0.00000000       0.008
   0.42857143  0.00000000  0.00000000       0.008
   0.14285714  0.14285714  0.00000000       0.008
   0.28571429  0.14285714  0.00000000       0.008
   0.42857143  0.14285714  0.00000000       0.008
  -0.42857143  0.14285714  0.00000000       0.008
   0.28571429  0.28571429  0.00000000       0.008
   0.00000000  0.00000000  0.06250000       0.003
   0.14285714  0.00000000  0.06250000       0.015
   0.28571429  0.00000000  0.06250000       0.015
   0.42857143  0.00000000  0.06250000       0.015
   0.14285714  0.14285714  0.06250000       0.015
   0.28571429  0.14285714  0.06250000       0.015
   0.42857143  0.14285714  0.06250000       0.015
  -0.42857143  0.14285714  0.06250000       0.015
   0.28571429  0.28571429  0.06250000       0.015
   0.00000000  0.00000000  0.12500000       0.003
   0.14285714  0.00000000  0.12500000       0.015
   0.28571429  0.00000000  0.12500000       0.015
   0.42857143  0.00000000  0.12500000       0.015
   0.14285714  0.14285714  0.12500000       0.015
   0.28571429  0.14285714  0.12500000       0.015
   0.42857143  0.14285714  0.12500000       0.015
  -0.42857143  0.14285714  0.12500000       0.015
   0.28571429  0.28571429  0.12500000       0.015
   0.00000000  0.00000000  0.18750000       0.003
   0.14285714  0.00000000  0.18750000       0.015
   0.28571429  0.00000000  0.18750000       0.015
   0.42857143  0.00000000  0.18750000       0.015
   0.14285714  0.14285714  0.18750000       0.015
   0.28571429  0.14285714  0.18750000       0.015
   0.42857143  0.14285714  0.18750000       0.015
  -0.42857143  0.14285714  0.18750000       0.015
   0.28571429  0.28571429  0.18750000       0.015
   0.00000000  0.00000000  0.25000000       0.003
   0.14285714  0.00000000  0.25000000       0.015
   0.28571429  0.00000000  0.25000000       0.015
   0.42857143  0.00000000  0.25000000       0.015
   0.14285714  0.14285714  0.25000000       0.015
   0.28571429  0.14285714  0.25000000       0.015
   0.42857143  0.14285714  0.25000000       0.015
  -0.42857143  0.14285714  0.25000000       0.015
   0.28571429  0.28571429  0.25000000       0.015
   0.00000000  0.00000000  0.31250000       0.003
   0.14285714  0.00000000  0.31250000       0.015
   0.28571429  0.00000000  0.31250000       0.015
   0.42857143  0.00000000  0.31250000       0.015
   0.14285714  0.14285714  0.31250000       0.015
   0.28571429  0.14285714  0.31250000       0.015
   0.42857143  0.14285714  0.31250000       0.015
  -0.42857143  0.14285714  0.31250000       0.015
   0.28571429  0.28571429  0.31250000       0.015
   0.00000000  0.00000000  0.37500000       0.003
   0.14285714  0.00000000  0.37500000       0.015
   0.28571429  0.00000000  0.37500000       0.015
   0.42857143  0.00000000  0.37500000       0.015
   0.14285714  0.14285714  0.37500000       0.015
   0.28571429  0.14285714  0.37500000       0.015
   0.42857143  0.14285714  0.37500000       0.015
  -0.42857143  0.14285714  0.37500000       0.015
   0.28571429  0.28571429  0.37500000       0.015
   0.00000000  0.00000000  0.43750000       0.003
   0.14285714  0.00000000  0.43750000       0.015
   0.28571429  0.00000000  0.43750000       0.015
   0.42857143  0.00000000  0.43750000       0.015
   0.14285714  0.14285714  0.43750000       0.015
   0.28571429  0.14285714  0.43750000       0.015
   0.42857143  0.14285714  0.43750000       0.015
  -0.42857143  0.14285714  0.43750000       0.015
   0.28571429  0.28571429  0.43750000       0.015
   0.00000000  0.00000000  0.50000000       0.001
   0.14285714  0.00000000  0.50000000       0.008
   0.28571429  0.00000000  0.50000000       0.008
   0.42857143  0.00000000  0.50000000       0.008
   0.14285714  0.14285714  0.50000000       0.008
   0.28571429  0.14285714  0.50000000       0.008
   0.42857143  0.14285714  0.50000000       0.008
  -0.42857143  0.14285714  0.50000000       0.008
   0.28571429  0.28571429  0.50000000       0.008
 
 position of ions in fractional coordinates (direct lattice) 
   0.19708959  0.83151770  0.75000000
   0.36557189  0.19708959  0.25000000
   0.83151770  0.63442811  0.25000000
   0.16848230  0.36557189  0.75000000
   0.63442811  0.80291041  0.75000000
   0.80291041  0.16848230  0.25000000
   0.33333333  0.66666667  0.75000000
   0.66666667  0.33333333  0.25000000
   0.96358754  0.61246345  0.75000000
   0.35112409  0.96358754  0.25000000
   0.61246345  0.64887591  0.25000000
   0.38753655  0.35112409  0.75000000
   0.03641246  0.38753655  0.25000000
   0.64887591  0.03641246  0.75000000
 
 position of ions in cartesian coordinates  (Angst):
   4.05396512  4.33085310  2.07936716
   2.21757131 -1.15012571  0.69312239
   5.77761137 -1.34541023  0.69312239
   2.10482373  1.34541024  2.07936716
   5.66486379  1.15012571  2.07936716
   3.82846998 -4.33085309  0.69312239
   3.94121755  2.27546302  2.07936716
   3.94121755 -2.27546301  0.69312239
   6.21155983 -2.39690964  2.07936716
   5.18156456  4.18091379  0.69312239
   4.97121282  0.24856561  0.69312239
   2.91122228 -0.24856561  2.07936716
   1.67087527  2.39690965  0.69312239
   2.70087055 -4.18091378  2.07936716
 


--------------------------------------------------------------------------------------------------------


 k-point  1 :   0.0000 0.0000 0.0000  plane waves:    2715
 k-point  2 :   0.1429 0.0000 0.0000  plane waves:    2722
 k-point  3 :   0.2857 0.0000 0.0000  plane waves:    2730
 k-point  4 :   0.4286 0.0000 0.0000  plane waves:    2728
 k-point  5 :   0.1429 0.1429 0.0000  plane waves:    2725
 k-point  6 :   0.2857 0.1429 0.0000  plane waves:    2723
 k-point  7 :   0.4286 0.1429 0.0000  plane waves:    2728
 k-point  8 :  -0.4286 0.1429 0.0000  plane waves:    2723
 k-point  9 :   0.2857 0.2857 0.0000  plane waves:    2723
 k-point 10 :   0.0000 0.0000 0.0625  plane waves:    2733
 k-point 11 :   0.1429 0.0000 0.0625  plane waves:    2728
 k-point 12 :   0.2857 0.0000 0.0625  plane waves:    2732
 k-point 13 :   0.4286 0.0000 0.0625  plane waves:    2726
 k-point 14 :   0.1429 0.1429 0.0625  plane waves:    2730
 k-point 15 :   0.2857 0.1429 0.0625  plane waves:    2720
 k-point 16 :   0.4286 0.1429 0.0625  plane waves:    2728
 k-point 17 :  -0.4286 0.1429 0.0625  plane waves:    2720
 k-point 18 :   0.2857 0.2857 0.0625  plane waves:    2722
 k-point 19 :   0.0000 0.0000 0.1250  plane waves:    2709
 k-point 20 :   0.1429 0.0000 0.1250  plane waves:    2727
 k-point 21 :   0.2857 0.0000 0.1250  plane waves:    2718
 k-point 22 :   0.4286 0.0000 0.1250  plane waves:    2723
 k-point 23 :   0.1429 0.1429 0.1250  plane waves:    2730
 k-point 24 :   0.2857 0.1429 0.1250  plane waves:    2719
 k-point 25 :   0.4286 0.1429 0.1250  plane waves:    2722
 k-point 26 :  -0.4286 0.1429 0.1250  plane waves:    2719
 k-point 27 :   0.2857 0.2857 0.1250  plane waves:    2726
 k-point 28 :   0.0000 0.0000 0.1875  plane waves:    2697
 k-point 29 :   0.1429 0.0000 0.1875  plane waves:    2711
 k-point 30 :   0.2857 0.0000 0.1875  plane waves:    2724
 k-point 31 :   0.4286 0.0000 0.1875  plane waves:    2720
 k-point 32 :   0.1429 0.1429 0.1875  plane waves:    2707
 k-point 33 :   0.2857 0.1429 0.1875  plane waves:    2716
 k-point 34 :   0.4286 0.1429 0.1875  plane waves:    2730
 k-point 35 :  -0.4286 0.1429 0.1875  plane waves:    2716
 k-point 36 :   0.2857 0.2857 0.1875  plane waves:    2730
 k-point 37 :   0.0000 0.0000 0.2500  plane waves:    2709
 k-point 38 :   0.1429 0.0000 0.2500  plane waves:    2715
 k-point 39 :   0.2857 0.0000 0.2500  plane waves:    2712
 k-point 40 :   0.4286 0.0000 0.2500  plane waves:    2712
 k-point 41 :   0.1429 0.1429 0.2500  plane waves:    2711
 k-point 42 :   0.2857 0.1429 0.2500  plane waves:    2708
 k-point 43 :   0.4286 0.1429 0.2500  plane waves:    2719
 k-point 44 :  -0.4286 0.1429 0.2500  plane waves:    2708
 k-point 45 :   0.2857 0.2857 0.2500  plane waves:    2723
 k-point 46 :   0.0000 0.0000 0.3125  plane waves:    2709
 k-point 47 :   0.1429 0.0000 0.3125  plane waves:    2704
 k-point 48 :   0.2857 0.0000 0.3125  plane waves:    2704
 k-point 49 :   0.4286 0.0000 0.3125  plane waves:    2710
 k-point 50 :   0.1429 0.1429 0.3125  plane waves:    2701
 k-point 51 :   0.2857 0.1429 0.3125  plane waves:    2711
 k-point 52 :   0.4286 0.1429 0.3125  plane waves:    2709
 k-point 53 :  -0.4286 0.1429 0.3125  plane waves:    2711
 k-point 54 :   0.2857 0.2857 0.3125  plane waves:    2712
 k-point 55 :   0.0000 0.0000 0.3750  plane waves:    2685
 k-point 56 :   0.1429 0.0000 0.3750  plane waves:    2690
 k-point 57 :   0.2857 0.0000 0.3750  plane waves:    2689
 k-point 58 :   0.4286 0.0000 0.3750  plane waves:    2701
 k-point 59 :   0.1429 0.1429 0.3750  plane waves:    2703
 k-point 60 :   0.2857 0.1429 0.3750  plane waves:    2699
 k-point 61 :   0.4286 0.1429 0.3750  plane waves:    2705
 k-point 62 :  -0.4286 0.1429 0.3750  plane waves:    2699
 k-point 63 :   0.2857 0.2857 0.3750  plane waves:    2700
 k-point 64 :   0.0000 0.0000 0.4375  plane waves:    2691
 k-point 65 :   0.1429 0.0000 0.4375  plane waves:    2670
 k-point 66 :   0.2857 0.0000 0.4375  plane waves:    2691
 k-point 67 :   0.4286 0.0000 0.4375  plane waves:    2698
 k-point 68 :   0.1429 0.1429 0.4375  plane waves:    2686
 k-point 69 :   0.2857 0.1429 0.4375  plane waves:    2690
 k-point 70 :   0.4286 0.1429 0.4375  plane waves:    2692
 k-point 71 :  -0.4286 0.1429 0.4375  plane waves:    2690
 k-point 72 :   0.2857 0.2857 0.4375  plane waves:    2698
 k-point 73 :   0.0000 0.0000 0.5000  plane waves:    2686
 k-point 74 :   0.1429 0.0000 0.5000  plane waves:    2668
 k-point 75 :   0.2857 0.0000 0.5000  plane waves:    2682
 k-point 76 :   0.4286 0.0000 0.5000  plane waves:    2686
 k-point 77 :   0.1429 0.1429 0.5000  plane waves:    2666
 k-point 78 :   0.2857 0.1429 0.5000  plane waves:    2676
 k-point 79 :   0.4286 0.1429 0.5000  plane waves:    2688
 k-point 80 :  -0.4286 0.1429 0.5000  plane waves:    2676
 k-point 81 :   0.2857 0.2857 0.5000  plane waves:    2682

 maximum and minimum number of plane-waves per node :       706      652

 maximum number of plane-waves:      2733
 maximum index in each direction: 
   IXMAX=   13   IYMAX=   12   IZMAX=    4
   IXMIN=  -13   IYMIN=  -13   IZMIN=   -5


 real space projection operators:
  total allocation   :       4526.25 KBytes
  max/ min on nodes  :       1169.88       1092.88


 parallel 3D FFT for wavefunctions:
    minimum data exchange during FFTs selected (reduces bandwidth)
 parallel 3D FFT for charge:
    minimum data exchange during FFTs selected (reduces bandwidth)


 total amount of memory used by VASP MPI-rank0    45908. kBytes
=======================================================================

   base      :      30000. kBytes
   nonlr-proj:       3164. kBytes
   fftplans  :       1365. kBytes
   grid      :       2140. kBytes
   one-center:         12. kBytes
   wavefun   :       9227. kBytes
 
     INWAV:  cpu time    0.0000: real time    0.0000
 Broyden mixing: mesh for mixing (old mesh)
   NGX = 25   NGY = 25   NGZ =  9
  (NGX  =108   NGY  =108   NGZ  = 36)
  gives a total of   5625 points

 initial charge density was supplied:
 charge density of overlapping atoms calculated
 number of electron      62.0000000 magnetization 
 keeping initial charge density in first step


--------------------------------------------------------------------------------------------------------


 Maximum index for non-local projection operator         1866
 Maximum index for augmentation-charges          910 (set IRDMAX)


--------------------------------------------------------------------------------------------------------


 First call to EWALD:  gamma=   0.334
 Maximum number of real-space cells 2x 2x 5
 Maximum number of reciprocal cells 4x 4x 2

    FEWALD:  cpu time    0.0018: real time    0.0018


--------------------------------------- Iteration      1(   1)  ---------------------------------------


    POTLOK:  cpu time    0.0208: real time    0.0245
    SETDIJ:  cpu time    0.0024: real time    0.0024
     EDDAV:  cpu time    4.2165: real time    4.3648
       DOS:  cpu time    0.0027: real time    0.0027
    --------------------------------------------
      LOOP:  cpu time    4.2424: real time    4.3944

 eigenvalue-minimisations  :  6536
 total energy-change (2. order) : 0.2307548E+03  (-0.2571219E+04)
 number of electron      62.0000000 magnetization 
 augmentation part       62.0000000 magnetization 

 Free energy of the ion-electron system (eV)
  ---------------------------------------------------
  alpha Z        PSCENC =        81.71489013
  Ewald energy   TEWEN  =     -2268.79317919
  -Hartree energ DENC   =      -507.40240032
  -exchange      EXHF   =         0.00000000
  -V(xc)+E(xc)   XCENC  =        54.28961699
  PAW double counting   =      1934.58678659    -1800.98643654
  entropy T*S    EENTRO =        -0.00097798
  eigenvalues    EBANDS =       325.97046866
  atomic energy  EATOM  =      2411.37598431
  Solvation  Ediel_sol  =         0.00000000
  ---------------------------------------------------
  free energy    TOTEN  =       230.75475265 eV

  energy without entropy =      230.75573063  energy(sigma->0) =      230.75499715


--------------------------------------------------------------------------------------------------------




--------------------------------------- Iteration      1(   2)  ---------------------------------------


     EDDAV:  cpu time   78.6627: real time   83.4669
       DOS:  cpu time    0.0032: real time    0.0032
    --------------------------------------------
      LOOP:  cpu time   78.6659: real time   83.4701

 eigenvalue-minimisations  :  8176
 total energy-change (2. order) :-0.3138790E+03  (-0.3004913E+03)
 number of electron      62.0000000 magnetization 
 augmentation part       62.0000000 magnetization 

 Free energy of the ion-electron system (eV)
  ---------------------------------------------------
  alpha Z        PSCENC =        81.71489013
  Ewald energy   TEWEN  =     -2268.79317919
  -Hartree energ DENC   =      -507.40240032
  -exchange      EXHF   =         0.00000000
  -V(xc)+E(xc)   XCENC  =        54.28961699
  PAW double counting   =      1934.58678659    -1800.98643654
  entropy T*S    EENTRO =         0.00020981
  eigenvalues    EBANDS =        12.09029933
  atomic energy  EATOM  =      2411.37598431
  Solvation  Ediel_sol  =         0.00000000
  ---------------------------------------------------
  free energy    TOTEN  =       -83.12422889 eV

  energy without entropy =      -83.12443869  energy(sigma->0) =      -83.12428134


--------------------------------------------------------------------------------------------------------




--------------------------------------- Iteration      1(   3)  ---------------------------------------


     EDDAV:  cpu time    3.5481: real time    3.5511
       DOS:  cpu time    0.0031: real time    0.0031
    --------------------------------------------
      LOOP:  cpu time    3.5511: real time    3.5542

 eigenvalue-minimisations  :  8112
 total energy-change (2. order) :-0.2117874E+02  (-0.2077126E+02)
 number of electron      62.0000000 magnetization 
 augmentation part       62.0000000 magnetization 

 Free energy of the ion-electron system (eV)
  ---------------------------------------------------
  alpha Z        PSCENC =        81.71489013
  Ewald energy   TEWEN  =     -2268.79317919
  -Hartree energ DENC   =      -507.40240032
  -exchange      EXHF   =         0.00000000
  -V(xc)+E(xc)   XCENC  =        54.28961699
  PAW double counting   =      1934.58678659    -1800.98643654
  entropy T*S    EENTRO =         0.00001148
  eigenvalues    EBANDS =        -9.08824235
  atomic energy  EATOM  =      2411.37598431
  Solvation  Ediel_sol  =         0.00000000
  ---------------------------------------------------
  free energy    TOTEN  =      -104.30296889 eV

  energy without entropy =     -104.30298038  energy(sigma->0) =     -104.30297176


--------------------------------------------------------------------------------------------------------




--------------------------------------- Iteration      1(   4)  ---------------------------------------


     EDDAV:  cpu time    3.6066: real time    3.6089
       DOS:  cpu time    0.0033: real time    0.0033
    --------------------------------------------
      LOOP:  cpu time    3.6099: real time    3.6122

 eigenvalue-minimisations  :  8328
 total energy-change (2. order) :-0.4943222E+00  (-0.4920963E+00)
 number of electron      62.0000000 magnetization 
 augmentation part       62.0000000 magnetization 

 Free energy of the ion-electron system (eV)
  ---------------------------------------------------
  alpha Z        PSCENC =        81.71489013
  Ewald energy   TEWEN  =     -2268.79317919
  -Hartree energ DENC   =      -507.40240032
  -exchange      EXHF   =         0.00000000
  -V(xc)+E(xc)   XCENC  =        54.28961699
  PAW double counting   =      1934.58678659    -1800.98643654
  entropy T*S    EENTRO =        -0.00004041
  eigenvalues    EBANDS =        -9.58251262
  atomic energy  EATOM  =      2411.37598431
  Solvation  Ediel_sol  =         0.00000000
  ---------------------------------------------------
  free energy    TOTEN  =      -104.79729105 eV

  energy without entropy =     -104.79725064  energy(sigma->0) =     -104.79728095


--------------------------------------------------------------------------------------------------------




--------------------------------------- Iteration      1(   5)  ---------------------------------------


     EDDAV:  cpu time    8.4903: real time    8.4922
       DOS:  cpu time    0.0032: real time    0.0032
    CHARGE:  cpu time    0.1529: real time    0.1529
    MIXING:  cpu time    0.0007: real time    0.0007
    --------------------------------------------
      LOOP:  cpu time    8.6470: real time    8.6490

 eigenvalue-minimisations  :  8280
 total energy-change (2. order) :-0.1126594E-01  (-0.1126003E-01)
 number of electron      62.0000018 magnetization 
 augmentation part        0.4342613 magnetization 

 Broyden mixing:
  rms(total) = 0.24258E+01    rms(broyden)= 0.24251E+01
  rms(prec ) = 0.34686E+01
  weight for this iteration     100.00

 Free energy of the ion-electron system (eV)
  ---------------------------------------------------
  alpha Z        PSCENC =        81.71489013
  Ewald energy   TEWEN  =     -2268.79317919
  -Hartree energ DENC   =      -507.40240032
  -exchange      EXHF   =         0.00000000
  -V(xc)+E(xc)   XCENC  =        54.28961699
  PAW double counting   =      1934.58678659    -1800.98643654
  entropy T*S    EENTRO =        -0.00004370
  eigenvalues    EBANDS =        -9.59377526
  atomic energy  EATOM  =      2411.37598431
  Solvation  Ediel_sol  =         0.00000000
  ---------------------------------------------------
  free energy    TOTEN  =      -104.80855699 eV

  energy without entropy =     -104.80851328  energy(sigma->0) =     -104.80854606


--------------------------------------------------------------------------------------------------------




--------------------------------------- Iteration      1(   6)  ---------------------------------------


    POTLOK:  cpu time    0.0207: real time    0.0207
    SETDIJ:  cpu time    0.0024: real time    0.0024
    EDDIAG:  cpu time    0.4088: real time    0.4088
  RMM-DIIS:  cpu time    2.0907: real time    2.0909
    ORTHCH:  cpu time    0.0396: real time    0.0396
       DOS:  cpu time    0.0030: real time    0.0030
    CHARGE:  cpu time    0.1565: real time    0.1565
    MIXING:  cpu time    0.0007: real time    0.0007
    --------------------------------------------
      LOOP:  cpu time    2.7224: real time    2.7226

 eigenvalue-minimisations  :  6480
 total energy-change (2. order) : 0.9194529E+01  (-0.4467500E+01)
 number of electron      62.0000017 magnetization 
 augmentation part       -0.3000228 magnetization 

 Broyden mixing:
  rms(total) = 0.11140E+01    rms(broyden)= 0.11133E+01
  rms(prec ) = 0.13012E+01
  weight for this iteration     100.00

 eigenvalues of (default mixing * dielectric matrix)
  average eigenvalue GAMMA=   1.1193
  1.1193

 Free energy of the ion-electron system (eV)
  ---------------------------------------------------
  alpha Z        PSCENC =        81.71489013
  Ewald energy   TEWEN  =     -2268.79317919
  -Hartree energ DENC   =      -586.34986624
  -exchange      EXHF   =         0.00000000
  -V(xc)+E(xc)   XCENC  =        59.96294677
  PAW double counting   =      4080.93420013    -3948.28102153
  entropy T*S    EENTRO =         0.00062895
  eigenvalues    EBANDS =        73.82138853
  atomic energy  EATOM  =      2411.37598431
  Solvation  Ediel_sol  =         0.00000000
  ---------------------------------------------------
  free energy    TOTEN  =       -95.61402813 eV

  energy without entropy =      -95.61465708  energy(sigma->0) =      -95.61418537


--------------------------------------------------------------------------------------------------------




--------------------------------------- Iteration      1(   7)  ---------------------------------------


    POTLOK:  cpu time    0.0181: real time    0.0211
    SETDIJ:  cpu time    0.0024: real time    0.0024
    EDDIAG:  cpu time    5.8453: real time    5.8458
  RMM-DIIS:  cpu time    3.3058: real time    3.3060
    ORTHCH:  cpu time    4.7707: real time    4.7711
       DOS:  cpu time    0.0031: real time    0.0031
    CHARGE:  cpu time    0.9080: real time    0.9081
    MIXING:  cpu time    0.2556: real time    0.2556
    --------------------------------------------
      LOOP:  cpu time   15.1089: real time   15.1132

 eigenvalue-minimisations  :  6533
 total energy-change (2. order) : 0.4224034E+00  (-0.1373685E+00)
 number of electron      62.0000016 magnetization 
 augmentation part       -0.3182622 magnetization 

 Broyden mixing:
  rms(total) = 0.61895E+00    rms(broyden)= 0.61890E+00
  rms(prec ) = 0.72072E+00
  weight for this iteration     100.00

 eigenvalues of (default mixing * dielectric matrix)
  average eigenvalue GAMMA=   1.6088
  1.0446  2.1730

 Free energy of the ion-electron system (eV)
  ---------------------------------------------------
  alpha Z        PSCENC =        81.71489013
  Ewald energy   TEWEN  =     -2268.79317919
  -Hartree energ DENC   =      -591.02831742
  -exchange      EXHF   =         0.00000000
  -V(xc)+E(xc)   XCENC  =        60.52014167
  PAW double counting   =      5887.30268564    -5754.99837635
  entropy T*S    EENTRO =        -0.00000405
  eigenvalues    EBANDS =        78.71455055
  atomic energy  EATOM  =      2411.37598431
  Solvation  Ediel_sol  =         0.00000000
  ---------------------------------------------------
  free energy    TOTEN  =       -95.19162469 eV

  energy without entropy =      -95.19162065  energy(sigma->0) =      -95.19162368


--------------------------------------------------------------------------------------------------------




--------------------------------------- Iteration      1(   8)  ---------------------------------------


    POTLOK:  cpu time    0.9138: real time    0.9153
    SETDIJ:  cpu time    0.0866: real time    0.0866
    EDDIAG:  cpu time   14.9822: real time   14.9830
  RMM-DIIS:  cpu time    2.4925: real time    2.4933
    ORTHCH:  cpu time    5.9320: real time    5.9327
       DOS:  cpu time    0.0033: real time    0.0033
    CHARGE:  cpu time    0.1589: real time    0.1589
    MIXING:  cpu time    0.0008: real time    0.0008
    --------------------------------------------
      LOOP:  cpu time   24.5701: real time   24.5740

 eigenvalue-minimisations  :  6497
 total energy-change (2. order) : 0.1019791E+00  (-0.6520219E-01)
 number of electron      62.0000016 magnetization 
 augmentation part       -0.2822211 magnetization 

 Broyden mixing:
  rms(total) = 0.82766E-01    rms(broyden)= 0.82676E-01
  rms(prec ) = 0.14771E+00
  weight for this iteration     100.00

 eigenvalues of (default mixing * dielectric matrix)
  average eigenvalue GAMMA=   1.5419
  2.3701  1.1278  1.1278

 Free energy of the ion-electron system (eV)
  ---------------------------------------------------
  alpha Z        PSCENC =        81.71489013
  Ewald energy   TEWEN  =     -2268.79317919
  -Hartree energ DENC   =      -595.64270460
  -exchange      EXHF   =         0.00000000
  -V(xc)+E(xc)   XCENC  =        61.17066403
  PAW double counting   =      8391.35518864    -8259.45561195
  entropy T*S    EENTRO =        -0.00140042
  eigenvalues    EBANDS =        83.18652347
  atomic energy  EATOM  =      2411.37598431
  Solvation  Ediel_sol  =         0.00000000
  ---------------------------------------------------
  free energy    TOTEN  =       -95.08964556 eV

  energy without entropy =      -95.08824515  energy(sigma->0) =      -95.08929546


--------------------------------------------------------------------------------------------------------




--------------------------------------- Iteration      1(   9)  ---------------------------------------


    POTLOK:  cpu time    0.0191: real time    0.0205
    SETDIJ:  cpu time    0.0027: real time    0.0027
    EDDIAG:  cpu time    0.4066: real time    0.4069
  RMM-DIIS:  cpu time    1.9497: real time    1.9498
    ORTHCH:  cpu time    0.0369: real time    0.0369
       DOS:  cpu time    0.0033: real time    0.0033
    CHARGE:  cpu time    0.1565: real time    0.1565
    MIXING:  cpu time    0.0007: real time    0.0007
    --------------------------------------------
      LOOP:  cpu time    2.5755: real time    2.5774

 eigenvalue-minimisations  :  6511
 total energy-change (2. order) : 0.6032915E-02  (-0.1450238E-01)
 number of electron      62.0000016 magnetization 
 augmentation part       -0.3241746 magnetization 

 Broyden mixing:
  rms(total) = 0.54232E-01    rms(broyden)= 0.54193E-01
  rms(prec ) = 0.75527E-01
  weight for this iteration     100.00

 eigenvalues of (default mixing * dielectric matrix)
  average eigenvalue GAMMA=   1.6660
  0.9997  0.9997  2.3323  2.3323

 Free energy of the ion-electron system (eV)
  ---------------------------------------------------
  alpha Z        PSCENC =        81.71489013
  Ewald energy   TEWEN  =     -2268.79317919
  -Hartree energ DENC   =      -601.26532897
  -exchange      EXHF   =         0.00000000
  -V(xc)+E(xc)   XCENC  =        61.59317833
  PAW double counting   =      8645.21094670    -8513.37750120
  entropy T*S    EENTRO =        -0.00090649
  eigenvalues    EBANDS =        88.45830373
  atomic energy  EATOM  =      2411.37598431
  Solvation  Ediel_sol  =         0.00000000
  ---------------------------------------------------
  free energy    TOTEN  =       -95.08361265 eV

  energy without entropy =      -95.08270616  energy(sigma->0) =      -95.08338603


--------------------------------------------------------------------------------------------------------




--------------------------------------- Iteration      1(  10)  ---------------------------------------


    POTLOK:  cpu time    0.0175: real time    0.0193
    SETDIJ:  cpu time    0.0024: real time    0.0024
    EDDIAG:  cpu time    0.4056: real time    0.4057
  RMM-DIIS:  cpu time    1.9503: real time    1.9506
    ORTHCH:  cpu time    0.0368: real time    0.0368
       DOS:  cpu time    0.0032: real time    0.0032
    CHARGE:  cpu time    0.1564: real time    0.1564
    MIXING:  cpu time    0.0007: real time    0.0007
    --------------------------------------------
      LOOP:  cpu time    2.5729: real time    2.5750

 eigenvalue-minimisations  :  6488
 total energy-change (2. order) : 0.2199419E-02  (-0.1233312E-02)
 number of electron      62.0000016 magnetization 
 augmentation part       -0.3159783 magnetization 

 Broyden mixing:
  rms(total) = 0.14803E-01    rms(broyden)= 0.14802E-01
  rms(prec ) = 0.22627E-01
  weight for this iteration     100.00

 eigenvalues of (default mixing * dielectric matrix)
  average eigenvalue GAMMA=   1.7144
  2.5837  2.5837  1.0238  1.0238  1.3567

 Free energy of the ion-electron system (eV)
  ---------------------------------------------------
  alpha Z        PSCENC =        81.71489013
  Ewald energy   TEWEN  =     -2268.79317919
  -Hartree energ DENC   =      -599.92997319
  -exchange      EXHF   =         0.00000000
  -V(xc)+E(xc)   XCENC  =        61.49202590
  PAW double counting   =      8489.37903010    -8357.52433172
  entropy T*S    EENTRO =        -0.00095964
  eigenvalues    EBANDS =        87.20510006
  atomic energy  EATOM  =      2411.37598431
  Solvation  Ediel_sol  =         0.00000000
  ---------------------------------------------------
  free energy    TOTEN  =       -95.08141323 eV

  energy without entropy =      -95.08045359  energy(sigma->0) =      -95.08117332


--------------------------------------------------------------------------------------------------------




--------------------------------------- Iteration      1(  11)  ---------------------------------------


    POTLOK:  cpu time    0.0178: real time    0.0197
    SETDIJ:  cpu time    0.0023: real time    0.0023
    EDDIAG:  cpu time    0.4053: real time    0.4053
  RMM-DIIS:  cpu time    1.9775: real time    1.9777
    ORTHCH:  cpu time    0.0357: real time    0.0357
       DOS:  cpu time    0.0030: real time    0.0030
    CHARGE:  cpu time    0.1536: real time    0.1536
    MIXING:  cpu time    0.0007: real time    0.0007
    --------------------------------------------
      LOOP:  cpu time    2.5960: real time    2.5980

 eigenvalue-minimisations  :  6515
 total energy-change (2. order) :-0.1012989E-02  (-0.5368064E-03)
 number of electron      62.0000016 magnetization 
 augmentation part       -0.3092215 magnetization 

 Broyden mixing:
  rms(total) = 0.10934E-01    rms(broyden)= 0.10924E-01
  rms(prec ) = 0.17072E-01
  weight for this iteration     100.00

 eigenvalues of (default mixing * dielectric matrix)
  average eigenvalue GAMMA=   1.6688
  2.5789  2.5789  1.8970  0.9987  0.9987  0.9607

 Free energy of the ion-electron system (eV)
  ---------------------------------------------------
  alpha Z        PSCENC =        81.71489013
  Ewald energy   TEWEN  =     -2268.79317919
  -Hartree energ DENC   =      -599.81488654
  -exchange      EXHF   =         0.00000000
  -V(xc)+E(xc)   XCENC  =        61.48380355
  PAW double counting   =      8462.23941363    -8330.38540641
  entropy T*S    EENTRO =        -0.00100956
  eigenvalues    EBANDS =        87.09796385
  atomic energy  EATOM  =      2411.37598431
  Solvation  Ediel_sol  =         0.00000000
  ---------------------------------------------------
  free energy    TOTEN  =       -95.08242622 eV

  energy without entropy =      -95.08141665  energy(sigma->0) =      -95.08217383


--------------------------------------------------------------------------------------------------------




--------------------------------------- Iteration      1(  12)  ---------------------------------------


    POTLOK:  cpu time    0.0178: real time    0.0196
    SETDIJ:  cpu time    0.0027: real time    0.0055
    EDDIAG:  cpu time    0.4094: real time    0.4097
  RMM-DIIS:  cpu time    1.9403: real time    1.9405
    ORTHCH:  cpu time    0.0358: real time    0.0358
       DOS:  cpu time    0.0033: real time    0.0033
    CHARGE:  cpu time    0.1561: real time    0.1562
    MIXING:  cpu time    0.0008: real time    0.0008
    --------------------------------------------
      LOOP:  cpu time    2.5661: real time    2.5713

 eigenvalue-minimisations  :  6306
 total energy-change (2. order) : 0.2143465E-03  (-0.8880389E-04)
 number of electron      62.0000016 magnetization 
 augmentation part       -0.3114157 magnetization 

 Broyden mixing:
  rms(total) = 0.31749E-02    rms(broyden)= 0.31743E-02
  rms(prec ) = 0.47470E-02
  weight for this iteration     100.00

 eigenvalues of (default mixing * dielectric matrix)
  average eigenvalue GAMMA=   1.7241
  3.0692  2.4705  1.7201  1.7201  0.9889  1.0498  1.0498

 Free energy of the ion-electron system (eV)
  ---------------------------------------------------
  alpha Z        PSCENC =        81.71489013
  Ewald energy   TEWEN  =     -2268.79317919
  -Hartree energ DENC   =      -600.30340672
  -exchange      EXHF   =         0.00000000
  -V(xc)+E(xc)   XCENC  =        61.51428308
  PAW double counting   =      8457.24410414    -8325.39163022
  entropy T*S    EENTRO =        -0.00098743
  eigenvalues    EBANDS =        87.55773002
  atomic energy  EATOM  =      2411.37598431
  Solvation  Ediel_sol  =         0.00000000
  ---------------------------------------------------
  free energy    TOTEN  =       -95.08221187 eV

  energy without entropy =      -95.08122444  energy(sigma->0) =      -95.08196501


--------------------------------------------------------------------------------------------------------




--------------------------------------- Iteration      1(  13)  ---------------------------------------


    POTLOK:  cpu time    0.0180: real time    0.0195
    SETDIJ:  cpu time    0.0024: real time    0.0027
    EDDIAG:  cpu time    0.4050: real time    0.4053
  RMM-DIIS:  cpu time    1.3457: real time    1.3458
    ORTHCH:  cpu time    0.0367: real time    0.0367
       DOS:  cpu time    0.0031: real time    0.0031
    --------------------------------------------
      LOOP:  cpu time    1.8110: real time    1.8132

 eigenvalue-minimisations  :  4010
 total energy-change (2. order) :-0.2370740E-04  (-0.1435594E-04)
 number of electron      62.0000016 magnetization 
 augmentation part       -0.3114157 magnetization 

 Free energy of the ion-electron system (eV)
  ---------------------------------------------------
  alpha Z        PSCENC =        81.71489013
  Ewald energy   TEWEN  =     -2268.79317919
  -Hartree energ DENC   =      -600.39003916
  -exchange      EXHF   =         0.00000000
  -V(xc)+E(xc)   XCENC  =        61.51938310
  PAW double counting   =      8456.42579074    -8324.57254209
  entropy T*S    EENTRO =        -0.00098007
  eigenvalues    EBANDS =        87.63845665
  atomic energy  EATOM  =      2411.37598431
  Solvation  Ediel_sol  =         0.00000000
  ---------------------------------------------------
  free energy    TOTEN  =       -95.08223558 eV

  energy without entropy =      -95.08125551  energy(sigma->0) =      -95.08199056


--------------------------------------------------------------------------------------------------------




 average (electrostatic) potential at core
  the test charge radii are     0.7089  0.9892
  (the norm of the test charge is              1.0000)
       1 -59.8925       2 -59.8925       3 -59.8925       4 -59.8925       5 -59.8925
       6 -59.8925       7 -81.1473       8 -81.1473       9 -80.4609      10 -80.4609
      11 -80.4609      12 -80.4609      13 -80.4609      14 -80.4609
 
 
 
 E-fermi :  10.4332     XC(G=0): -11.1789     alpha+bet :-16.3562


 k-point     1 :       0.0000    0.0000    0.0000
  band No.  band energies     occupation 
      1     -10.0713      2.00000
      2      -8.8778      2.00000
      3      -8.8778      2.00000
      4      -8.2474      2.00000
      5      -8.2474      2.00000
      6      -8.1005      2.00000
      7      -1.7921      2.00000
      8      -1.7921      2.00000
      9      -1.5841      2.00000
     10      -0.9202      2.00000
     11       0.3606      2.00000
     12       1.0007      2.00000
     13       1.0007      2.00000
     14       2.9132      2.00000
     15       2.9132      2.00000
     16       3.8474      2.00000
     17       4.1046      2.00000
     18       4.1046      2.00000
     19       4.6119      2.00000
     20       4.8329      2.00000
     21       5.3813      2.00000
     22       5.3813      2.00000
     23       5.8838      2.00000
     24       5.8838      2.00000
     25       6.0578      2.00000
     26       7.2862      2.00000
     27       7.3046      2.00000
     28       7.3046      2.00000
     29       9.2657      2.00000
     30       9.5468      2.00000
     31       9.5469      2.00000
     32      13.5511      0.00000
     33      13.8575      0.00000
     34      13.8577      0.00000
     35      13.9267      0.00000
     36      13.9268      0.00000
     37      15.0648      0.00000
     38      15.3712      0.00000
     39      15.4206      0.00000
     40      15.6210      0.00000

 k-point     2 :       0.1429    0.0000    0.0000
  band No.  band energies     occupation 
      1     -10.0319      2.00000
      2      -8.9658      2.00000
      3      -8.9158      2.00000
      4      -8.4061      2.00000
      5      -8.1898      2.00000
      6      -7.8817      2.00000
      7      -2.0664      2.00000
      8      -1.7809      2.00000
      9      -1.5243      2.00000
     10      -0.6435      2.00000
     11       0.2376      2.00000
     12       0.8878      2.00000
     13       1.1142      2.00000
     14       2.8247      2.00000
     15       2.9640      2.00000
     16       3.8197      2.00000
     17       3.9564      2.00000
     18       4.2436      2.00000
     19       4.8534      2.00000
     20       4.8821      2.00000
     21       5.3485      2.00000
     22       5.3704      2.00000
     23       5.8400      2.00000
     24       5.8955      2.00000
     25       6.1083      2.00000
     26       7.0736      2.00000
     27       7.1160      2.00000
     28       7.3980      2.00000
     29       9.2106      2.00000
     30       9.7100      2.00000
     31       9.7593      2.00000
     32      13.2906      0.00000
     33      13.6584      0.00000
     34      13.6941      0.00000
     35      13.9571      0.00000
     36      14.0533      0.00000
     37      15.0862      0.00000
     38      15.1169      0.00000
     39      15.3502      0.00000
     40      15.4363      0.00000

 k-point     3 :       0.2857    0.0000    0.0000
  band No.  band energies     occupation 
      1      -9.9163      2.00000
      2      -9.1980      2.00000
      3      -8.9849      2.00000
      4      -8.5015      2.00000
      5      -8.0747      2.00000
      6      -7.6446      2.00000
      7      -2.4472      2.00000
      8      -1.7538      2.00000
      9      -1.3557      2.00000
     10      -0.3639      2.00000
     11       0.0202      2.00000
     12       0.6528      2.00000
     13       1.4817      2.00000
     14       2.6529      2.00000
     15       2.9288      2.00000
     16       3.6450      2.00000
     17       4.0070      2.00000
     18       4.4886      2.00000
     19       4.9166      2.00000
     20       5.2629      2.00000
     21       5.3094      2.00000
     22       5.3512      2.00000
     23       5.7869      2.00000
     24       5.9225      2.00000
     25       6.1842      2.00000
     26       6.6084      2.00000
     27       6.7696      2.00000
     28       7.7004      2.00000
     29       9.0366      2.00000
     30      10.0063      2.00000
     31      10.2274      1.99021
     32      12.4616      0.00000
     33      13.4103      0.00000
     34      13.6273      0.00000
     35      13.9974      0.00000
     36      14.2110      0.00000
     37      14.7777      0.00000
     38      15.1105      0.00000
     39      15.1749      0.00000
     40      15.3261      0.00000

 k-point     4 :       0.4286    0.0000    0.0000
  band No.  band energies     occupation 
      1      -9.7360      2.00000
      2      -9.4649      2.00000
      3      -9.0305      2.00000
      4      -8.5310      2.00000
      5      -7.9904      2.00000
      6      -7.5089      2.00000
      7      -2.6710      2.00000
      8      -1.7291      2.00000
      9      -1.1364      2.00000
     10      -0.5210      2.00000
     11       0.0454      2.00000
     12       0.4772      2.00000
     13       2.0513      2.00000
     14       2.5331      2.00000
     15       2.6635      2.00000
     16       3.3311      2.00000
     17       4.3240      2.00000
     18       4.6631      2.00000
     19       5.0084      2.00000
     20       5.1502      2.00000
     21       5.3372      2.00000
     22       5.5473      2.00000
     23       5.7620      2.00000
     24       5.9409      2.00000
     25       6.2093      2.00000
     26       6.2295      2.00000
     27       6.5849      2.00000
     28       8.0711      2.00000
     29       8.7771      2.00000
     30      10.1829      1.99589
     31      10.8170      0.00000
     32      11.5955      0.00000
     33      13.2517      0.00000
     34      13.5811      0.00000
     35      14.1178      0.00000
     36      14.3106      0.00000
     37      14.5863      0.00000
     38      15.0190      0.00000
     39      15.1758      0.00000
     40      15.3315      0.00000

 k-point     5 :       0.1429    0.1429    0.0000
  band No.  band energies     occupation 
      1      -9.9544      2.00000
      2      -9.0697      2.00000
      3      -9.0443      2.00000
      4      -8.4469      2.00000
      5      -8.1296      2.00000
      6      -7.6951      2.00000
      7      -2.3683      2.00000
      8      -1.7332      2.00000
      9      -1.4072      2.00000
     10      -0.4472      2.00000
     11       0.0469      2.00000
     12       0.8228      2.00000
     13       1.2945      2.00000
     14       2.6298      2.00000
     15       3.0900      2.00000
     16       3.7013      2.00000
     17       3.8634      2.00000
     18       4.4676      2.00000
     19       4.8962      2.00000
     20       5.1995      2.00000
     21       5.3009      2.00000
     22       5.3429      2.00000
     23       5.8068      2.00000
     24       5.9080      2.00000
     25       6.1680      2.00000
     26       6.7386      2.00000
     27       6.8635      2.00000
     28       7.6023      2.00000
     29       9.0984      2.00000
     30       9.9539      2.00000
     31      10.0641      1.99999
     32      12.7828      0.00000
     33      13.2134      0.00000
     34      13.8044      0.00000
     35      13.9061      0.00000
     36      14.2294      0.00000
     37      14.9351      0.00000
     38      15.0743      0.00000
     39      15.1379      0.00000
     40      15.4874      0.00000

 k-point     6 :       0.2857    0.1429    0.0000
  band No.  band energies     occupation 
      1      -9.8045      2.00000
      2      -9.3135      2.00000
      3      -9.1327      2.00000
      4      -8.4326      2.00000
      5      -8.0643      2.00000
      6      -7.5274      2.00000
      7      -2.6489      2.00000
      8      -1.6396      2.00000
      9      -1.1949      2.00000
     10      -0.5291      2.00000
     11      -0.2056      2.00000
     12       0.9021      2.00000
     13       1.6835      2.00000
     14       2.3996      2.00000
     15       3.0785      2.00000
     16       3.4312      2.00000
     17       3.9899      2.00000
     18       4.7011      2.00000
     19       4.9744      2.00000
     20       5.2130      2.00000
     21       5.3068      2.00000
     22       5.4915      2.00000
     23       5.7907      2.00000
     24       5.9201      2.00000
     25       6.2221      2.00000
     26       6.4773      2.00000
     27       6.5071      2.00000
     28       7.9465      2.00000
     29       8.8783      2.00000
     30      10.2492      1.99276
     31      10.4803      0.15552
     32      11.9882      0.00000
     33      12.8740      0.00000
     34      13.7249      0.00000
     35      14.0463      0.00000
     36      14.4807      0.00000
     37      14.6779      0.00000
     38      14.9281      0.00000
     39      15.3069      0.00000
     40      15.4315      0.00000

 k-point     7 :       0.4286    0.1429    0.0000
  band No.  band energies     occupation 
      1      -9.6337      2.00000
      2      -9.5294      2.00000
      3      -9.1601      2.00000
      4      -8.4245      2.00000
      5      -8.0336      2.00000
      6      -7.4645      2.00000
      7      -2.7547      2.00000
      8      -1.5834      2.00000
      9      -1.0327      2.00000
     10      -0.6700      2.00000
     11      -0.3445      2.00000
     12       0.9450      2.00000
     13       2.1539      2.00000
     14       2.1896      2.00000
     15       2.8470      2.00000
     16       3.3182      2.00000
     17       4.1540      2.00000
     18       4.7885      2.00000
     19       5.0503      2.00000
     20       5.1289      2.00000
     21       5.2943      2.00000
     22       5.5772      2.00000
     23       5.7877      2.00000
     24       5.9231      2.00000
     25       6.2164      2.00000
     26       6.2413      2.00000
     27       6.5226      2.00000
     28       8.2130      2.00000
     29       8.6733      2.00000
     30      10.3124      2.07409
     31      11.0134      0.00000
     32      11.2998      0.00000
     33      12.8110      0.00000
     34      13.6553      0.00000
     35      14.2419      0.00000
     36      14.3399      0.00000
     37      14.7400      0.00000
     38      14.8165      0.00000
     39      15.2363      0.00000
     40      15.3277      0.00000

 k-point     8 :      -0.4286    0.1429    0.0000
  band No.  band energies     occupation 
      1      -9.8045      2.00000
      2      -9.3136      2.00000
      3      -9.1327      2.00000
      4      -8.4326      2.00000
      5      -8.0642      2.00000
      6      -7.5273      2.00000
      7      -2.6489      2.00000
      8      -1.6375      2.00000
[...]
     39      13.8716      0.00000
     40      13.9169      0.00000

 k-point    75 :       0.2857    0.0000    0.5000
  band No.  band energies     occupation 
      1      -7.5133      2.00000
      2      -7.5133      2.00000
      3      -7.0238      2.00000
      4      -7.0238      2.00000
      5      -6.9989      2.00000
      6      -6.9989      2.00000
      7      -1.1725      2.00000
      8      -1.1725      2.00000
      9      -0.5504      2.00000
     10      -0.5504      2.00000
     11      -0.0184      2.00000
     12      -0.0184      2.00000
     13       1.4258      2.00000
     14       1.4258      2.00000
     15       1.9204      2.00000
     16       1.9204      2.00000
     17       2.1891      2.00000
     18       2.1891      2.00000
     19       2.8607      2.00000
     20       2.8607      2.00000
     21       4.6305      2.00000
     22       4.6305      2.00000
     23       4.8088      2.00000
     24       4.8088      2.00000
     25       6.0382      2.00000
     26       6.0382      2.00000
     27       6.7058      2.00000
     28       6.7058      2.00000
     29       7.1326      2.00000
     30       7.1326      2.00000
     31       9.0256      2.00000
     32       9.0256      2.00000
     33      11.1511      0.00000
     34      11.1511      0.00000
     35      12.2158      0.00000
     36      12.2158      0.00000
     37      12.8991      0.00000
     38      12.8991      0.00000
     39      13.7604      0.00000
     40      13.7608      0.00000

 k-point    76 :       0.4286    0.0000    0.5000
  band No.  band energies     occupation 
      1      -7.4991      2.00000
      2      -7.4991      2.00000
      3      -7.0406      2.00000
      4      -7.0406      2.00000
      5      -7.0005      2.00000
      6      -7.0005      2.00000
      7      -1.2769      2.00000
      8      -1.2769      2.00000
      9      -0.4042      2.00000
     10      -0.4042      2.00000
     11       0.1497      2.00000
     12       0.1497      2.00000
     13       1.2309      2.00000
     14       1.2309      2.00000
     15       1.9154      2.00000
     16       1.9154      2.00000
     17       2.0508      2.00000
     18       2.0508      2.00000
     19       2.9615      2.00000
     20       2.9615      2.00000
     21       4.5386      2.00000
     22       4.5386      2.00000
     23       4.8231      2.00000
     24       4.8231      2.00000
     25       6.0804      2.00000
     26       6.0804      2.00000
     27       6.5804      2.00000
     28       6.5804      2.00000
     29       7.3200      2.00000
     30       7.3200      2.00000
     31       9.2493      2.00000
     32       9.2493      2.00000
     33      11.1211      0.00000
     34      11.1211      0.00000
     35      11.9028      0.00000
     36      11.9028      0.00000
     37      13.0079      0.00000
     38      13.0079      0.00000
     39      13.7150      0.00000
     40      13.7151      0.00000

 k-point    77 :       0.1429    0.1429    0.5000
  band No.  band energies     occupation 
      1      -7.5180      2.00000
      2      -7.5180      2.00000
      3      -7.0178      2.00000
      4      -7.0178      2.00000
      5      -6.9986      2.00000
      6      -6.9986      2.00000
      7      -1.1290      2.00000
      8      -1.1290      2.00000
      9      -0.5878      2.00000
     10      -0.5878      2.00000
     11      -0.0973      2.00000
     12      -0.0973      2.00000
     13       1.5099      2.00000
     14       1.5099      2.00000
     15       1.9125      2.00000
     16       1.9125      2.00000
     17       2.2522      2.00000
     18       2.2522      2.00000
     19       2.8044      2.00000
     20       2.8044      2.00000
     21       4.6661      2.00000
     22       4.6661      2.00000
     23       4.7975      2.00000
     24       4.7975      2.00000
     25       6.0378      2.00000
     26       6.0378      2.00000
     27       6.7172      2.00000
     28       6.7172      2.00000
     29       7.1047      2.00000
     30       7.1047      2.00000
     31       8.9409      2.00000
     32       8.9409      2.00000
     33      11.1579      0.00000
     34      11.1579      0.00000
     35      12.3105      0.00000
     36      12.3105      0.00000
     37      12.8607      0.00000
     38      12.8607      0.00000
     39      13.7947      0.00000
     40      13.7964      0.00000

 k-point    78 :       0.2857    0.1429    0.5000
  band No.  band energies     occupation 
      1      -7.5024      2.00000
      2      -7.5024      2.00000
      3      -7.0357      2.00000
      4      -7.0357      2.00000
      5      -7.0012      2.00000
      6      -7.0012      2.00000
      7      -1.2580      2.00000
      8      -1.2580      2.00000
      9      -0.4233      2.00000
     10      -0.4233      2.00000
     11       0.0944      2.00000
     12       0.0944      2.00000
     13       1.2622      2.00000
     14       1.2622      2.00000
     15       1.9539      2.00000
     16       1.9539      2.00000
     17       2.0890      2.00000
     18       2.0890      2.00000
     19       2.9099      2.00000
     20       2.9099      2.00000
     21       4.5792      2.00000
     22       4.5792      2.00000
     23       4.8042      2.00000
     24       4.8042      2.00000
     25       6.0626      2.00000
     26       6.0626      2.00000
     27       6.5709      2.00000
     28       6.5709      2.00000
     29       7.3647      2.00000
     30       7.3647      2.00000
     31       9.1418      2.00000
     32       9.1418      2.00000
     33      11.1321      0.00000
     34      11.1321      0.00000
     35      11.9599      0.00000
     36      11.9599      0.00000
     37      13.0473      0.00000
     38      13.0473      0.00000
     39      13.7280      0.00000
     40      13.7281      0.00000

 k-point    79 :       0.4286    0.1429    0.5000
  band No.  band energies     occupation 
      1      -7.4951      2.00000
      2      -7.4951      2.00000
      3      -7.0441      2.00000
      4      -7.0441      2.00000
      5      -7.0024      2.00000
      6      -7.0024      2.00000
      7      -1.3041      2.00000
      8      -1.3041      2.00000
      9      -0.3195      2.00000
     10      -0.3195      2.00000
     11       0.1266      2.00000
     12       0.1266      2.00000
     13       1.2000      2.00000
     14       1.2000      2.00000
     15       1.9306      2.00000
     16       1.9306      2.00000
     17       2.0365      2.00000
     18       2.0365      2.00000
     19       2.9411      2.00000
     20       2.9411      2.00000
     21       4.5304      2.00000
     22       4.5304      2.00000
     23       4.8127      2.00000
     24       4.8127      2.00000
     25       6.0861      2.00000
     26       6.0861      2.00000
     27       6.5087      2.00000
     28       6.5087      2.00000
     29       7.4875      2.00000
     30       7.4875      2.00000
     31       9.2233      2.00000
     32       9.2233      2.00000
     33      11.1151      0.00000
     34      11.1151      0.00000
     35      11.7977      0.00000
     36      11.7977      0.00000
     37      13.1114      0.00000
     38      13.1114      0.00000
     39      13.6969      0.00000
     40      13.6969      0.00000

 k-point    80 :      -0.4286    0.1429    0.5000
  band No.  band energies     occupation 
      1      -7.5024      2.00000
      2      -7.5024      2.00000
      3      -7.0357      2.00000
      4      -7.0357      2.00000
      5      -7.0012      2.00000
      6      -7.0012      2.00000
      7      -1.2579      2.00000
      8      -1.2579      2.00000
      9      -0.4232      2.00000
     10      -0.4232      2.00000
     11       0.0943      2.00000
     12       0.0943      2.00000
     13       1.2634      2.00000
     14       1.2634      2.00000
     15       1.9440      2.00000
     16       1.9440      2.00000
     17       2.0988      2.00000
     18       2.0988      2.00000
     19       2.9084      2.00000
     20       2.9084      2.00000
     21       4.5729      2.00000
     22       4.5729      2.00000
     23       4.8147      2.00000
     24       4.8147      2.00000
     25       6.0454      2.00000
     26       6.0454      2.00000
     27       6.5912      2.00000
     28       6.5912      2.00000
     29       7.3582      2.00000
     30       7.3582      2.00000
     31       9.1404      2.00000
     32       9.1404      2.00000
     33      11.1337      0.00000
     34      11.1337      0.00000
     35      11.9728      0.00000
     36      11.9728      0.00000
     37      13.0129      0.00000
     38      13.0129      0.00000
     39      13.7427      0.00000
     40      13.7428      0.00000

 k-point    81 :       0.2857    0.2857    0.5000
  band No.  band energies     occupation 
      1      -7.4933      2.00000
      2      -7.4933      2.00000
      3      -7.0447      2.00000
      4      -7.0447      2.00000
      5      -7.0040      2.00000
      6      -7.0040      2.00000
      7      -1.3168      2.00000
      8      -1.3168      2.00000
      9      -0.2414      2.00000
     10      -0.2414      2.00000
     11       0.0620      2.00000
     12       0.0620      2.00000
     13       1.1942      2.00000
     14       1.1942      2.00000
     15       1.9719      2.00000
     16       1.9719      2.00000
     17       2.0260      2.00000
     18       2.0260      2.00000
     19       2.9034      2.00000
     20       2.9034      2.00000
     21       4.5403      2.00000
     22       4.5403      2.00000
     23       4.7978      2.00000
     24       4.7978      2.00000
     25       6.0757      2.00000
     26       6.0757      2.00000
     27       6.4742      2.00000
     28       6.4742      2.00000
     29       7.6299      2.00000
     30       7.6299      2.00000
     31       9.1436      2.00000
     32       9.1436      2.00000
     33      11.1170      0.00000
     34      11.1170      0.00000
     35      11.7452      0.00000
     36      11.7452      0.00000
     37      13.2435      0.00000
     38      13.2435      0.00000
     39      13.6211      0.00000
     40      13.6211      0.00000


--------------------------------------------------------------------------------------------------------


 soft charge-density along one line, spin component           1
         0         1         2         3         4         5         6         7         8         9
 total charge-density along one line
 
 pseudopotential strength for first ion, spin component:           1
 12.266  14.699   0.001   0.000  -0.001   0.005   0.000  -0.001
 14.699  17.614   0.002   0.000  -0.001   0.006   0.000  -0.002
  0.001   0.002  -5.672  -0.000   0.001  -7.509  -0.000   0.002
  0.000   0.000  -0.000  -5.680  -0.000  -0.000  -7.523  -0.000
 -0.001  -0.001   0.001  -0.000  -5.696   0.002  -0.000  -7.548
  0.005   0.006  -7.509  -0.000   0.002  -9.215  -0.000   0.003
  0.000   0.000  -0.000  -7.523  -0.000  -0.000  -9.236  -0.000
 -0.001  -0.002   0.002  -0.000  -7.548   0.003  -0.000  -9.276
 total augmentation occupancy for first ion, spin component:           1
  7.439  -3.485  -0.283   0.000   0.092   0.126  -0.000  -0.038
 -3.485   1.827   0.269   0.000  -0.074  -0.105   0.000   0.028
 -0.283   0.269   1.994   0.000  -0.040  -0.289   0.000   0.011
  0.000   0.000   0.000   2.274   0.000   0.000  -0.375  -0.000
  0.092  -0.074  -0.040  -0.000   2.368   0.011   0.000  -0.436
  0.126  -0.105  -0.289  -0.000   0.011   0.057   0.000  -0.004
 -0.000   0.000  -0.000  -0.375   0.000   0.000   0.073   0.000
 -0.038   0.028   0.011   0.000  -0.436  -0.004   0.000   0.095


------------------------ aborting loop because EDIFF is reached ----------------------------------------


    CHARGE:  cpu time    0.1565: real time    0.1565
    FORLOC:  cpu time    0.0028: real time    0.0028
    FORNL :  cpu time    1.0419: real time    1.0421
    STRESS:  cpu time    3.1273: real time    3.1276
    FORCOR:  cpu time    0.0202: real time    0.0202
    FORHAR:  cpu time    0.0061: real time    0.0061
    MIXING:  cpu time    0.0006: real time    0.0006
    OFIELD:  cpu time    0.0000: real time    0.0000

  FORCE on cell =-STRESS in cart. coord.  units (eV):
  Direction    XX          YY          ZZ          XY          YZ          ZX
  --------------------------------------------------------------------------------------
  Alpha Z    81.71489    81.71489    81.71489
  Ewald    -862.95987  -862.95987  -544.97702    -0.00000     0.00000     0.00000
  Hartree   129.00074   129.00074   340.66485     0.00000     0.00000    -0.00000
  E(xc)    -239.58412  -239.58412  -239.60228    -0.00000    -0.00000     0.00000
  Local    -131.02731  -131.02708  -663.63974     0.00000     0.00000     0.00000
  n-local   207.43618   207.46307   210.23931    -0.49927     0.15726    -0.49242
  augment   -36.91679   -36.91703   -36.68977     0.00177    -0.00000     0.00000
  Kinetic   858.33507   861.46282   857.60823    -0.59817     0.14587     0.44724
  Fock        0.00000     0.00000     0.00000     0.00000     0.00000     0.00000
  -------------------------------------------------------------------------------------
  Total       7.57611     7.57611     5.31847    -0.00000     0.00000     0.00000
  in kB      81.36464    81.36464    57.11835    -0.00000     0.00000     0.00000
  external pressure =       73.28 kB  Pullay stress =        0.00 kB


 VOLUME and BASIS-vectors are now :
 -----------------------------------------------------------------------------
  energy-cutoff  :      400.00
  volume of cell :      149.18
      direct lattice vectors                 reciprocal lattice vectors
     3.941217556 -6.826389038  0.000000000     0.126864349 -0.073245166  0.000000000
     3.941217545  6.826389044  0.000000000     0.126864349  0.073245166  0.000000000
     0.000000000  0.000000000  2.772489540     0.000000000  0.000000000  0.360686663

  length of vectors
     7.882435101  7.882435101  2.772489540     0.146490332  0.146490332  0.360686663


 FORCES acting on ions
    electron-ion (+dipol)            ewald-force                    non-local-force                 convergence-correction
 -----------------------------------------------------------------------------------------------
   0.110E+02 -.787E+02 -.101E-07   -.124E+02 0.858E+02 0.603E-14   0.145E+01 -.722E+01 0.181E-17   -.296E-01 0.507E-01 -.281E-12
   0.736E+02 -.298E+02 -.804E-07   -.805E+02 0.322E+02 -.245E-14   0.698E+01 -.236E+01 0.703E-17   -.587E-01 -.297E-03 -.925E-13
   -.626E+02 -.489E+02 -.658E-08   0.681E+02 0.537E+02 -.210E-14   -.553E+01 -.487E+01 0.545E-17   0.291E-01 0.510E-01 0.219E-12
   0.626E+02 0.489E+02 0.658E-08   -.681E+02 -.537E+02 0.393E-15   0.553E+01 0.487E+01 0.535E-18   -.291E-01 -.510E-01 -.112E-12
   -.736E+02 0.298E+02 0.804E-07   0.805E+02 -.322E+02 0.627E-15   -.698E+01 0.236E+01 -.204E-17   0.587E-01 0.297E-03 -.103E-11
   -.110E+02 0.787E+02 0.101E-07   0.124E+02 -.858E+02 0.393E-14   -.145E+01 0.722E+01 -.926E-18   0.296E-01 -.507E-01 0.521E-12
   0.468E-06 -.300E-06 -.832E-07   -.497E-13 0.122E-10 -.683E-15   0.151E-16 0.751E-16 0.115E-16   0.699E-07 -.154E-06 -.217E-13
   -.468E-06 0.300E-06 0.832E-07   0.391E-13 -.122E-10 -.666E-15   -.649E-17 -.237E-16 0.400E-17   -.699E-07 0.154E-06 0.344E-13
   -.163E+01 0.110E+02 0.155E-07   -.134E+00 -.139E+02 -.909E-15   0.171E+01 0.284E+01 -.103E-16   0.125E-01 0.118E-01 -.443E-13
   -.104E+02 0.411E+01 -.929E-07   0.119E+02 -.705E+01 -.163E-14   -.161E+01 0.290E+01 -.143E-16   -.398E-02 0.168E-01 0.223E-13
   0.875E+01 0.693E+01 -.144E-06   -.121E+02 -.682E+01 0.504E-14   0.332E+01 -.561E-01 0.646E-17   0.165E-01 -.493E-02 0.591E-13
   -.875E+01 -.693E+01 0.144E-06   0.121E+02 0.682E+01 0.287E-14   -.332E+01 0.561E-01 -.650E-17   -.165E-01 0.493E-02 0.200E-13
   0.163E+01 -.110E+02 -.155E-07   0.134E+00 0.139E+02 -.513E-17   -.171E+01 -.284E+01 -.101E-16   -.125E-01 -.118E-01 0.398E-13
   0.104E+02 -.411E+01 0.929E-07   -.119E+02 0.705E+01 -.280E-15   0.161E+01 -.290E+01 -.140E-16   0.398E-02 -.168E-01 -.922E-13
 -----------------------------------------------------------------------------------------------
   0.776E-11 0.109E-10 0.281E-11   -.338E-13 -.711E-14 0.102E-13   0.155E-14 -.133E-14 -.213E-16   -.160E-11 -.194E-11 -.758E-12
 
 
 POSITION                                       TOTAL-FORCE (eV/Angst)
 -----------------------------------------------------------------------------------
      4.05169      4.33397      2.07937         0.009201      0.010643     -0.000000
      2.21373     -1.15054      0.69312        -0.004617      0.013290     -0.000000
      5.77917     -1.34188      0.69312         0.013818     -0.002646      0.000000
      2.10327      1.34188      2.07937        -0.013818      0.002646     -0.000000
      5.66870      1.15054      2.07937         0.004617     -0.013290      0.000000
      3.83075     -4.33397      0.69312        -0.009201     -0.010643      0.000000
      3.94122      2.27546      2.07937        -0.000000      0.000000     -0.000000
      3.94122     -2.27546      0.69312        -0.000000      0.000000     -0.000000
      6.21008     -2.40081      2.07937        -0.041365      0.026380      0.000000
      5.18420      4.17768      0.69312        -0.043528     -0.022633      0.000000
      4.96710      0.24790      0.69312         0.002163      0.049013     -0.000000
      2.91534     -0.24790      2.07937        -0.002163     -0.049013     -0.000000
      1.67236      2.40081      0.69312         0.041365     -0.026380      0.000000
      2.69824     -4.17768      2.07937         0.043528      0.022633     -0.000000
 -----------------------------------------------------------------------------------
    total drift:                                0.000000      0.000000      0.000000


--------------------------------------------------------------------------------------------------------



  FREE ENERGIE OF THE ION-ELECTRON SYSTEM (eV)
  ---------------------------------------------------
  free  energy   TOTEN  =       -95.08575165 eV

  energy  without entropy=      -95.08497607  energy(sigma->0) =      -95.08555776
 
 d Force = 0.1992107E-02[ 0.130E-03, 0.385E-02]  d Energy = 0.1972761E-02 0.193E-04
 d Force =-0.1559213E+01[-0.156E+01,-0.156E+01]  d Ewald  =-0.1559226E+01 0.129E-04


--------------------------------------------------------------------------------------------------------


    POTLOK:  cpu time    0.0191: real time    0.0191


--------------------------------------------------------------------------------------------------------




--------------------------------------------------------------------------------------------------------


  
 reached required accuracy - stopping structural energy minimisation
     LOOP+:  cpu time   12.2787: real time   12.2890
    4ORBIT:  cpu time    0.0000: real time    0.0000

 total amount of memory used by VASP MPI-rank0    45908. kBytes
=======================================================================

   base      :      30000. kBytes
   nonlr-proj:       3164. kBytes
   fftplans  :       1365. kBytes
   grid      :       2140. kBytes
   one-center:         12. kBytes
   wavefun   :       9227. kBytes
 
  
  
 General timing and accounting informations for this job:
 ========================================================
  
                  Total CPU time used (sec):      187.943
                            User time (sec):      187.421
                          System time (sec):        0.522
                         Elapsed time (sec):      193.474
  
                   Maximum memory used (kb):       61800.
                   Average memory used (kb):           0.
  
                          Minor page faults:        56779
                          Major page faults:            0
                 Voluntary context switches:         5561
