<?xml version="1.0" encoding="ISO-8859-1"?>
<modeling>
 <generator>
  <i name="program" type="string">vasp </i>
  <i name="version" type="string">5.4.4.18Apr17-6-g9f103f2a35  </i>
  <i name="subversion" type="string">(build Nov 01 2019 12:17:22) complex            parallel </i>
  <i name="platform" type="string">LinuxIFC </i>
  <i name="date" type="string">2023 05 19 </i>
  <i name="time" type="string">18:18:47 </i>
 </generator>
 <incar>
  <i type="string" name="PREC">accurate</i>
  <i type="string" name="ALGO"> Fast</i>
  <i type="int" name="IBRION">     2</i>
  <i type="int" name="NSW">   100</i>
  <i type="int" name="ISIF">     2</i>
  <i type="string" name="LREAL"> Auto</i>
  <i type="int" name="ISMEAR">     2</i>
  <i name="SIGMA">      0.10000000</i>
  <i type="logical" name="LWAVE"> F  </i>
  <i type="logical" name="LCHARG"> F  </i>
  <v type="int" name="KPOINT_BSE">    -1     0     0     0</v>
 </incar>
 <structure name="primitive_cell" >
  <crystal>
   <varray name="basis" >
    <v>       3.94121756      -6.82638904       0.00000000 </v>
    <v>       3.94121755       6.82638904       0.00000000 </v>
    <v>       0.00000000       0.00000000       2.77248954 </v>
   </varray>
   <i name="volume">    149.18369359 </i>
   <varray name="rec_basis" >
    <v>       0.12686435      -0.07324517       0.00000000 </v>
    <v>       0.12686435       0.07324517       0.00000000 </v>
    <v>       0.00000000       0.00000000       0.36068666 </v>
   </varray>
  </crystal>
  <varray name="positions" >
   <v>       0.19708959      -0.16848230      -0.25000000 </v>
   <v>      -0.03641246      -0.38753655      -0.25000000 </v>
   <v>       0.35112409      -0.03641246       0.25000000 </v>
   <v>       0.33333333      -0.33333333      -0.25000000 </v>
   <v>      -0.16848230      -0.36557189       0.25000000 </v>
   <v>       0.36557189       0.19708959       0.25000000 </v>
   <v>      -0.35112409       0.03641246      -0.25000000 </v>
   <v>       0.03641246       0.38753655       0.25000000 </v>
   <v>       0.16848230       0.36557189      -0.25000000 </v>
   <v>      -0.36557189      -0.19708959      -0.25000000 </v>
   <v>       0.38753655       0.35112409      -0.25000000 </v>
   <v>      -0.33333333       0.33333333       0.25000000 </v>
   <v>      -0.38753655      -0.35112409       0.25000000 </v>
   <v>      -0.19708959       0.16848230       0.25000000 </v>
  </varray>
 </structure>
 <varray name="primitive_index" >
  <v type="int" >        1 </v>
  <v type="int" >        9 </v>
  <v type="int" >       10 </v>
  <v type="int" >        7 </v>
  <v type="int" >        3 </v>
  <v type="int" >        2 </v>
  <v type="int" >       14 </v>
  <v type="int" >       13 </v>
  <v type="int" >        4 </v>
  <v type="int" >        5 </v>
  <v type="int" >       12 </v>
  <v type="int" >        8 </v>
  <v type="int" >       11 </v>
  <v type="int" >        6 </v>
 </varray>
 <kpoints>
  <generation param="Auto">
   <i name="subdivisionlength">     45.00000000 </i>
   <v type="int" name="divisions">       7        7       16 </v>
   <v name="usershift">      0.00000000       0.00000000       0.00000000 </v>
   <v name="genvec1">      0.14285714       0.00000000       0.00000000 </v>
   <v name="genvec2">      0.00000000       0.14285714       0.00000000 </v>
   <v name="genvec3">      0.00000000       0.00000000       0.06250000 </v>
   <v name="shift">      0.00000000       0.00000000       0.00000000 </v>
  </generation>
  <varray name="kpointlist" >
   <v>       0.00000000       0.00000000       0.00000000 </v>
   <v>       0.14285714       0.00000000       0.00000000 </v>
   <v>       0.28571429       0.00000000       0.00000000 </v>
   <v>       0.42857143       0.00000000       0.00000000 </v>
   <v>       0.14285714       0.14285714       0.00000000 </v>
   <v>       0.28571429       0.14285714       0.00000000 </v>
   <v>       0.42857143       0.14285714       0.00000000 </v>
   <v>      -0.42857143       0.14285714       0.00000000 </v>
   <v>       0.28571429       0.28571429       0.00000000 </v>
   <v>       0.00000000       0.00000000       0.06250000 </v>
   <v>       0.14285714       0.00000000       0.06250000 </v>
   <v>       0.28571429       0.00000000       0.06250000 </v>
   <v>       0.42857143       0.00000000       0.06250000 </v>
   <v>       0.14285714       0.14285714       0.06250000 </v>
   <v>       0.28571429       0.14285714       0.06250000 </v>
   <v>       0.42857143       0.14285714       0.06250000 </v>
   <v>      -0.42857143       0.14285714       0.06250000 </v>
   <v>       0.28571429       0.28571429       0.06250000 </v>
   <v>       0.00000000       0.00000000       0.12500000 </v>
   <v>       0.14285714       0.00000000       0.12500000 </v>
   <v>       0.28571429       0.00000000       0.12500000 </v>
   <v>       0.42857143       0.00000000       0.12500000 </v>
   <v>       0.14285714       0.14285714       0.12500000 </v>
   <v>       0.28571429       0.14285714       0.12500000 </v>
   <v>       0.42857143       0.14285714       0.12500000 </v>
   <v>      -0.42857143       0.14285714       0.12500000 </v>
   <v>       0.28571429       0.28571429       0.12500000 </v>
   <v>       0.00000000       0.00000000       0.18750000 </v>
   <v>       0.14285714       0.00000000       0.18750000 </v>
   <v>       0.28571429       0.00000000       0.18750000 </v>
   <v>       0.42857143       0.00000000       0.18750000 </v>
   <v>       0.14285714       0.14285714       0.18750000 </v>
   <v>       0.28571429       0.14285714       0.18750000 </v>
   <v>       0.42857143       0.14285714       0.18750000 </v>
   <v>      -0.42857143       0.14285714       0.18750000 </v>
   <v>       0.28571429       0.28571429       0.18750000 </v>
   <v>       0.00000000       0.00000000       0.25000000 </v>
   <v>       0.14285714       0.00000000       0.25000000 </v>
   <v>       0.28571429       0.00000000       0.25000000 </v>
   <v>       0.42857143       0.00000000       0.25000000 </v>
   <v>       0.14285714       0.14285714       0.25000000 </v>
   <v>       0.28571429       0.14285714       0.25000000 </v>
   <v>       0.42857143       0.14285714       0.25000000 </v>
   <v>      -0.42857143       0.14285714       0.25000000 </v>
   <v>       0.28571429       0.28571429       0.25000000 </v>
   <v>       0.00000000       0.00000000       0.31250000 </v>
   <v>       0.14285714       0.00000000       0.31250000 </v>
   <v>       0.28571429       0.00000000       0.31250000 </v>
   <v>       0.42857143       0.00000000       0.31250000 </v>
   <v>       0.14285714       0.14285714       0.31250000 </v>
   <v>       0.28571429       0.14285714       0.31250000 </v>
   <v>       0.42857143       0.14285714       0.31250000 </v>
   <v>      -0.42857143       0.14285714       0.31250000 </v>
   <v>       0.28571429       0.28571429       0.31250000 </v>
   <v>       0.00000000       0.00000000       0.37500000 </v>
   <v>       0.14285714       0.00000000       0.37500000 </v>
   <v>       0.28571429       0.00000000       0.37500000 </v>
   <v>       0.42857143       0.00000000       0.37500000 </v>
   <v>       0.14285714       0.14285714       0.37500000 </v>
   <v>       0.28571429       0.14285714       0.37500000 </v>
   <v>       0.42857143       0.14285714       0.37500000 </v>
   <v>      -0.42857143       0.14285714       0.37500000 </v>
   <v>       0.28571429       0.28571429       0.37500000 </v>
   <v>       0.00000000       0.00000000       0.43750000 </v>
   <v>       0.14285714       0.00000000       0.43750000 </v>
   <v>       0.28571429       0.00000000       0.43750000 </v>
   <v>       0.42857143       0.00000000       0.43750000 </v>
   <v>       0.14285714       0.14285714       0.43750000 </v>
   <v>       0.28571429       0.14285714       0.43750000 </v>
   <v>       0.42857143       0.14285714       0.43750000 </v>
   <v>      -0.42857143       0.14285714       0.43750000 </v>
   <v>       0.28571429       0.28571429       0.43750000 </v>
   <v>       0.00000000       0.00000000       0.50000000 </v>
   <v>       0.14285714       0.00000000       0.50000000 </v>
   <v>       0.28571429       0.00000000       0.50000000 </v>
   <v>       0.42857143       0.00000000       0.50000000 </v>
   <v>       0.14285714       0.14285714       0.50000000 </v>
   <v>       0.28571429       0.14285714       0.50000000 </v>
   <v>       0.42857143       0.14285714       0.50000000 </v>
   <v>      -0.42857143       0.14285714       0.50000000 </v>
   <v>       0.28571429       0.28571429       0.50000000 </v>
  </varray>
  <varray name="weights" >
   <v>       0.00127551 </v>
   <v>       0.00765306 </v>
   <v>       0.00765306 </v>
   <v>       0.00765306 </v>
   <v>       0.00765306 </v>
   <v>       0.00765306 </v>
   <v>       0.00765306 </v>
   <v>       0.00765306 </v>
   <v>       0.00765306 </v>
   <v>       0.00255102 </v>
   <v>       0.01530612 </v>
   <v>       0.01530612 </v>
   <v>       0.01530612 </v>
   <v>       0.01530612 </v>
   <v>       0.01530612 </v>
   <v>       0.01530612 </v>
   <v>       0.01530612 </v>
   <v>       0.01530612 </v>
   <v>       0.00255102 </v>
   <v>       0.01530612 </v>
   <v>       0.01530612 </v>
   <v>       0.01530612 </v>
   <v>       0.01530612 </v>
   <v>       0.01530612 </v>
   <v>       0.01530612 </v>
   <v>       0.01530612 </v>
   <v>       0.01530612 </v>
   <v>       0.00255102 </v>
   <v>       0.01530612 </v>
   <v>       0.01530612 </v>
   <v>       0.01530612 </v>
   <v>       0.01530612 </v>
   <v>       0.01530612 </v>
   <v>       0.01530612 </v>
   <v>       0.01530612 </v>
   <v>       0.01530612 </v>
   <v>       0.00255102 </v>
   <v>       0.01530612 </v>
   <v>       0.01530612 </v>
   <v>       0.01530612 </v>
   <v>       0.01530612 </v>
   <v>       0.01530612 </v>
   <v>       0.01530612 </v>
   <v>       0.01530612 </v>
   <v>       0.01530612 </v>
   <v>       0.00255102 </v>
   <v>       0.01530612 </v>
   <v>       0.01530612 </v>
   <v>       0.01530612 </v>
   <v>       0.01530612 </v>
   <v>       0.01530612 </v>
   <v>       0.01530612 </v>
   <v>       0.01530612 </v>
   <v>       0.01530612 </v>
   <v>       0.00255102 </v>
   <v>       0.01530612 </v>
   <v>       0.01530612 </v>
   <v>       0.01530612 </v>
   <v>       0.01530612 </v>
   <v>       0.01530612 </v>
   <v>       0.01530612 </v>
   <v>       0.01530612 </v>
   <v>       0.01530612 </v>
   <v>       0.00255102 </v>
   <v>       0.01530612 </v>
   <v>       0.01530612 </v>
   <v>       0.01530612 </v>
   <v>       0.01530612 </v>
   <v>       0.01530612 </v>
   <v>       0.01530612 </v>
   <v>       0.01530612 </v>
   <v>       0.01530612 </v>
   <v>       0.00127551 </v>
   <v>       0.00765306 </v>
   <v>       0.00765306 </v>
   <v>       0.00765306 </v>
   <v>       0.00765306 </v>
   <v>       0.00765306 </v>
   <v>       0.00765306 </v>
   <v>       0.00765306 </v>
   <v>       0.00765306 </v>
  </varray>
 </kpoints>
 <parameters>
  <separator name="general" >
   <i type="string" name="SYSTEM">unknown system</i>
   <i type="logical" name="LCOMPAT"> F  </i>
  </separator>
  <separator name="electronic" >
   <i type="string" name="PREC">accura</i>
   <i name="ENMAX">    400.00000000</i>
   <i name="ENAUG">    627.11200000</i>
   <i name="EDIFF">      0.00010000</i>
   <i type="int" name="IALGO">    68</i>
   <i type="int" name="IWAVPR">    11</i>
   <i type="int" name="NBANDS">    40</i>
   <i name="NELECT">     62.00000000</i>
   <i type="int" name="TURBO">     0</i>
   <i type="int" name="IRESTART">     0</i>
   <i type="int" name="NREBOOT">     0</i>
   <i type="int" name="NMIN">     0</i>
   <i name="EREF">      0.00000000</i>
   <separator name="electronic smearing" >
    <i type="int" name="ISMEAR">     2</i>
    <i name="SIGMA">      0.10000000</i>
    <i name="KSPACING">      0.50000000</i>
    <i type="logical" name="KGAMMA"> T  </i>
   </separator>
   <separator name="electronic projectors" >
    <i type="logical" name="LREAL"> T  </i>
    <v name="ROPT">     -0.00025000     -0.00025000</v>
    <i type="int" name="LMAXPAW">  -100</i>
    <i type="int" name="LMAXMIX">     2</i>
    <i type="logical" name="NLSPLINE"> F  </i>
   </separator>
   <separator name="electronic startup" >
    <i type="int" name="ISTART">     0</i>
    <i type="int" name="ICHARG">     2</i>
    <i type="int" name="INIWAV">     1</i>
   </separator>
   <separator name="electronic spin" >
    <i type="int" name="ISPIN">     1</i>
    <i type="logical" name="LNONCOLLINEAR"> F  </i>
    <v name="MAGMOM">      1.00000000      1.00000000      1.00000000      1.00000000      1.00000000      1.00000000      1.00000000      1.00000000      1.00000000      1.00000000      1.00000000      1.00000000      1.00000000      1.00000000</v>
    <i name="NUPDOWN">     -1.00000000</i>
    <i type="logical" name="LSORBIT"> F  </i>
    <v name="SAXIS">      0.00000000      0.00000000      1.00000000</v>
    <i type="logical" name="LSPIRAL"> F  </i>
    <v name="QSPIRAL">      0.00000000      0.00000000      0.00000000</v>
    <i type="logical" name="LZEROZ"> F  </i>
   </separator>
   <separator name="electronic exchange-correlation" >
    <i type="logical" name="LASPH"> F  </i>
    <i type="logical" name="LMETAGGA"> F  </i>
   </separator>
   <separator name="electronic convergence" >
    <i type="int" name="NELM">    60</i>
    <i type="int" name="NELMDL">    -5</i>
    <i type="int" name="NELMIN">     2</i>
    <i name="ENINI">    400.00000000</i>
    <separator name="electronic convergence detail" >
     <i type="logical" name="LDIAG"> T  </i>
     <i type="logical" name="LSUBROT"> F  </i>
     <i name="WEIMIN">      0.00100000</i>
     <i name="EBREAK">      0.00000063</i>
     <i name="DEPER">      0.30000000</i>
     <i type="int" name="NRMM">     4</i>
     <i name="TIME">      0.40000000</i>
    </separator>
   </separator>
   <separator name="electronic mixer" >
    <i name="AMIX">      0.40000000</i>
    <i name="BMIX">      1.00000000</i>
    <i name="AMIN">      0.10000000</i>
    <i name="AMIX_MAG">      1.60000000</i>
    <i name="BMIX_MAG">      1.00000000</i>
    <separator name="electronic mixer details" >
     <i type="int" name="IMIX">     4</i>
     <i type="logical" name="MIXFIRST"> F  </i>
     <i type="int" name="MAXMIX">   -45</i>
     <i name="WC">    100.00000000</i>
     <i type="int" name="INIMIX">     1</i>
     <i type="int" name="MIXPRE">     1</i>
     <i type="int" name="MREMOVE">     5</i>
    </separator>
   </separator>
   <separator name="electronic dipolcorrection" >
    <i type="logical" name="LDIPOL"> F  </i>
    <i type="logical" name="LMONO"> F  </i>
    <i type="int" name="IDIPOL">     0</i>
    <i name="EPSILON">      1.00000000</i>
    <v name="DIPOL">   -100.00000000   -100.00000000   -100.00000000</v>
    <i name="EFIELD">      0.00000000</i>
   </separator>
  </separator>
  <separator name="grids" >
   <i type="int" name="NGX">    54</i>
   <i type="int" name="NGY">    54</i>
   <i type="int" name="NGZ">    18</i>
   <i type="int" name="NGXF">   108</i>
   <i type="int" name="NGYF">   108</i>
   <i type="int" name="NGZF">    36</i>
   <i type="logical" name="ADDGRID"> F  </i>
  </separator>
  <separator name="ionic" >
   <i type="int" name="NSW">   100</i>
   <i type="int" name="IBRION">     2</i>
   <i type="int" name="MDALGO">     0</i>
   <i type="int" name="ISIF">     2</i>
   <i name="PSTRESS">      0.00000000</i>
   <i name="EDIFFG">      0.00100000</i>
   <i type="int" name="NFREE">     1</i>
   <i name="POTIM">      0.50000000</i>
   <i name="SMASS">     -3.00000000</i>
   <i name="SCALEE">      1.00000000</i>
  </separator>
  <separator name="ionic md" >
   <i name="TEBEG">      0.00010000</i>
   <i name="TEEND">      0.00010000</i>
   <i type="int" name="NBLOCK">     1</i>
   <i type="int" name="KBLOCK">   100</i>
   <i type="int" name="NPACO">   256</i>
   <i name="APACO">     16.00000000</i>
  </separator>
  <separator name="symmetry" >
   <i type="int" name="ISYM">     2</i>
   <i name="SYMPREC">      0.00001000</i>
  </separator>
  <separator name="dos" >
   <i type="int" name="LORBIT">     0</i>
   <v name="RWIGS">     -1.00000000     -1.00000000</v>
   <i type="int" name="NEDOS">   301</i>
   <i name="EMIN">     10.00000000</i>
   <i name="EMAX">    -10.00000000</i>
   <i name="EFERMI">      0.00000000</i>
  </separator>
  <separator name="writing" >
   <i type="int" name="NWRITE">     2</i>
   <i type="logical" name="LWAVE"> F  </i>
   <i type="logical" name="LDOWNSAMPLE"> F  </i>
   <i type="logical" name="LCHARG"> F  </i>
   <i type="logical" name="LPARD"> F  </i>
   <i type="logical" name="LVTOT"> F  </i>
   <i type="logical" name="LVHAR"> F  </i>
   <i type="logical" name="LELF"> F  </i>
   <i type="logical" name="LOPTICS"> F  </i>
   <v name="STM">      0.00000000      0.00000000      0.00000000      0.00000000      0.00000000      0.00000000      0.00000000</v>
  </separator>
  <separator name="performance" >
   <i type="int" name="NPAR">     4</i>
   <i type="int" name="NSIM">     4</i>
   <i type="int" name="NBLK">    -1</i>
   <i type="logical" name="LPLANE"> T  </i>
   <i type="logical" name="LSCALAPACK"> F  </i>
   <i type="logical" name="LSCAAWARE"> F  </i>
   <i type="logical" name="LSCALU"> F  </i>
   <i type="logical" name="LASYNC"> F  </i>
   <i type="logical" name="LORBITALREAL"> F  </i>
  </separator>
  <separator name="miscellaneous" >
   <i type="int" name="IDIOT">     3</i>
   <i type="int" name="ISPECIAL">     0</i>
   <i type="logical" name="LMUSIC"> F  </i>
   <v name="POMASS">     14.00100000     28.08500000</v>
   <v name="DARWINR">      0.00000000      0.00000000</v>
   <v name="DARWINV">      1.00000000      1.00000000</v>
   <i type="logical" name="LCORR"> T  </i>
  </separator>
  <i type="logical" name="GGA_COMPAT"> T  </i>
  <i type="logical" name="LBERRY"> F  </i>
  <i type="int" name="ICORELEVEL">     0</i>
  <i type="logical" name="LDAU"> F  </i>
  <i type="int" name="I_CONSTRAINED_M">     0</i>
  <separator name="electronic exchange-correlation" >
   <i type="string" name="GGA">--</i>
   <i type="int" name="VOSKOWN">     0</i>
   <i type="logical" name="LHFCALC"> F  </i>
   <i type="string" name="PRECFOCK"></i>
   <i type="logical" name="LSYMGRAD"> F  </i>
   <i type="logical" name="LHFONE"> F  </i>
   <i type="logical" name="LRHFCALC"> F  </i>
   <i type="logical" name="LTHOMAS"> F  </i>
   <i type="logical" name="LMODELHF"> F  </i>
   <i name="ENCUT4O">     -1.00000000</i>
   <i type="int" name="EXXOEP">     0</i>
   <i type="int" name="FOURORBIT">     0</i>
   <i name="AEXX">      0.00000000</i>
   <i name="HFALPHA">      0.00000000</i>
   <i name="MCALPHA">      0.00000000</i>
   <i name="ALDAX">      1.00000000</i>
   <i name="AGGAX">      1.00000000</i>
   <i name="ALDAC">      1.00000000</i>
   <i name="AGGAC">      1.00000000</i>
   <i type="int" name="NKREDX">     1</i>
   <i type="int" name="NKREDY">     1</i>
   <i type="int" name="NKREDZ">     1</i>
   <i type="logical" name="SHIFTRED"> F  </i>
   <i type="logical" name="ODDONLY"> F  </i>
   <i type="logical" name="EVENONLY"> F  </i>
   <i type="int" name="LMAXFOCK">     0</i>
   <i type="int" name="NMAXFOCKAE">     0</i>
   <i type="logical" name="LFOCKAEDFT"> F  </i>
   <i name="HFSCREEN">      0.00000000</i>
   <i name="HFSCREENC">      0.00000000</i>
   <i type="int" name="NBANDSGWLOW">     0</i>
  </separator>
  <separator name="vdW DFT" >
   <i type="logical" name="LUSE_VDW"> F  </i>
   <i name="Zab_VDW">     -0.84910000</i>
   <i name="PARAM1">      0.12340000</i>
   <i name="PARAM2">      1.00000000</i>
   <i name="PARAM3">      0.00000000</i>
  </separator>
  <separator name="model GW" >
   <i type="int" name="MODEL_GW">     0</i>
   <i name="MODEL_EPS0">      6.39358687</i>
   <i name="MODEL_ALPHA">      1.00000000</i>
  </separator>
  <separator name="linear response parameters" >
   <i type="logical" name="LEPSILON"> F  </i>
   <i type="logical" name="LRPA"> F  </i>
   <i type="logical" name="LNABLA"> F  </i>
   <i type="logical" name="LVEL"> F  </i>
   <i type="int" name="KINTER">     0</i>
   <i name="CSHIFT">      0.10000000</i>
   <i name="OMEGAMAX">     -1.00000000</i>
   <i name="DEG_THRESHOLD">      0.00200000</i>
   <i name="RTIME">     -0.10000000</i>
   <i name="WPLASMAI">      0.00000000</i>
   <v name="DFIELD">      0.00000000      0.00000000      0.00000000</v>
   <v name="WPLASMA">      0.00000000      0.00000000      0.00000000      0.00000000      0.00000000      0.00000000      0.00000000      0.00000000      0.00000000</v>
  </separator>
  <separator name="orbital magnetization" >
   <i type="logical" name="NUCIND"> F  </i>
   <v name="MAGPOS">      0.00000000      0.00000000      0.00000000</v>
   <i type="logical" name="LNICSALL"> T  </i>
   <i type="logical" name="ORBITALMAG"> F  </i>
   <i type="logical" name="LMAGBLOCH"> F  </i>
   <i type="logical" name="LCHIMAG"> F  </i>
   <i type="logical" name="LGAUGE"> T  </i>
   <i type="int" name="MAGATOM">     0</i>
   <v name="MAGDIPOL">      0.00000000      0.00000000      0.00000000</v>
   <v name="AVECCONST">      0.00000000      0.00000000      0.00000000</v>
  </separator>
  <separator name="response functions" >
   <i type="logical" name="LADDER"> F  </i>
   <i type="logical" name="LRPAFORCE"> F  </i>
   <i type="logical" name="LFXC"> F  </i>
   <i type="logical" name="LHARTREE"> T  </i>
   <i type="int" name="IBSE">     0</i>
   <v type="int" name="KPOINT">    -1     0     0     0</v>
   <i type="logical" name="LTCTE"> F  </i>
   <i type="logical" name="LTETE"> F  </i>
   <i type="logical" name="LTRIPLET"> F  </i>
   <i type="logical" name="LFXCEPS"> F  </i>
   <i type="logical" name="LFXHEG"> F  </i>
   <i type="int" name="NATURALO">     2</i>
   <i type="logical" name="L2ORDER"> F  </i>
   <i type="logical" name="LMP2LT"> F  </i>
   <i type="logical" name="LUSEW"> F  </i>
   <i name="ENCUTGW">     -2.00000000</i>
   <i name="ENCUTGWSOFT">     -2.00000000</i>
   <i name="ENCUTLF">     -1.00000000</i>
   <i type="int" name="LMAXMP2">    -1</i>
   <i name="SCISSOR">      0.00000000</i>
   <i type="int" name="NOMEGA">     0</i>
   <i type="int" name="NOMEGAR">     0</i>
   <i type="int" name="NBANDSGW">    -1</i>
   <i type="int" name="NBANDSO">    -1</i>
   <i type="int" name="NBANDSV">    -1</i>
   <i type="int" name="NELM">     1</i>
   <i type="int" name="NELMHF">     1</i>
   <i type="int" name="DIM">     3</i>
   <i type="int" name="ANTIRES">     0</i>
   <i name="OMEGAMAX">    -30.00000000</i>
   <i name="OMEGAMIN">    -30.00000000</i>
   <i name="OMEGATL">   -200.00000000</i>
   <i type="int" name="OMEGAGRID">   140</i>
   <i name="CSHIFT">     -0.10000000</i>
   <i type="logical" name="SELFENERGY"> F  </i>
   <i type="logical" name="LSPECTRAL"> F  </i>
   <i type="logical" name="LSPECTRALGW"> F  </i>
   <i type="logical" name="LSINGLES"> F  </i>
   <i type="logical" name="LFERMIGW"> F  </i>
   <i type="logical" name="ODDONLYGW"> F  </i>
   <i type="logical" name="EVENONLYGW"> F  </i>
   <i type="int" name="NKREDLFX">     1</i>
   <i type="int" name="NKREDLFY">     1</i>
   <i type="int" name="NKREDLFZ">     1</i>
   <i type="int" name="MAXMEM">  2800</i>
   <i type="int" name="TELESCOPE">     0</i>
   <i type="int" name="TAUPAR">     1</i>
   <i type="int" name="OMEGAPAR">    -1</i>
   <i name="LAMBDA">      1.00000000</i>
  </separator>
  <separator name="External order field" >
   <i name="OFIELD_KAPPA">      0.00000000</i>
   <v name="OFIELD_K">      0.00000000      0.00000000      0.00000000</v>
   <i name="OFIELD_Q6_NEAR">      0.00000000</i>
   <i name="OFIELD_Q6_FAR">      0.00000000</i>
   <i name="OFIELD_A">      0.00000000</i>
  </separator>
 </parameters>
 <atominfo>
  <atoms>      14 </atoms>
  <types>       2 </types>
  <array name="atoms" >
   <dimension dim="1">ion</dimension>
   <field type="string">element</field>
   <field type="int">atomtype</field>
   <set>
    <rc><c>N </c><c>   1</c></rc>
    <rc><c>N </c><c>   1</c></rc>
    <rc><c>N </c><c>   1</c></rc>
    <rc><c>N </c><c>   1</c></rc>
    <rc><c>N </c><c>   1</c></rc>
    <rc><c>N </c><c>   1</c></rc>
    <rc><c>Si</c><c>   2</c></rc>
    <rc><c>Si</c><c>   2</c></rc>
    <rc><c>Si</c><c>   2</c></rc>
    <rc><c>Si</c><c>   2</c></rc>
    <rc><c>Si</c><c>   2</c></rc>
    <rc><c>Si</c><c>   2</c></rc>
    <rc><c>Si</c><c>   2</c></rc>
    <rc><c>Si</c><c>   2</c></rc>
   </set>
  </array>
  <array name="atomtypes" >
   <dimension dim="1">type</dimension>
   <field type="int">atomspertype</field>
   <field type="string">element</field>
   <field>mass</field>
   <field>valence</field>
   <field type="string">pseudopotential</field>
   <set>
    <rc><c>   6</c><c>N </c><c>     14.00100000</c><c>      5.00000000</c><c>  PAW_PBE N 08Apr2002                   </c></rc>
    <rc><c>   8</c><c>Si</c><c>     28.08500000</c><c>      4.00000000</c><c>  PAW_PBE Si 05Jan2001                  </c></rc>
   </set>
  </array>
 </atominfo>
 <structure name="initialpos" >
  <crystal>
   <varray name="basis" >
    <v>       3.94121756      -6.82638904       0.00000000 </v>
    <v>       3.94121755       6.82638904       0.00000000 </v>
    <v>       0.00000000       0.00000000       2.77248954 </v>
   </varray>
   <i name="volume">    149.18369359 </i>
   <varray name="rec_basis" >
    <v>       0.12686435      -0.07324517       0.00000000 </v>
    <v>       0.12686435       0.07324517       0.00000000 </v>
    <v>       0.00000000       0.00000000       0.36068666 </v>
   </varray>
  </crystal>
  <varray name="positions" >
   <v>       0.19708959       0.83151770       0.75000000 </v>
   <v>       0.36557189       0.19708959       0.25000000 </v>
   <v>       0.83151770       0.63442811       0.25000000 </v>
   <v>       0.16848230       0.36557189       0.75000000 </v>
   <v>       0.63442811       0.80291041       0.75000000 </v>
   <v>       0.80291041       0.16848230       0.25000000 </v>
   <v>       0.33333333       0.66666667       0.75000000 </v>
   <v>       0.66666667       0.33333333       0.25000000 </v>
   <v>       0.96358754       0.61246345       0.75000000 </v>
   <v>       0.35112409       0.96358754       0.25000000 </v>
   <v>       0.61246345       0.64887591       0.25000000 </v>
   <v>       0.38753655       0.35112409       0.75000000 </v>
   <v>       0.03641246       0.38753655       0.25000000 </v>
   <v>       0.64887591       0.03641246       0.75000000 </v>
  </varray>
 </structure>
 <calculation>
  <scstep>
   <time name="dav">    4.22    4.36</time>
   <time name="total">    4.24    4.39</time>
   <energy>
    <i name="alphaZ">     81.71489013 </i>
    <i name="ewald">  -2268.79317919 </i>
    <i name="hartreedc">   -507.40240032 </i>
    <i name="XCdc">     54.28961699 </i>
    <i name="pawpsdc">   1934.58678659 </i>
    <i name="pawaedc">  -1800.98643654 </i>
    <i name="eentropy">     -0.00097798 </i>
    <i name="bandstr">    325.97046866 </i>
    <i name="atom">   2411.37598431 </i>
    <i name="e_fr_energy">    230.75475265 </i>
    <i name="e_wo_entrp">    230.75573063 </i>
    <i name="e_0_energy">    230.75499715 </i>
   </energy>
  </scstep>
  <scstep>
   <time name="dav">   78.66   83.47</time>
   <time name="total">   78.67   83.47</time>
   <energy>
    <i name="e_fr_energy">    -83.12422889 </i>
    <i name="e_wo_entrp">    -83.12443869 </i>
    <i name="e_0_energy">    -83.12428134 </i>
   </energy>
  </scstep>
  <scstep>
   <time name="dav">    3.55    3.55</time>
   <time name="total">    3.55    3.55</time>
   <energy>
    <i name="e_fr_energy">   -104.30296889 </i>
    <i name="e_wo_entrp">   -104.30298038 </i>
    <i name="e_0_energy">   -104.30297176 </i>
   </energy>
  </scstep>
  <scstep>
   <time name="dav">    3.61    3.61</time>
   <time name="total">    3.61    3.61</time>
   <energy>
    <i name="e_fr_energy">   -104.79729105 </i>
    <i name="e_wo_entrp">   -104.79725064 </i>
    <i name="e_0_energy">   -104.79728095 </i>
   </energy>
  </scstep>
  <scstep>
   <time name="dav">    8.49    8.49</time>
   <time name="total">    8.65    8.65</time>
   <energy>
    <i name="e_fr_energy">   -104.80855699 </i>
    <i name="e_wo_entrp">   -104.80851328 </i>
    <i name="e_0_energy">   -104.80854606 </i>
   </energy>
  </scstep>
  <scstep>
   <time name="diag">    0.41    0.41</time>
   <time name="diis">    2.09    2.09</time>
   <time name="orth">    0.04    0.04</time>
   <time name="total">    2.72    2.72</time>
   <energy>
    <i name="e_fr_energy">    -95.61402813 </i>
    <i name="e_wo_entrp">    -95.61465708 </i>
    <i name="e_0_energy">    -95.61418537 </i>
   </energy>
  </scstep>
  <scstep>
   <time name="diag">    5.85    5.85</time>
   <time name="diis">    3.31    3.31</time>
   <time name="orth">    4.77    4.77</time>
   <time name="total">   15.11   15.11</time>
   <energy>
    <i name="e_fr_energy">    -95.19162469 </i>
    <i name="e_wo_entrp">    -95.19162065 </i>
    <i name="e_0_energy">    -95.19162368 </i>
   </energy>
  </scstep>
  <scstep>
   <time name="diag">   14.98   14.98</time>
   <time name="diis">    2.49    2.49</time>
   <time name="orth">    5.93    5.93</time>
   <time name="total">   24.57   24.57</time>
   <energy>
    <i name="e_fr_energy">    -95.08964556 </i>
    <i name="e_wo_entrp">    -95.08824515 </i>
    <i name="e_0_energy">    -95.08929546 </i>
   </energy>
  </scstep>
  <scstep>
   <time name="diag">    0.41    0.41</time>
   <time name="diis">    1.95    1.95</time>
   <time name="orth">    0.04    0.04</time>
   <time name="total">    2.58    2.58</time>
   <energy>
    <i name="e_fr_energy">    -95.08361265 </i>
    <i name="e_wo_entrp">    -95.08270616 </i>
    <i name="e_0_energy">    -95.08338603 </i>
   </energy>
  </scstep>
  <scstep>
   <time name="diag">    0.41    0.41</time>
   <time name="diis">    1.95    1.95</time>
   <time name="orth">    0.04    0.04</time>
   <time name="total">    2.57    2.58</time>
   <energy>
    <i name="e_fr_energy">    -95.08141323 </i>
    <i name="e_wo_entrp">    -95.08045359 </i>
    <i name="e_0_energy">    -95.08117332 </i>
   </energy>
  </scstep>
  <scstep>
   <time name="diag">    0.41    0.41</time>
   <time name="diis">    1.98    1.98</time>
   <time name="orth">    0.04    0.04</time>
   <time name="total">    2.60    2.60</time>
   <energy>
    <i name="e_fr_energy">    -95.08242622 </i>
    <i name="e_wo_entrp">    -95.08141665 </i>
    <i name="e_0_energy">    -95.08217383 </i>
   </energy>
  </scstep>
  <scstep>
   <time name="diag">    0.41    0.41</time>
   <time name="diis">    1.94    1.94</time>
   <time name="orth">    0.04    0.04</time>
   <time name="total">    2.57    2.57</time>
   <energy>
    <i name="e_fr_energy">    -95.08221187 </i>
    <i name="e_wo_entrp">    -95.08122444 </i>
    <i name="e_0_energy">    -95.08196501 </i>
   </energy>
  </scstep>
  <scstep>
   <time name="diag">    0.41    0.41</time>
   <time name="diis">    1.35    1.35</time>
   <time name="orth">    0.04    0.04</time>
   <time name="total">    1.81    1.81</time>
   <energy>
    <i name="alphaZ">     81.71489013 </i>
    <i name="ewald">  -2268.79317919 </i>
    <i name="hartreedc">   -600.39003916 </i>
    <i name="XCdc">     61.51938310 </i>
    <i name="pawpsdc">   8456.42579074 </i>
    <i name="pawaedc">  -8324.57254209 </i>
    <i name="eentropy">     -0.00098007 </i>
    <i name="bandstr">     87.63845665 </i>
    <i name="atom">   2411.37598431 </i>
    <i name="e_fr_energy">    -95.08223558 </i>
    <i name="e_wo_entrp">    -95.08125551 </i>
    <i name="e_0_energy">    -95.08199056 </i>
   </energy>
  </scstep>
  <structure>
   <crystal>
    <varray name="basis" >
     <v>       3.94121756      -6.82638904       0.00000000 </v>
     <v>       3.94121755       6.82638904       0.00000000 </v>
     <v>       0.00000000       0.00000000       2.77248954 </v>
    </varray>
    <i name="volume">    149.18369359 </i>
    <varray name="rec_basis" >
     <v>       0.12686435      -0.07324517       0.00000000 </v>
     <v>       0.12686435       0.07324517       0.00000000 </v>
     <v>       0.00000000       0.00000000       0.36068666 </v>
    </varray>
   </crystal>
   <varray name="positions" >
    <v>       0.19708959       0.83151770       0.75000000 </v>
    <v>       0.36557189       0.19708959       0.25000000 </v>
    <v>       0.83151770       0.63442811       0.25000000 </v>
    <v>       0.16848230       0.36557189       0.75000000 </v>
    <v>       0.63442811       0.80291041       0.75000000 </v>
    <v>       0.80291041       0.16848230       0.25000000 </v>
    <v>       0.33333333       0.66666667       0.75000000 </v>
    <v>       0.66666667       0.33333333       0.25000000 </v>
    <v>       0.96358754       0.61246345       0.75000000 </v>
    <v>       0.35112409       0.96358754       0.25000000 </v>
    <v>       0.61246345       0.64887591       0.25000000 </v>
    <v>       0.38753655       0.35112409       0.75000000 </v>
    <v>       0.03641246       0.38753655       0.25000000 </v>
    <v>       0.64887591       0.03641246       0.75000000 </v>
   </varray>
  </structure>
  <varray name="forces" >
   <v>      -0.08233485       0.11252605       0.00000000 </v>
   <v>      -0.13861784      -0.01504105       0.00000000 </v>
   <v>       0.05628299       0.12756710       0.00000000 </v>
   <v>      -0.05628299      -0.12756710       0.00000000 </v>
   <v>       0.13861784       0.01504105       0.00000000 </v>
   <v>       0.08233485      -0.11252605       0.00000000 </v>
   <v>       0.00000000       0.00000000      -0.00000000 </v>
   <v>       0.00000000       0.00000000       0.00000000 </v>
   <v>      -0.05354797      -0.14069986       0.00000000 </v>
   <v>       0.09507566      -0.11672383       0.00000000 </v>
   <v>      -0.14862364      -0.02397602       0.00000000 </v>
   <v>       0.14862364       0.02397602      -0.00000000 </v>
   <v>       0.05354797       0.14069986      -0.00000000 </v>
   <v>      -0.09507566       0.11672383      -0.00000000 </v>
  </varray>
  <varray name="stress" >
   <v>      83.78327684       0.00000004      -0.00000000 </v>
   <v>      -0.00000004      83.78327684      -0.00000000 </v>
   <v>       0.00000000      -0.00000000      59.74427479 </v>
  </varray>
  <energy>
   <i name="e_fr_energy">    -95.08223558 </i>
   <i name="e_wo_entrp">    -95.08199056 </i>
   <i name="e_0_energy">     -0.00098007 </i>
  </energy>
  <time name="totalsc">  158.04  163.08</time>
 </calculation>
 <calculation>
  <scstep>
   <time name="dav">    3.33    3.33</time>
   <time name="total">    3.51    3.51</time>
   <energy>
    <i name="alphaZ">     81.71489013 </i>
    <i name="ewald">  -2272.45122147 </i>
    <i name="hartreedc">   -598.10335164 </i>
    <i name="XCdc">     61.46155106 </i>
    <i name="pawpsdc">   8460.59671621 </i>
    <i name="pawaedc">  -8328.74368411 </i>
    <i name="eentropy">     -0.00065824 </i>
    <i name="bandstr">     89.06674069 </i>
    <i name="atom">   2411.37598431 </i>
    <i name="e_fr_energy">    -95.08303305 </i>
    <i name="e_wo_entrp">    -95.08237481 </i>
    <i name="e_0_energy">    -95.08286849 </i>
   </energy>
  </scstep>
  <scstep>
   <time name="diag">    0.41    0.41</time>
   <time name="diis">    1.96    1.96</time>
   <time name="orth">    0.04    0.04</time>
   <time name="total">    2.58    2.59</time>
   <energy>
    <i name="e_fr_energy">    -95.08417255 </i>
    <i name="e_wo_entrp">    -95.08352324 </i>
    <i name="e_0_energy">    -95.08401022 </i>
   </energy>
  </scstep>
  <scstep>
   <time name="diag">    0.41    0.41</time>
   <time name="diis">    1.99    1.99</time>
   <time name="orth">    0.04    0.04</time>
   <time name="total">    2.62    2.62</time>
   <energy>
    <i name="e_fr_energy">    -95.08383239 </i>
    <i name="e_wo_entrp">    -95.08317858 </i>
    <i name="e_0_energy">    -95.08366893 </i>
   </energy>
  </scstep>
  <scstep>
   <time name="diag">    0.40    0.40</time>
   <time name="diis">    1.56    1.56</time>
   <time name="orth">    0.04    0.04</time>
   <time name="total">    2.02    2.02</time>
   <energy>
    <i name="alphaZ">     81.71489013 </i>
    <i name="ewald">  -2272.45122147 </i>
    <i name="hartreedc">   -597.25146234 </i>
    <i name="XCdc">     61.41762661 </i>
    <i name="pawpsdc">   8422.05141842 </i>
    <i name="pawaedc">  -8290.18255659 </i>
    <i name="eentropy">     -0.00065001 </i>
    <i name="bandstr">     88.24219204 </i>
    <i name="atom">   2411.37598431 </i>
    <i name="e_fr_energy">    -95.08377889 </i>
    <i name="e_wo_entrp">    -95.08312888 </i>
    <i name="e_0_energy">    -95.08361639 </i>
   </energy>
  </scstep>
  <structure>
   <crystal>
    <varray name="basis" >
     <v>       3.94121756      -6.82638904       0.00000000 </v>
     <v>       3.94121755       6.82638904       0.00000000 </v>
     <v>       0.00000000       0.00000000       2.77248954 </v>
    </varray>
    <i name="volume">    149.18369359 </i>
    <varray name="rec_basis" >
     <v>       0.12686435      -0.07324517       0.00000000 </v>
     <v>       0.12686435       0.07324517       0.00000000 </v>
     <v>       0.00000000       0.00000000       0.36068666 </v>
    </varray>
   </crystal>
   <varray name="positions" >
    <v>       0.19618807       0.83141141       0.75000000 </v>
    <v>       0.36477666       0.19618807       0.25000000 </v>
    <v>       0.83141141       0.63522334       0.25000000 </v>
    <v>       0.16858859       0.36477666       0.75000000 </v>
    <v>       0.63522334       0.80381193       0.75000000 </v>
    <v>       0.80381193       0.16858859       0.25000000 </v>
    <v>       0.33333333       0.66666667       0.75000000 </v>
    <v>       0.66666667       0.33333333       0.25000000 </v>
    <v>       0.96375698       0.61163855       0.75000000 </v>
    <v>       0.35211843       0.96375698       0.25000000 </v>
    <v>       0.61163855       0.64788157       0.25000000 </v>
    <v>       0.38836145       0.35211843       0.75000000 </v>
    <v>       0.03624302       0.38836145       0.25000000 </v>
    <v>       0.64788157       0.03624302       0.75000000 </v>
   </varray>
  </structure>
  <varray name="forces" >
   <v>       0.07050766      -0.04888786       0.00000000 </v>
   <v>       0.07759196       0.03661749       0.00000000 </v>
   <v>      -0.00708430      -0.08550535       0.00000000 </v>
   <v>       0.00708430       0.08550535      -0.00000000 </v>
   <v>      -0.07759196      -0.03661749       0.00000000 </v>
   <v>      -0.07050766       0.04888786       0.00000000 </v>
   <v>      -0.00000000      -0.00000000       0.00000000 </v>
   <v>      -0.00000000      -0.00000000      -0.00000000 </v>
   <v>      -0.02635361       0.15179192      -0.00000000 </v>
   <v>      -0.14463246       0.05307306      -0.00000000 </v>
   <v>       0.11827885       0.09871886      -0.00000000 </v>
   <v>      -0.11827885      -0.09871886      -0.00000000 </v>
   <v>       0.02635361      -0.15179192       0.00000000 </v>
   <v>       0.14463246      -0.05307306       0.00000000 </v>
  </varray>
  <varray name="stress" >
   <v>      78.64915242       0.00000001       0.00000000 </v>
   <v>      -0.00000001      78.64915242       0.00000000 </v>
   <v>       0.00000000       0.00000000      55.47756730 </v>
  </varray>
  <energy>
   <i name="e_fr_energy">    -95.08377889 </i>
   <i name="e_wo_entrp">    -95.08361639 </i>
   <i name="e_0_energy">     -0.00065001 </i>
  </energy>
  <time name="totalsc">   15.52   15.53</time>
 </calculation>
 <calculation>
  <scstep>
   <time name="dav">    3.28    3.28</time>
   <time name="total">    3.46    3.46</time>
   <energy>
    <i name="alphaZ">     81.71489013 </i>
    <i name="ewald">  -2270.89199532 </i>
    <i name="hartreedc">   -598.24125204 </i>
    <i name="XCdc">     61.44402716 </i>
    <i name="pawpsdc">   8412.02184560 </i>
    <i name="pawaedc">  -8280.15193209 </i>
    <i name="eentropy">     -0.00077117 </i>
    <i name="bandstr">     87.64358304 </i>
    <i name="atom">   2411.37598431 </i>
    <i name="e_fr_energy">    -95.08562038 </i>
    <i name="e_wo_entrp">    -95.08484921 </i>
    <i name="e_0_energy">    -95.08542759 </i>
   </energy>
  </scstep>
  <scstep>
   <time name="diag">    0.41    0.41</time>
   <time name="diis">    1.94    1.94</time>
   <time name="orth">    0.04    0.04</time>
   <time name="total">    2.56    2.56</time>
   <energy>
    <i name="e_fr_energy">    -95.08582319 </i>
    <i name="e_wo_entrp">    -95.08504526 </i>
    <i name="e_0_energy">    -95.08562871 </i>
   </energy>
  </scstep>
  <scstep>
   <time name="diag">    0.41    0.41</time>
   <time name="diis">    1.41    1.41</time>
   <time name="orth">    0.04    0.04</time>
   <time name="total">    1.88    1.88</time>
   <energy>
    <i name="alphaZ">     81.71489013 </i>
    <i name="ewald">  -2270.89199532 </i>
    <i name="hartreedc">   -598.53506225 </i>
    <i name="XCdc">     61.45943349 </i>
    <i name="pawpsdc">   8417.78166209 </i>
    <i name="pawaedc">  -8285.91658477 </i>
    <i name="eentropy">     -0.00077559 </i>
    <i name="bandstr">     87.92669625 </i>
    <i name="atom">   2411.37598431 </i>
    <i name="e_fr_energy">    -95.08575165 </i>
    <i name="e_wo_entrp">    -95.08497607 </i>
    <i name="e_0_energy">    -95.08555776 </i>
   </energy>
  </scstep>
  <structure>
   <crystal>
    <varray name="basis" >
     <v>       3.94121756      -6.82638904       0.00000000 </v>
     <v>       3.94121755       6.82638904       0.00000000 </v>
     <v>       0.00000000       0.00000000       2.77248954 </v>
    </varray>
    <i name="volume">    149.18369359 </i>
    <varray name="rec_basis" >
     <v>       0.12686435      -0.07324517       0.00000000 </v>
     <v>       0.12686435       0.07324517       0.00000000 </v>
     <v>       0.00000000       0.00000000       0.36068666 </v>
    </varray>
   </crystal>
   <varray name="positions" >
    <v>       0.19657214       0.83145669       0.75000000 </v>
    <v>       0.36511545       0.19657214       0.25000000 </v>
    <v>       0.83145669       0.63488455       0.25000000 </v>
    <v>       0.16854331       0.36511545       0.75000000 </v>
    <v>       0.63488455       0.80342786       0.75000000 </v>
    <v>       0.80342786       0.16854331       0.25000000 </v>
    <v>       0.33333333       0.66666667       0.75000000 </v>
    <v>       0.66666667       0.33333333       0.25000000 </v>
    <v>       0.96368480       0.61198998       0.75000000 </v>
    <v>       0.35169481       0.96368480       0.25000000 </v>
    <v>       0.61198998       0.64830519       0.25000000 </v>
    <v>       0.38801002       0.35169481       0.75000000 </v>
    <v>       0.03631520       0.38801002       0.25000000 </v>
    <v>       0.64830519       0.03631520       0.75000000 </v>
   </varray>
  </structure>
  <varray name="forces" >
   <v>       0.00920055       0.01064318      -0.00000000 </v>
   <v>      -0.00461699       0.01328950      -0.00000000 </v>
   <v>       0.01381754      -0.00264632       0.00000000 </v>
   <v>      -0.01381754       0.00264632      -0.00000000 </v>
   <v>       0.00461699      -0.01328950       0.00000000 </v>
   <v>      -0.00920055      -0.01064318       0.00000000 </v>
   <v>      -0.00000000       0.00000000      -0.00000000 </v>
   <v>      -0.00000000       0.00000000      -0.00000000 </v>
   <v>      -0.04136500       0.02637983       0.00000000 </v>
   <v>      -0.04352810      -0.02263323       0.00000000 </v>
   <v>       0.00216310       0.04901305      -0.00000000 </v>
   <v>      -0.00216310      -0.04901305      -0.00000000 </v>
   <v>       0.04136500      -0.02637983       0.00000000 </v>
   <v>       0.04352810       0.02263323      -0.00000000 </v>
  </varray>
  <varray name="stress" >
   <v>      81.36464131       0.00000008       0.00000000 </v>
   <v>      -0.00000008      81.36464131       0.00000000 </v>
   <v>       0.00000000       0.00000000      57.11834812 </v>
  </varray>
  <energy>
   <i name="e_fr_energy">    -95.08575165 </i>
   <i name="e_wo_entrp">    -95.08555776 </i>
   <i name="e_0_energy">     -0.00077559 </i>
  </energy>
  <time name="totalsc">   12.28   12.29</time>
  <eigenvalues>
   <array>
    <dimension dim="1">band</dimension>
    <dimension dim="2">kpoint</dimension>
    <dimension dim="3">spin</dimension>
    <field>eigene</field>
    <field>occ</field>
    <set>
     <set comment="spin 1">
      <set comment="kpoint 1">
       <r>  -10.0584    1.0000 </r>
       <r>   -8.8580    1.0000 </r>
       <r>   -8.8580    1.0000 </r>
       <r>   -8.2284    1.0000 </r>
       <r>   -8.2284    1.0000 </r>
       <r>   -8.0797    1.0000 </r>
       <r>   -1.8123    1.0000 </r>
       <r>   -1.8123    1.0000 </r>
       <r>   -1.5962    1.0000 </r>
       <r>   -0.9146    1.0000 </r>
       <r>    0.3480    1.0000 </r>
       <r>    1.0065    1.0000 </r>
       <r>    1.0065    1.0000 </r>
       <r>    2.9141    1.0000 </r>
       <r>    2.9141    1.0000 </r>
       <r>    3.8410    1.0000 </r>
       <r>    4.1208    1.0000 </r>
       <r>    4.1208    1.0000 </r>
       <r>    4.5963    1.0000 </r>
       <r>    4.8655    1.0000 </r>
       <r>    5.4185    1.0000 </r>
       <r>    5.4185    1.0000 </r>
       <r>    5.9246    1.0000 </r>
       <r>    5.9246    1.0000 </r>
       <r>    6.1008    1.0000 </r>
       <r>    7.2773    1.0000 </r>
       <r>    7.2871    1.0000 </r>
       <r>    7.2871    1.0000 </r>
       <r>    9.2634    1.0000 </r>
       <r>    9.5131    1.0000 </r>
       <r>    9.5131    1.0000 </r>
       <r>   13.5498    0.0000 </r>
       <r>   13.8355    0.0000 </r>
       <r>   13.8355    0.0000 </r>
       <r>   13.9208    0.0000 </r>
       <r>   13.9208    0.0000 </r>
       <r>   15.0101    0.0000 </r>
       <r>   15.2290    0.0000 </r>
       <r>   15.3546    0.0000 </r>
       <r>   15.3590    0.0000 </r>
      </set>
      <set comment="kpoint 2">
       <r>  -10.0190    1.0000 </r>
       <r>   -8.9468    1.0000 </r>
       <r>   -8.8965    1.0000 </r>
       <r>   -8.3874    1.0000 </r>
       <r>   -8.1699    1.0000 </r>
       <r>   -7.8597    1.0000 </r>
       <r>   -2.0847    1.0000 </r>
       <r>   -1.8004    1.0000 </r>
       <r>   -1.5365    1.0000 </r>
       <r>   -0.6388    1.0000 </r>
       <r>    0.2247    1.0000 </r>
       <r>    0.8895    1.0000 </r>
       <r>    1.1197    1.0000 </r>
       <r>    2.8260    1.0000 </r>
       <r>    2.9664    1.0000 </r>
       <r>    3.8194    1.0000 </r>
       <r>    3.9724    1.0000 </r>
       <r>    4.2601    1.0000 </r>
       <r>    4.8608    1.0000 </r>
       <r>    4.8862    1.0000 </r>
       <r>    5.3854    1.0000 </r>
       <r>    5.4075    1.0000 </r>
       <r>    5.8806    1.0000 </r>
       <r>    5.9364    1.0000 </r>
       <r>    6.1516    1.0000 </r>
       <r>    7.0552    1.0000 </r>
       <r>    7.0973    1.0000 </r>
       <r>    7.3898    1.0000 </r>
       <r>    9.2078    1.0000 </r>
       <r>    9.6783    1.0000 </r>
       <r>    9.7263    1.0000 </r>
       <r>   13.2718    0.0000 </r>
       <r>   13.6412    0.0000 </r>
       <r>   13.6861    0.0000 </r>
       <r>   13.9450    0.0000 </r>
       <r>   14.0463    0.0000 </r>
       <r>   15.0359    0.0000 </r>
       <r>   15.0813    0.0000 </r>
       <r>   15.2223    0.0000 </r>
       <r>   15.3358    0.0000 </r>
      </set>
      <set comment="kpoint 3">
       <r>   -9.9030    1.0000 </r>
       <r>   -9.1809    1.0000 </r>
       <r>   -8.9665    1.0000 </r>
       <r>   -8.4825    1.0000 </r>
       <r>   -8.0532    1.0000 </r>
       <r>   -7.6207    1.0000 </r>
       <r>   -2.4661    1.0000 </r>
       <r>   -1.7718    1.0000 </r>
       <r>   -1.3680    1.0000 </r>
       <r>   -0.3593    1.0000 </r>
       <r>    0.0090    1.0000 </r>
       <r>    0.6466    1.0000 </r>
       <r>    1.4874    1.0000 </r>
       <r>    2.6545    1.0000 </r>
       <r>    2.9376    1.0000 </r>
       <r>    3.6565    1.0000 </r>
       <r>    4.0133    1.0000 </r>
       <r>    4.5063    1.0000 </r>
       <r>    4.9499    1.0000 </r>
       <r>    5.2820    1.0000 </r>
       <r>    5.2989    1.0000 </r>
       <r>    5.3879    1.0000 </r>
       <r>    5.8271    1.0000 </r>
       <r>    5.9639    1.0000 </r>
       <r>    6.2282    1.0000 </r>
       <r>    6.5884    1.0000 </r>
       <r>    6.7485    1.0000 </r>
       <r>    7.6943    1.0000 </r>
       <r>    9.0335    1.0000 </r>
       <r>    9.9784    1.0000 </r>
       <r>   10.1949    0.9951 </r>
       <r>   12.4340    0.0000 </r>
       <r>   13.3887    0.0000 </r>
       <r>   13.6202    0.0000 </r>
       <r>   13.9877    0.0000 </r>
       <r>   14.2049    0.0000 </r>
       <r>   14.7775    0.0000 </r>
       <r>   15.0891    0.0000 </r>
       <r>   15.1072    0.0000 </r>
       <r>   15.2165    0.0000 </r>
      </set>
      <set comment="kpoint 4">
       <r>   -9.7222    1.0000 </r>
       <r>   -9.4491    1.0000 </r>
       <r>   -9.0126    1.0000 </r>
       <r>   -8.5118    1.0000 </r>
       <r>   -7.9677    1.0000 </r>
       <r>   -7.4838    1.0000 </r>
       <r>   -2.6911    1.0000 </r>
       <r>   -1.7457    1.0000 </r>
       <r>   -1.1492    1.0000 </r>
       <r>   -0.5252    1.0000 </r>
       <r>    0.0449    1.0000 </r>
       <r>    0.4656    1.0000 </r>
       <r>    2.0599    1.0000 </r>
       <r>    2.5352    1.0000 </r>
       <r>    2.6756    1.0000 </r>
       <r>    3.3374    1.0000 </r>
       <r>    4.3358    1.0000 </r>
       <r>    4.6821    1.0000 </r>
       <r>    5.0425    1.0000 </r>
       <r>    5.1851    1.0000 </r>
       <r>    5.3737    1.0000 </r>
       <r>    5.5158    1.0000 </r>
       <r>    5.8020    1.0000 </r>
       <r>    5.9827    1.0000 </r>
       <r>    6.1872    1.0000 </r>
       <r>    6.2741    1.0000 </r>
       <r>    6.5619    1.0000 </r>
       <r>    8.0666    1.0000 </r>
       <r>    8.7743    1.0000 </r>
       <r>   10.1581    0.9973 </r>
       <r>   10.7850    0.0000 </r>
       <r>   11.5642    0.0000 </r>
       <r>   13.2282    0.0000 </r>
       <r>   13.5677    0.0000 </r>
       <r>   14.1147    0.0000 </r>
       <r>   14.3055    0.0000 </r>
       <r>   14.5889    0.0000 </r>
       <r>   14.9554    0.0000 </r>
       <r>   15.0301    0.0000 </r>
       <r>   15.2225    0.0000 </r>
      </set>
      <set comment="kpoint 5">
       <r>   -9.9412    1.0000 </r>
       <r>   -9.0513    1.0000 </r>
       <r>   -9.0268    1.0000 </r>
       <r>   -8.4274    1.0000 </r>
       <r>   -8.1088    1.0000 </r>
       <r>   -7.6717    1.0000 </r>
       <r>   -2.3871    1.0000 </r>
       <r>   -1.7515    1.0000 </r>
       <r>   -1.4197    1.0000 </r>
       <r>   -0.4419    1.0000 </r>
       <r>    0.0340    1.0000 </r>
       <r>    0.8195    1.0000 </r>
       <r>    1.2996    1.0000 </r>
       <r>    2.6338    1.0000 </r>
       <r>    3.0934    1.0000 </r>
       <r>    3.7147    1.0000 </r>
       <r>    3.8698    1.0000 </r>
       <r>    4.4845    1.0000 </r>
       <r>    4.9293    1.0000 </r>
       <r>    5.1730    1.0000 </r>
       <r>    5.3373    1.0000 </r>
       <r>    5.3796    1.0000 </r>
       <r>    5.8472    1.0000 </r>
       <r>    5.9493    1.0000 </r>
       <r>    6.2119    1.0000 </r>
       <r>    6.7184    1.0000 </r>
       <r>    6.8437    1.0000 </r>
       <r>    7.5957    1.0000 </r>
       <r>    9.0953    1.0000 </r>
       <r>    9.9245    1.0000 </r>
       <r>   10.0319    1.0000 </r>
       <r>   12.7551    0.0000 </r>
       <r>   13.1966    0.0000 </r>
       <r>   13.8003    0.0000 </r>
       <r>   13.8976    0.0000 </r>
       <r>   14.2224    0.0000 </r>
       <r>   14.9407    0.0000 </r>
       <r>   15.0477    0.0000 </r>
       <r>   15.0845    0.0000 </r>
       <r>   15.3804    0.0000 </r>
      </set>
      <set comment="kpoint 6">
       <r>   -9.7908    1.0000 </r>
       <r>   -9.2972    1.0000 </r>
       <r>   -9.1154    1.0000 </r>
       <r>   -8.4125    1.0000 </r>
       <r>   -8.0423    1.0000 </r>
       <r>   -7.5025    1.0000 </r>
       <r>   -2.6689    1.0000 </r>
       <r>   -1.6561    1.0000 </r>
       <r>   -1.2078    1.0000 </r>
       <r>   -0.5297    1.0000 </r>
       <r>   -0.2154    1.0000 </r>
       <r>    0.8982    1.0000 </r>
       <r>    1.6878    1.0000 </r>
       <r>    2.4085    1.0000 </r>
       <r>    3.0839    1.0000 </r>
       <r>    3.4399    1.0000 </r>
       <r>    3.9998    1.0000 </r>
       <r>    4.7190    1.0000 </r>
       <r>    5.0081    1.0000 </r>
       <r>    5.2486    1.0000 </r>
       <r>    5.3431    1.0000 </r>
       <r>    5.4622    1.0000 </r>
       <r>    5.8310    1.0000 </r>
       <r>    5.9616    1.0000 </r>
       <r>    6.2666    1.0000 </r>
       <r>    6.4572    1.0000 </r>
       <r>    6.4835    1.0000 </r>
       <r>    7.9420    1.0000 </r>
       <r>    8.8751    1.0000 </r>
       <r>   10.2238    0.9983 </r>
       <r>   10.4477    0.0687 </r>
       <r>   11.9563    0.0000 </r>
       <r>   12.8547    0.0000 </r>
       <r>   13.7175    0.0000 </r>
       <r>   14.0454    0.0000 </r>
       <r>   14.4687    0.0000 </r>
       <r>   14.6735    0.0000 </r>
       <r>   14.9187    0.0000 </r>
       <r>   15.1725    0.0000 </r>
       <r>   15.2541    0.0000 </r>
      </set>
      <set comment="kpoint 7">
       <r>   -9.6199    1.0000 </r>
       <r>   -9.5137    1.0000 </r>
       <r>   -9.1429    1.0000 </r>
       <r>   -8.4044    1.0000 </r>
       <r>   -8.0110    1.0000 </r>
       <r>   -7.4390    1.0000 </r>
       <r>   -2.7754    1.0000 </r>
       <r>   -1.5987    1.0000 </r>
       <r>   -1.0469    1.0000 </r>
       <r>   -0.6727    1.0000 </r>
       <r>   -0.3540    1.0000 </r>
       <r>    0.9416    1.0000 </r>
       <r>    2.1652    1.0000 </r>
       <r>    2.1951    1.0000 </r>
       <r>    2.8512    1.0000 </r>
       <r>    3.3252    1.0000 </r>
       <r>    4.1670    1.0000 </r>
       <r>    4.8059    1.0000 </r>
       <r>    5.0848    1.0000 </r>
       <r>    5.1636    1.0000 </r>
       <r>    5.3304    1.0000 </r>
       <r>    5.5472    1.0000 </r>
       <r>    5.8280    1.0000 </r>
       <r>    5.9647    1.0000 </r>
       <r>    6.1937    1.0000 </r>
       <r>    6.2860    1.0000 </r>
       <r>    6.4996    1.0000 </r>
       <r>    8.2090    1.0000 </r>
       <r>    8.6703    1.0000 </r>
       <r>   10.2880    1.0453 </r>
       <r>   10.9827    0.0000 </r>
       <r>   11.2661    0.0000 </r>
       <r>   12.7891    0.0000 </r>
       <r>   13.6476    0.0000 </r>
       <r>   14.2373    0.0000 </r>
       <r>   14.3398    0.0000 </r>
       <r>   14.7327    0.0000 </r>
       <r>   14.8094    0.0000 </r>
       <r>   15.1741    0.0000 </r>
       <r>   15.2676    0.0000 </r>
      </set>
      <set comment="kpoint 8">
       <r>   -9.7908    1.0000 </r>
       <r>   -9.2973    1.0000 </r>
       <r>   -9.1154    1.0000 </r>
       <r>   -8.4126    1.0000 </r>
       <r>   -8.0422    1.0000 </r>
       <r>   -7.5024    1.0000 </r>
       <r>   -2.6690    1.0000 </r>
       <r>   -1.6539    1.0000 </r>
       <r>   -1.2146    1.0000 </r>
       <r>   -0.5154    1.0000 </r>
       <r>   -0.2245    1.0000 </r>
       <r>    0.8943    1.0000 </r>
       <r>    1.6855    1.0000 </r>
       <r>    2.4314    1.0000 </r>
       <r>    3.1118    1.0000 </r>
       <r>    3.3486    1.0000 </r>
       <r>    4.0432    1.0000 </r>
       <r>    4.7431    1.0000 </r>
       <r>    5.0078    1.0000 </r>
       <r>    5.2487    1.0000 </r>
       <r>    5.3433    1.0000 </r>
       <r>    5.4519    1.0000 </r>
       <r>    5.8311    1.0000 </r>
       <r>    5.9615    1.0000 </r>
       <r>    6.2666    1.0000 </r>
       <r>    6.3175    1.0000 </r>
       <r>    6.6122    1.0000 </r>
       <r>    7.9466    1.0000 </r>
       <r>    8.8727    1.0000 </r>
       <r>   10.1708    0.9964 </r>
       <r>   10.5150   -0.0414 </r>
       <r>   11.9027    0.0000 </r>
       <r>   12.9221    0.0000 </r>
       <r>   13.7253    0.0000 </r>
       <r>   14.0040    0.0000 </r>
       <r>   14.4246    0.0000 </r>
       <r>   14.6947    0.0000 </r>
       <r>   14.9619    0.0000 </r>
       <r>   15.1778    0.0000 </r>
       <r>   15.2587    0.0000 </r>
      </set>
      <set comment="kpoint 9">
       <r>   -9.6144    1.0000 </r>
       <r>   -9.3930    1.0000 </r>
       <r>   -9.3270    1.0000 </r>
       <r>   -8.2683    1.0000 </r>
       <r>   -8.1064    1.0000 </r>
       <r>   -7.4148    1.0000 </r>
       <r>   -2.8243    1.0000 </r>
       <r>   -1.3768    1.0000 </r>
       <r>   -1.0037    1.0000 </r>
       <r>   -0.8491    1.0000 </r>
       <r>   -0.5893    1.0000 </r>
       <r>    1.4563    1.0000 </r>
       <r>    1.7908    1.0000 </r>
       <r>    2.1325    1.0000 </r>
       <r>    2.9775    1.0000 </r>
       <r>    3.5099    1.0000 </r>
       <r>    3.8723    1.0000 </r>
       <r>    4.8472    1.0000 </r>
       <r>    5.0872    1.0000 </r>
       <r>    5.2143    1.0000 </r>
       <r>    5.2616    1.0000 </r>
       <r>    5.5621    1.0000 </r>
       <r>    5.8711    1.0000 </r>
       <r>    5.9313    1.0000 </r>
       <r>    6.2933    1.0000 </r>
       <r>    6.3192    1.0000 </r>
       <r>    6.4113    1.0000 </r>
       <r>    8.2700    1.0000 </r>
       <r>    8.6327    1.0000 </r>
       <r>   10.4706   -0.0249 </r>
       <r>   10.7888    0.0000 </r>
       <r>   11.3364    0.0000 </r>
       <r>   12.5071    0.0000 </r>
       <r>   13.5886    0.0000 </r>
       <r>   14.2503    0.0000 </r>
       <r>   14.5137    0.0000 </r>
       <r>   14.6046    0.0000 </r>
       <r>   15.0381    0.0000 </r>
       <r>   15.1732    0.0000 </r>
       <r>   15.2956    0.0000 </r>
      </set>
      <set comment="kpoint 10">
       <r>  -10.0049    1.0000 </r>
       <r>   -8.8116    1.0000 </r>
       <r>   -8.8116    1.0000 </r>
       <r>   -8.1853    1.0000 </r>
       <r>   -8.1853    1.0000 </r>
       <r>   -8.0412    1.0000 </r>
       <r>   -1.7683    1.0000 </r>
       <r>   -1.7683    1.0000 </r>
       <r>   -1.5348    1.0000 </r>
       <r>   -0.8596    1.0000 </r>
       <r>    0.3755    1.0000 </r>
       <r>    1.0386    1.0000 </r>
       <r>    1.0386    1.0000 </r>
       <r>    2.9624    1.0000 </r>
       <r>    2.9624    1.0000 </r>
       <r>    3.8511    1.0000 </r>
       <r>    4.1287    1.0000 </r>
       <r>    4.1287    1.0000 </r>
       <r>    4.5790    1.0000 </r>
       <r>    4.5791    1.0000 </r>
       <r>    5.1517    1.0000 </r>
       <r>    5.1517    1.0000 </r>
       <r>    5.6488    1.0000 </r>
       <r>    5.6488    1.0000 </r>
       <r>    5.7751    1.0000 </r>
       <r>    7.3025    1.0000 </r>
       <r>    7.3025    1.0000 </r>
       <r>    7.4554    1.0000 </r>
       <r>    9.2075    1.0000 </r>
       <r>    9.6266    1.0000 </r>
       <r>    9.6266    1.0000 </r>
       <r>   13.4634    0.0000 </r>
       <r>   13.6727    0.0000 </r>
       <r>   13.6727    0.0000 </r>
       <r>   13.9654    0.0000 </r>
       <r>   13.9654    0.0000 </r>
       <r>   14.6066    0.0000 </r>
       <r>   14.8943    0.0000 </r>
       <r>   14.8974    0.0000 </r>
       <r>   14.8975    0.0000 </r>
      </set>
      <set comment="kpoint 11">
       <r>   -9.9657    1.0000 </r>
       <r>   -8.8996    1.0000 </r>
       <r>   -8.8497    1.0000 </r>
       <r>   -8.3444    1.0000 </r>
       <r>   -8.1276    1.0000 </r>
       <r>   -7.8219    1.0000 </r>
       <r>   -2.0347    1.0000 </r>
       <r>   -1.7554    1.0000 </r>
       <r>   -1.4755    1.0000 </r>
       <r>   -0.5892    1.0000 </r>
       <r>    0.2566    1.0000 </r>
       <r>    0.9225    1.0000 </r>
       <r>    1.1501    1.0000 </r>
       <r>    2.8742    1.0000 </r>
       <r>    3.0023    1.0000 </r>
       <r>    3.8317    1.0000 </r>
       <r>    3.9630    1.0000 </r>
       <r>    4.2633    1.0000 </r>
       <r>    4.6106    1.0000 </r>
       <r>    4.8443    1.0000 </r>
       <r>    5.1213    1.0000 </r>
       <r>    5.1439    1.0000 </r>
       <r>    5.5792    1.0000 </r>
       <r>    5.6709    1.0000 </r>
       <r>    5.8718    1.0000 </r>
       <r>    7.0849    1.0000 </r>
       <r>    7.1280    1.0000 </r>
       <r>    7.5505    1.0000 </r>
       <r>    9.1603    1.0000 </r>
       <r>    9.7716    1.0000 </r>
       <r>    9.8167    1.0000 </r>
       <r>   13.3069    0.0000 </r>
       <r>   13.5409    0.0000 </r>
       <r>   13.6303    0.0000 </r>
       <r>   13.8507    0.0000 </r>
       <r>   13.9688    0.0000 </r>
       <r>   14.5705    0.0000 </r>
       <r>   14.8573    0.0000 </r>
       <r>   14.8791    0.0000 </r>
       <r>   14.9606    0.0000 </r>
      </set>
      <set comment="kpoint 12">
       <r>   -9.8502    1.0000 </r>
       <r>   -9.1321    1.0000 </r>
       <r>   -8.9190    1.0000 </r>
       <r>   -8.4392    1.0000 </r>
       <r>   -8.0125    1.0000 </r>
       <r>   -7.5852    1.0000 </r>
       <r>   -2.4107    1.0000 </r>
       <r>   -1.7241    1.0000 </r>
       <r>   -1.3082    1.0000 </r>
       <r>   -0.3103    1.0000 </r>
       <r>    0.0457    1.0000 </r>
       <r>    0.6806    1.0000 </r>
       <r>    1.5115    1.0000 </r>
       <r>    2.7033    1.0000 </r>
       <r>    2.9586    1.0000 </r>
       <r>    3.6442    1.0000 </r>
       <r>    3.9978    1.0000 </r>
       <r>    4.4937    1.0000 </r>
       <r>    4.7049    1.0000 </r>
       <r>    4.9740    1.0000 </r>
       <r>    5.1403    1.0000 </r>
       <r>    5.2907    1.0000 </r>
       <r>    5.5473    1.0000 </r>
       <r>    5.7167    1.0000 </r>
       <r>    5.9933    1.0000 </r>
       <r>    6.6356    1.0000 </r>
       <r>    6.7832    1.0000 </r>
       <r>    7.8158    1.0000 </r>
       <r>    9.0084    1.0000 </r>
       <r>   10.0304    1.0000 </r>
       <r>   10.2554    1.0158 </r>
       <r>   12.5048    0.0000 </r>
       <r>   13.4329    0.0000 </r>
       <r>   13.5297    0.0000 </r>
       <r>   13.8200    0.0000 </r>
       <r>   14.1217    0.0000 </r>
       <r>   14.3226    0.0000 </r>
       <r>   14.7689    0.0000 </r>
       <r>   15.0297    0.0000 </r>
       <r>   15.0820    0.0000 </r>
      </set>
      <set comment="kpoint 13">
       <r>   -9.6703    1.0000 </r>
       <r>   -9.3987    1.0000 </r>
       <r>   -8.9645    1.0000 </r>
       <r>   -8.4684    1.0000 </r>
       <r>   -7.9284    1.0000 </r>
       <r>   -7.4498    1.0000 </r>
       <r>   -2.6331    1.0000 </r>
       <r>   -1.6958    1.0000 </r>
       <r>   -1.0916    1.0000 </r>
       <r>   -0.4715    1.0000 </r>
       <r>    0.0818    1.0000 </r>
       <r>    0.4997    1.0000 </r>
       <r>    2.0724    1.0000 </r>
       <r>    2.5849    1.0000 </r>
       <r>    2.6909    1.0000 </r>
       <r>    3.3378    1.0000 </r>
       <r>    4.2448    1.0000 </r>
       <r>    4.6376    1.0000 </r>
       <r>    4.8246    1.0000 </r>
       <r>    4.9042    1.0000 </r>
       <r>    5.1565    1.0000 </r>
       <r>    5.4709    1.0000 </r>
       <r>    5.5776    1.0000 </r>
       <r>    5.7487    1.0000 </r>
       <r>    6.0814    1.0000 </r>
       <r>    6.2408    1.0000 </r>
       <r>    6.5757    1.0000 </r>
       <r>    8.1417    1.0000 </r>
       <r>    8.7806    1.0000 </r>
       <r>   10.1828    0.9955 </r>
       <r>   10.8314    0.0000 </r>
       <r>   11.6287    0.0000 </r>
       <r>   13.2801    0.0000 </r>
       <r>   13.5865    0.0000 </r>
       <r>   13.8150    0.0000 </r>
       <r>   14.0493    0.0000 </r>
       <r>   14.3834    0.0000 </r>
       <r>   14.6433    0.0000 </r>
       <r>   14.9912    0.0000 </r>
       <r>   15.1300    0.0000 </r>
      </set>
      <set comment="kpoint 14">
       <r>   -9.8882    1.0000 </r>
       <r>   -9.0033    1.0000 </r>
       <r>   -8.9789    1.0000 </r>
       <r>   -8.3845    1.0000 </r>
       <r>   -8.0674    1.0000 </r>
       <r>   -7.6356    1.0000 </r>
       <r>   -2.3327    1.0000 </r>
       <r>   -1.7048    1.0000 </r>
       <r>   -1.3598    1.0000 </r>
       <r>   -0.3936    1.0000 </r>
       <r>    0.0714    1.0000 </r>
       <r>    0.8512    1.0000 </r>
       <r>    1.3271    1.0000 </r>
       <r>    2.6803    1.0000 </r>
       <r>    3.1147    1.0000 </r>
       <r>    3.7090    1.0000 </r>
       <r>    3.8733    1.0000 </r>
       <r>    4.4537    1.0000 </r>
       <r>    4.6863    1.0000 </r>
       <r>    5.0346    1.0000 </r>
       <r>    5.0725    1.0000 </r>
       <r>    5.2291    1.0000 </r>
       <r>    5.5536    1.0000 </r>
       <r>    5.6971    1.0000 </r>
       <r>    5.9656    1.0000 </r>
       <r>    6.7555    1.0000 </r>
       <r>    6.8853    1.0000 </r>
       <r>    7.7297    1.0000 </r>
       <r>    9.0617    1.0000 </r>
       <r>    9.9931    1.0000 </r>
       <r>   10.0936    0.9998 </r>
       <r>   12.8297    0.0000 </r>
       <r>   13.2166    0.0000 </r>
       <r>   13.6197    0.0000 </r>
       <r>   13.8983    0.0000 </r>
       <r>   14.0433    0.0000 </r>
       <r>   14.3938    0.0000 </r>
       <r>   14.8309    0.0000 </r>
       <r>   15.0185    0.0000 </r>
       <r>   15.0676    0.0000 </r>
      </set>
      <set comment="kpoint 15">
       <r>   -9.7385    1.0000 </r>
       <r>   -9.2477    1.0000 </r>
       <r>   -9.0668    1.0000 </r>
       <r>   -8.3698    1.0000 </r>
       <r>   -8.0021    1.0000 </r>
       <r>   -7.4682    1.0000 </r>
       <r>   -2.6114    1.0000 </r>
       <r>   -1.6073    1.0000 </r>
       <r>   -1.1499    1.0000 </r>
       <r>   -0.4782    1.0000 </r>
       <r>   -0.1730    1.0000 </r>
       <r>    0.9260    1.0000 </r>
       <r>    1.7092    1.0000 </r>
       <r>    2.4516    1.0000 </r>
       <r>    3.0958    1.0000 </r>
       <r>    3.4344    1.0000 </r>
       <r>    3.9840    1.0000 </r>
       <r>    4.6146    1.0000 </r>
       <r>    4.8272    1.0000 </r>
       <r>    4.9395    1.0000 </r>
       <r>    5.1131    1.0000 </r>
       <r>    5.4402    1.0000 </r>
       <r>    5.5897    1.0000 </r>
       <r>    5.7208    1.0000 </r>
       <r>    6.0622    1.0000 </r>
       <r>    6.4921    1.0000 </r>
       <r>    6.5216    1.0000 </r>
       <r>    8.0337    1.0000 </r>
       <r>    8.8667    1.0000 </r>
       <r>   10.2424    1.0065 </r>
       <r>   10.5117   -0.0441 </r>
       <r>   12.0224    0.0000 </r>
       <r>   12.9073    0.0000 </r>
       <r>   13.6693    0.0000 </r>
       <r>   13.8715    0.0000 </r>
       <r>   14.1446    0.0000 </r>
       <r>   14.3040    0.0000 </r>
       <r>   14.7722    0.0000 </r>
       <r>   15.0581    0.0000 </r>
       <r>   15.2803    0.0000 </r>
      </set>
      <set comment="kpoint 16">
       <r>   -9.5686    1.0000 </r>
       <r>   -9.4628    1.0000 </r>
       <r>   -9.0941    1.0000 </r>
       <r>   -8.3617    1.0000 </r>
       <r>   -7.9715    1.0000 </r>
       <r>   -7.4055    1.0000 </r>
       <r>   -2.7169    1.0000 </r>
       <r>   -1.5490    1.0000 </r>
       <r>   -0.9914    1.0000 </r>
       <r>   -0.6173    1.0000 </r>
       <r>   -0.3109    1.0000 </r>
       <r>    0.9684    1.0000 </r>
       <r>    2.1721    1.0000 </r>
       <r>    2.2338    1.0000 </r>
       <r>    2.8754    1.0000 </r>
       <r>    3.3283    1.0000 </r>
       <r>    4.1116    1.0000 </r>
       <r>    4.6753    1.0000 </r>
       <r>    4.8430    1.0000 </r>
       <r>    4.9718    1.0000 </r>
       <r>    5.1106    1.0000 </r>
       <r>    5.5203    1.0000 </r>
       <r>    5.5788    1.0000 </r>
       <r>    5.7288    1.0000 </r>
       <r>    6.1182    1.0000 </r>
       <r>    6.2348    1.0000 </r>
       <r>    6.5156    1.0000 </r>
       <r>    8.2668    1.0000 </r>
       <r>    8.6852    1.0000 </r>
       <r>   10.3024    1.0516 </r>
       <r>   11.0262    0.0000 </r>
       <r>   11.3378    0.0000 </r>
       <r>   12.8383    0.0000 </r>
       <r>   13.7422    0.0000 </r>
       <r>   13.8247    0.0000 </r>
       <r>   13.9913    0.0000 </r>
       <r>   14.4457    0.0000 </r>
       <r>   14.7470    0.0000 </r>
       <r>   15.0721    0.0000 </r>
       <r>   15.3201    0.0000 </r>
      </set>
      <set comment="kpoint 17">
       <r>   -9.7385    1.0000 </r>
       <r>   -9.2477    1.0000 </r>
       <r>   -9.0668    1.0000 </r>
       <r>   -8.3699    1.0000 </r>
       <r>   -8.0021    1.0000 </r>
       <r>   -7.4681    1.0000 </r>
       <r>   -2.6115    1.0000 </r>
       <r>   -1.6050    1.0000 </r>
       <r>   -1.1571    1.0000 </r>
       <r>   -0.4628    1.0000 </r>
       <r>   -0.1830    1.0000 </r>
       <r>    0.9225    1.0000 </r>
       <r>    1.7069    1.0000 </r>
       <r>    2.4729    1.0000 </r>
       <r>    3.1270    1.0000 </r>
       <r>    3.3465    1.0000 </r>
       <r>    4.0203    1.0000 </r>
       <r>    4.6232    1.0000 </r>
       <r>    4.8121    1.0000 </r>
       <r>    5.0086    1.0000 </r>
       <r>    5.0677    1.0000 </r>
       <r>    5.4528    1.0000 </r>
       <r>    5.5754    1.0000 </r>
       <r>    5.7201    1.0000 </r>
       <r>    6.0628    1.0000 </r>
       <r>    6.3592    1.0000 </r>
       <r>    6.6438    1.0000 </r>
       <r>    8.0374    1.0000 </r>
       <r>    8.8648    1.0000 </r>
       <r>   10.2079    0.9955 </r>
       <r>   10.5564   -0.0061 </r>
       <r>   11.9774    0.0000 </r>
       <r>   12.9627    0.0000 </r>
       <r>   13.7061    0.0000 </r>
       <r>   13.8243    0.0000 </r>
       <r>   14.1236    0.0000 </r>
       <r>   14.2971    0.0000 </r>
       <r>   14.8060    0.0000 </r>
       <r>   15.0720    0.0000 </r>
       <r>   15.2144    0.0000 </r>
      </set>
      <set comment="kpoint 18">
       <r>   -9.5630    1.0000 </r>
       <r>   -9.3428    1.0000 </r>
       <r>   -9.2772    1.0000 </r>
       <r>   -8.2267    1.0000 </r>
       <r>   -8.0660    1.0000 </r>
       <r>   -7.3815    1.0000 </r>
       <r>   -2.7655    1.0000 </r>
       <r>   -1.3280    1.0000 </r>
       <r>   -0.9549    1.0000 </r>
       <r>   -0.7913    1.0000 </r>
       <r>   -0.5389    1.0000 </r>
       <r>    1.4738    1.0000 </r>
       <r>    1.8120    1.0000 </r>
       <r>    2.1668    1.0000 </r>
       <r>    2.9926    1.0000 </r>
       <r>    3.5042    1.0000 </r>
       <r>    3.8519    1.0000 </r>
       <r>    4.6893    1.0000 </r>
       <r>    4.9066    1.0000 </r>
       <r>    4.9636    1.0000 </r>
       <r>    5.0492    1.0000 </r>
       <r>    5.5498    1.0000 </r>
       <r>    5.6111    1.0000 </r>
       <r>    5.6864    1.0000 </r>
       <r>    6.1270    1.0000 </r>
       <r>    6.3519    1.0000 </r>
       <r>    6.4421    1.0000 </r>
       <r>    8.3219    1.0000 </r>
       <r>    8.6472    1.0000 </r>
       <r>   10.4617    0.0023 </r>
       <r>   10.8577    0.0000 </r>
       <r>   11.4115    0.0000 </r>
       <r>   12.5484    0.0000 </r>
       <r>   13.7360    0.0000 </r>
       <r>   13.8192    0.0000 </r>
       <r>   13.9692    0.0000 </r>
       <r>   14.4198    0.0000 </r>
       <r>   15.0383    0.0000 </r>
       <r>   15.1166    0.0000 </r>
       <r>   15.3543    0.0000 </r>
      </set>
      <set comment="kpoint 19">
       <r>   -9.8463    1.0000 </r>
       <r>   -8.6746    1.0000 </r>
       <r>   -8.6746    1.0000 </r>
       <r>   -8.0588    1.0000 </r>
       <r>   -8.0588    1.0000 </r>
       <r>   -7.9295    1.0000 </r>
       <r>   -1.6409    1.0000 </r>
       <r>   -1.6409    1.0000 </r>
       <r>   -1.3512    1.0000 </r>
       <r>   -0.6950    1.0000 </r>
       <r>    0.4412    1.0000 </r>
       <r>    1.1241    1.0000 </r>
       <r>    1.1241    1.0000 </r>
       <r>    3.1069    1.0000 </r>
       <r>    3.1069    1.0000 </r>
       <r>    3.8329    1.0000 </r>
       <r>    3.8875    1.0000 </r>
       <r>    4.1165    1.0000 </r>
       <r>    4.1165    1.0000 </r>
       <r>    4.3853    1.0000 </r>
       <r>    4.4879    1.0000 </r>
       <r>    4.4879    1.0000 </r>
       <r>    5.0091    1.0000 </r>
       <r>    5.0091    1.0000 </r>
       <r>    5.2915    1.0000 </r>
       <r>    7.3261    1.0000 </r>
       <r>    7.3261    1.0000 </r>
       <r>    7.7478    1.0000 </r>
       <r>    8.9871    1.0000 </r>
       <r>    9.8746    1.0000 </r>
       <r>    9.8746    1.0000 </r>
       <r>   12.7661    0.0000 </r>
       <r>   12.7661    0.0000 </r>
       <r>   12.8577    0.0000 </r>
       <r>   13.4667    0.0000 </r>
       <r>   14.2190    0.0000 </r>
       <r>   14.2190    0.0000 </r>
       <r>   14.5726    0.0000 </r>
       <r>   14.5726    0.0000 </r>
       <r>   15.4034    0.0000 </r>
      </set>
      <set comment="kpoint 20">
       <r>   -9.8076    1.0000 </r>
       <r>   -8.7603    1.0000 </r>
       <r>   -8.7113    1.0000 </r>
       <r>   -8.2189    1.0000 </r>
       <r>   -8.0038    1.0000 </r>
       <r>   -7.7126    1.0000 </r>
       <r>   -1.8885    1.0000 </r>
       <r>   -1.6251    1.0000 </r>
       <r>   -1.2935    1.0000 </r>
       <r>   -0.4434    1.0000 </r>
       <r>    0.3383    1.0000 </r>
       <r>    1.0098    1.0000 </r>
       <r>    1.2287    1.0000 </r>
       <r>    3.0169    1.0000 </r>
       <r>    3.0813    1.0000 </r>
       <r>    3.7930    1.0000 </r>
       <r>    3.8824    1.0000 </r>
       <r>    4.0012    1.0000 </r>
       <r>    4.2047    1.0000 </r>
       <r>    4.4279    1.0000 </r>
       <r>    4.5277    1.0000 </r>
       <r>    4.6802    1.0000 </r>
       <r>    4.9180    1.0000 </r>
       <r>    5.0493    1.0000 </r>
       <r>    5.4614    1.0000 </r>
       <r>    7.1329    1.0000 </r>
       <r>    7.1752    1.0000 </r>
       <r>    7.8222    1.0000 </r>
       <r>    8.9593    1.0000 </r>
       <r>    9.9685    1.0000 </r>
       <r>   10.0169    1.0000 </r>
       <r>   12.7989    0.0000 </r>
       <r>   12.8270    0.0000 </r>
       <r>   12.8734    0.0000 </r>
       <r>   13.5119    0.0000 </r>
       <r>   13.7102    0.0000 </r>
       <r>   13.9910    0.0000 </r>
       <r>   14.5465    0.0000 </r>
       <r>   14.6789    0.0000 </r>
       <r>   15.4828    0.0000 </r>
      </set>
      <set comment="kpoint 21">
       <r>   -9.6937    1.0000 </r>
       <r>   -8.9876    1.0000 </r>
       <r>   -8.7783    1.0000 </r>
       <r>   -8.3126    1.0000 </r>
       <r>   -7.8939    1.0000 </r>
       <r>   -7.4829    1.0000 </r>
       <r>   -2.2469    1.0000 </r>
       <r>   -1.5865    1.0000 </r>
       <r>   -1.1305    1.0000 </r>
       <r>   -0.1681    1.0000 </r>
       <r>    0.1460    1.0000 </r>
       <r>    0.7709    1.0000 </r>
       <r>    1.5690    1.0000 </r>
       <r>    2.8476    1.0000 </r>
       <r>    2.9738    1.0000 </r>
       <r>    3.5592    1.0000 </r>
       <r>    3.7714    1.0000 </r>
       <r>    4.2077    1.0000 </r>
       <r>    4.2736    1.0000 </r>
       <r>    4.3773    1.0000 </r>
       <r>    4.7029    1.0000 </r>
       <r>    4.8447    1.0000 </r>
       <r>    5.0348    1.0000 </r>
       <r>    5.1271    1.0000 </r>
       <r>    5.7513    1.0000 </r>
       <r>    6.7166    1.0000 </r>
       <r>    6.8446    1.0000 </r>
       <r>    8.0273    1.0000 </r>
       <r>    8.8701    1.0000 </r>
       <r>   10.1228    0.9992 </r>
       <r>   10.3909    0.5854 </r>
       <r>   12.6318    0.0000 </r>
       <r>   12.8293    0.0000 </r>
       <r>   12.9139    0.0000 </r>
       <r>   13.1258    0.0000 </r>
       <r>   13.6267    0.0000 </r>
       <r>   13.7055    0.0000 </r>
       <r>   14.4592    0.0000 </r>
       <r>   14.7835    0.0000 </r>
       <r>   15.4667    0.0000 </r>
      </set>
      <set comment="kpoint 22">
       <r>   -9.5165    1.0000 </r>
       <r>   -9.2493    1.0000 </r>
       <r>   -8.8226    1.0000 </r>
       <r>   -8.3413    1.0000 </r>
       <r>   -7.8138    1.0000 </r>
       <r>   -7.3521    1.0000 </r>
       <r>   -2.4608    1.0000 </r>
       <r>   -1.5517    1.0000 </r>
       <r>   -0.9213    1.0000 </r>
       <r>   -0.3143    1.0000 </r>
       <r>    0.1840    1.0000 </r>
       <r>    0.5903    1.0000 </r>
       <r>    2.0899    1.0000 </r>
       <r>    2.7045    1.0000 </r>
       <r>    2.7358    1.0000 </r>
       <r>    3.2915    1.0000 </r>
       <r>    3.7527    1.0000 </r>
       <r>    4.1583    1.0000 </r>
       <r>    4.2842    1.0000 </r>
       <r>    4.5778    1.0000 </r>
       <r>    4.8689    1.0000 </r>
       <r>    4.9766    1.0000 </r>
       <r>    5.1543    1.0000 </r>
       <r>    5.1703    1.0000 </r>
       <r>    5.9906    1.0000 </r>
       <r>    6.3197    1.0000 </r>
       <r>    6.6028    1.0000 </r>
       <r>    8.2660    1.0000 </r>
       <r>    8.7251    1.0000 </r>
       <r>   10.2050    0.9953 </r>
       <r>   10.9326    0.0000 </r>
       <r>   11.7835    0.0000 </r>
       <r>   12.7723    0.0000 </r>
       <r>   12.8814    0.0000 </r>
       <r>   13.3435    0.0000 </r>
       <r>   13.4654    0.0000 </r>
       <r>   13.7925    0.0000 </r>
       <r>   14.5195    0.0000 </r>
       <r>   14.8967    0.0000 </r>
       <r>   15.2091    0.0000 </r>
      </set>
      <set comment="kpoint 23">
       <r>   -9.7312    1.0000 </r>
       <r>   -8.8615    1.0000 </r>
       <r>   -8.8373    1.0000 </r>
       <r>   -8.2592    1.0000 </r>
       <r>   -7.9467    1.0000 </r>
       <r>   -7.5317    1.0000 </r>
       <r>   -2.1728    1.0000 </r>
       <r>   -1.5700    1.0000 </r>
       <r>   -1.1816    1.0000 </r>
       <r>   -0.2531    1.0000 </r>
       <r>    0.1727    1.0000 </r>
       <r>    0.9338    1.0000 </r>
       <r>    1.3964    1.0000 </r>
       <r>    2.8142    1.0000 </r>
       <r>    3.1158    1.0000 </r>
       <r>    3.6502    1.0000 </r>
       <r>    3.8131    1.0000 </r>
       <r>    4.0304    1.0000 </r>
       <r>    4.2853    1.0000 </r>
       <r>    4.4210    1.0000 </r>
       <r>    4.6333    1.0000 </r>
       <r>    4.8584    1.0000 </r>
       <r>    4.9583    1.0000 </r>
       <r>    5.1046    1.0000 </r>
       <r>    5.6725    1.0000 </r>
       <r>    6.8230    1.0000 </r>
       <r>    6.9525    1.0000 </r>
       <r>    7.9614    1.0000 </r>
       <r>    8.9012    1.0000 </r>
       <r>   10.1114    0.9995 </r>
       <r>   10.2454    1.0084 </r>
       <r>   12.7567    0.0000 </r>
       <r>   12.8393    0.0000 </r>
       <r>   13.0396    0.0000 </r>
       <r>   13.1321    0.0000 </r>
       <r>   13.4586    0.0000 </r>
       <r>   13.7528    0.0000 </r>
       <r>   14.6151    0.0000 </r>
       <r>   14.7062    0.0000 </r>
       <r>   15.4822    0.0000 </r>
      </set>
      <set comment="kpoint 24">
       <r>   -9.5837    1.0000 </r>
       <r>   -9.1010    1.0000 </r>
       <r>   -8.9233    1.0000 </r>
       <r>   -8.2450    1.0000 </r>
       <r>   -7.8850    1.0000 </r>
       <r>   -7.3696    1.0000 </r>
       <r>   -2.4409    1.0000 </r>
       <r>   -1.4670    1.0000 </r>
       <r>   -0.9788    1.0000 </r>
       <r>   -0.3282    1.0000 </r>
       <r>   -0.0533    1.0000 </r>
       <r>    0.9963    1.0000 </r>
       <r>    1.7561    1.0000 </r>
       <r>    2.5701    1.0000 </r>
       <r>    3.0884    1.0000 </r>
       <r>    3.3581    1.0000 </r>
       <r>    3.7706    1.0000 </r>
       <r>    4.1165    1.0000 </r>
       <r>    4.2739    1.0000 </r>
       <r>    4.4829    1.0000 </r>
       <r>    4.8692    1.0000 </r>
       <r>    4.8797    1.0000 </r>
       <r>    5.1192    1.0000 </r>
       <r>    5.1820    1.0000 </r>
       <r>    5.9165    1.0000 </r>
       <r>    6.5398    1.0000 </r>
       <r>    6.6023    1.0000 </r>
       <r>    8.1894    1.0000 </r>
       <r>    8.7777    1.0000 </r>
       <r>   10.2441    1.0076 </r>
       <r>   10.6623    0.0013 </r>
       <r>   12.1734    0.0000 </r>
[...]
       <r>   11.7977    0.0000 </r>
       <r>   13.1114    0.0000 </r>
       <r>   13.1114    0.0000 </r>
       <r>   13.6969    0.0000 </r>
       <r>   13.6969    0.0000 </r>
      </set>
      <set comment="kpoint 80">
       <r>   -7.5024    1.0000 </r>
       <r>   -7.5024    1.0000 </r>
       <r>   -7.0357    1.0000 </r>
       <r>   -7.0357    1.0000 </r>
       <r>   -7.0012    1.0000 </r>
       <r>   -7.0012    1.0000 </r>
       <r>   -1.2579    1.0000 </r>
       <r>   -1.2579    1.0000 </r>
       <r>   -0.4232    1.0000 </r>
       <r>   -0.4232    1.0000 </r>
       <r>    0.0943    1.0000 </r>
       <r>    0.0943    1.0000 </r>
       <r>    1.2634    1.0000 </r>
       <r>    1.2634    1.0000 </r>
       <r>    1.9440    1.0000 </r>
       <r>    1.9440    1.0000 </r>
       <r>    2.0988    1.0000 </r>
       <r>    2.0988    1.0000 </r>
       <r>    2.9084    1.0000 </r>
       <r>    2.9084    1.0000 </r>
       <r>    4.5729    1.0000 </r>
       <r>    4.5729    1.0000 </r>
       <r>    4.8147    1.0000 </r>
       <r>    4.8147    1.0000 </r>
       <r>    6.0454    1.0000 </r>
       <r>    6.0454    1.0000 </r>
       <r>    6.5912    1.0000 </r>
       <r>    6.5912    1.0000 </r>
       <r>    7.3582    1.0000 </r>
       <r>    7.3582    1.0000 </r>
       <r>    9.1404    1.0000 </r>
       <r>    9.1404    1.0000 </r>
       <r>   11.1337    0.0000 </r>
       <r>   11.1337    0.0000 </r>
       <r>   11.9728    0.0000 </r>
       <r>   11.9728    0.0000 </r>
       <r>   13.0129    0.0000 </r>
       <r>   13.0129    0.0000 </r>
       <r>   13.7427    0.0000 </r>
       <r>   13.7428    0.0000 </r>
      </set>
      <set comment="kpoint 81">
       <r>   -7.4933    1.0000 </r>
       <r>   -7.4933    1.0000 </r>
       <r>   -7.0447    1.0000 </r>
       <r>   -7.0447    1.0000 </r>
       <r>   -7.0040    1.0000 </r>
       <r>   -7.0040    1.0000 </r>
       <r>   -1.3168    1.0000 </r>
       <r>   -1.3168    1.0000 </r>
       <r>   -0.2414    1.0000 </r>
       <r>   -0.2414    1.0000 </r>
       <r>    0.0620    1.0000 </r>
       <r>    0.0620    1.0000 </r>
       <r>    1.1942    1.0000 </r>
       <r>    1.1942    1.0000 </r>
       <r>    1.9719    1.0000 </r>
       <r>    1.9719    1.0000 </r>
       <r>    2.0260    1.0000 </r>
       <r>    2.0260    1.0000 </r>
       <r>    2.9034    1.0000 </r>
       <r>    2.9034    1.0000 </r>
       <r>    4.5403    1.0000 </r>
       <r>    4.5403    1.0000 </r>
       <r>    4.7978    1.0000 </r>
       <r>    4.7978    1.0000 </r>
       <r>    6.0757    1.0000 </r>
       <r>    6.0757    1.0000 </r>
       <r>    6.4742    1.0000 </r>
       <r>    6.4742    1.0000 </r>
       <r>    7.6299    1.0000 </r>
       <r>    7.6299    1.0000 </r>
       <r>    9.1436    1.0000 </r>
       <r>    9.1436    1.0000 </r>
       <r>   11.1170    0.0000 </r>
       <r>   11.1170    0.0000 </r>
       <r>   11.7452    0.0000 </r>
       <r>   11.7452    0.0000 </r>
       <r>   13.2435    0.0000 </r>
       <r>   13.2435    0.0000 </r>
       <r>   13.6211    0.0000 </r>
       <r>   13.6211    0.0000 </r>
      </set>
     </set>
    </set>
   </array>
  </eigenvalues>
  <separator name="orbital magnetization" >
   <v name="MAGDIPOLOUT">      0.00000000      0.00000000      0.00000000</v>
  </separator>
  <dos>
   <i name="efermi">     10.39904350 </i>
   <total>
    <array>
     <dimension dim="1">gridpoints</dimension>
     <dimension dim="2">spin</dimension>
     <field>energy</field>
     <field>total</field>
     <field>integrated</field>
     <set>
      <set comment="spin 1">
       <r>   -11.3383     0.0000     0.0000 </r>
       <r>   -11.2444     0.0000     0.0000 </r>
       <r>   -11.1506     0.0000     0.0000 </r>
       <r>   -11.0567     0.0000     0.0000 </r>
       <r>   -10.9629     0.0000     0.0000 </r>
       <r>   -10.8690     0.0000     0.0000 </r>
       <r>   -10.7752     0.0000     0.0000 </r>
       <r>   -10.6813     0.0000     0.0000 </r>
       <r>   -10.5874     0.0000     0.0000 </r>
       <r>   -10.4936     0.0000     0.0000 </r>
       <r>   -10.3997     0.0000     0.0000 </r>
       <r>   -10.3059     0.0002     0.0000 </r>
       <r>   -10.2120     0.0016     0.0002 </r>
       <r>   -10.1182    -0.0124    -0.0010 </r>
       <r>   -10.0243     0.1109     0.0094 </r>
       <r>    -9.9305     0.5741     0.0633 </r>
       <r>    -9.8366     0.8309     0.1413 </r>
       <r>    -9.7427     1.2219     0.2560 </r>
       <r>    -9.6489     1.2636     0.3746 </r>
       <r>    -9.5550     1.5065     0.5159 </r>
       <r>    -9.4612     1.6566     0.6714 </r>
       <r>    -9.3673     1.7200     0.8329 </r>
       <r>    -9.2735     2.1349     1.0332 </r>
       <r>    -9.1796     2.1733     1.2372 </r>
       <r>    -9.0858     3.0059     1.5193 </r>
       <r>    -8.9919     3.0440     1.8050 </r>
       <r>    -8.8981     3.6668     2.1491 </r>
       <r>    -8.8042     3.2039     2.4498 </r>
       <r>    -8.7103     2.5953     2.6934 </r>
       <r>    -8.6165     2.5124     2.9292 </r>
       <r>    -8.5226     2.6187     3.1750 </r>
       <r>    -8.4288     2.6838     3.4269 </r>
       <r>    -8.3349     4.0830     3.8101 </r>
       <r>    -8.2411     4.3227     4.2158 </r>
       <r>    -8.1472     3.8287     4.5751 </r>
       <r>    -8.0534     4.3202     4.9806 </r>
       <r>    -7.9595     5.2530     5.4736 </r>
       <r>    -7.8657     5.0333     5.9460 </r>
       <r>    -7.7718     5.4534     6.4579 </r>
       <r>    -7.6779     4.2653     6.8582 </r>
       <r>    -7.5841     4.3807     7.2693 </r>
       <r>    -7.4902     8.1770     8.0368 </r>
       <r>    -7.3964     5.9778     8.5978 </r>
       <r>    -7.3025     5.5104     9.1150 </r>
       <r>    -7.2087     5.7770     9.6572 </r>
       <r>    -7.1148     4.3117    10.0619 </r>
       <r>    -7.0210     6.1526    10.6393 </r>
       <r>    -6.9271     7.9483    11.3853 </r>
       <r>    -6.8333     4.3450    11.7931 </r>
       <r>    -6.7394     2.2106    12.0006 </r>
       <r>    -6.6455    -0.0003    12.0006 </r>
       <r>    -6.5517    -0.0116    11.9995 </r>
       <r>    -6.4578     0.0053    12.0000 </r>
       <r>    -6.3640     0.0001    12.0000 </r>
       <r>    -6.2701     0.0000    12.0000 </r>
       <r>    -6.1763     0.0000    12.0000 </r>
       <r>    -6.0824     0.0000    12.0000 </r>
       <r>    -5.9886     0.0000    12.0000 </r>
       <r>    -5.8947     0.0000    12.0000 </r>
       <r>    -5.8008     0.0000    12.0000 </r>
       <r>    -5.7070     0.0000    12.0000 </r>
       <r>    -5.6131     0.0000    12.0000 </r>
       <r>    -5.5193     0.0000    12.0000 </r>
       <r>    -5.4254     0.0000    12.0000 </r>
       <r>    -5.3316     0.0000    12.0000 </r>
       <r>    -5.2377     0.0000    12.0000 </r>
       <r>    -5.1439     0.0000    12.0000 </r>
       <r>    -5.0500     0.0000    12.0000 </r>
       <r>    -4.9562     0.0000    12.0000 </r>
       <r>    -4.8623     0.0000    12.0000 </r>
       <r>    -4.7684     0.0000    12.0000 </r>
       <r>    -4.6746     0.0000    12.0000 </r>
       <r>    -4.5807     0.0000    12.0000 </r>
       <r>    -4.4869     0.0000    12.0000 </r>
       <r>    -4.3930     0.0000    12.0000 </r>
       <r>    -4.2992     0.0000    12.0000 </r>
       <r>    -4.2053     0.0000    12.0000 </r>
       <r>    -4.1115     0.0000    12.0000 </r>
       <r>    -4.0176     0.0000    12.0000 </r>
       <r>    -3.9238     0.0000    12.0000 </r>
       <r>    -3.8299     0.0000    12.0000 </r>
       <r>    -3.7360     0.0000    12.0000 </r>
       <r>    -3.6422     0.0000    12.0000 </r>
       <r>    -3.5483     0.0000    12.0000 </r>
       <r>    -3.4545     0.0000    12.0000 </r>
       <r>    -3.3606     0.0000    12.0000 </r>
       <r>    -3.2668     0.0000    12.0000 </r>
       <r>    -3.1729     0.0000    12.0000 </r>
       <r>    -3.0791     0.0004    12.0000 </r>
       <r>    -2.9852     0.0016    12.0002 </r>
       <r>    -2.8914    -0.0176    11.9985 </r>
       <r>    -2.7975     0.2195    12.0191 </r>
       <r>    -2.7036     0.7251    12.0872 </r>
       <r>    -2.6098     1.2274    12.2024 </r>
       <r>    -2.5159     0.9074    12.2875 </r>
       <r>    -2.4221     1.0476    12.3859 </r>
       <r>    -2.3282     0.9056    12.4709 </r>
       <r>    -2.2344     0.8358    12.5493 </r>
       <r>    -2.1405     1.2316    12.6649 </r>
       <r>    -2.0467     0.5403    12.7156 </r>
       <r>    -1.9528     0.5676    12.7689 </r>
       <r>    -1.8589     1.0596    12.8683 </r>
       <r>    -1.7651     1.6015    13.0186 </r>
       <r>    -1.6712     1.8901    13.1960 </r>
       <r>    -1.5774     2.5496    13.4353 </r>
       <r>    -1.4835     1.7694    13.6014 </r>
       <r>    -1.3897     2.5210    13.8380 </r>
       <r>    -1.2958     4.4068    14.2516 </r>
       <r>    -1.2020     4.9113    14.7126 </r>
       <r>    -1.1081     4.5788    15.1423 </r>
       <r>    -1.0143     5.2904    15.6388 </r>
       <r>    -0.9204     6.9264    16.2889 </r>
       <r>    -0.8265     3.6753    16.6338 </r>
       <r>    -0.7327     2.1717    16.8377 </r>
       <r>    -0.6388     2.5395    17.0760 </r>
       <r>    -0.5450     4.2125    17.4714 </r>
       <r>    -0.4511     4.5971    17.9028 </r>
       <r>    -0.3573     4.5163    18.3267 </r>
       <r>    -0.2634     5.0927    18.8047 </r>
       <r>    -0.1696     4.4373    19.2211 </r>
       <r>    -0.0757     4.8206    19.6736 </r>
       <r>     0.0181     3.9176    20.0413 </r>
       <r>     0.1120     5.2507    20.5341 </r>
       <r>     0.2059     4.8182    20.9863 </r>
       <r>     0.2997     4.1807    21.3787 </r>
       <r>     0.3936     3.6295    21.7193 </r>
       <r>     0.4874     3.4717    22.0451 </r>
       <r>     0.5813     3.8822    22.4095 </r>
       <r>     0.6751     2.3261    22.6278 </r>
       <r>     0.7690     3.3307    22.9404 </r>
       <r>     0.8628     3.8556    23.3023 </r>
       <r>     0.9567     5.0852    23.7796 </r>
       <r>     1.0505     5.4622    24.2922 </r>
       <r>     1.1444     3.5216    24.6227 </r>
       <r>     1.2383     3.3772    24.9397 </r>
       <r>     1.3321     4.0184    25.3168 </r>
       <r>     1.4260     2.9354    25.5923 </r>
       <r>     1.5198     4.2330    25.9896 </r>
       <r>     1.6137     3.1301    26.2834 </r>
       <r>     1.7075     3.4218    26.6046 </r>
       <r>     1.8014     6.2300    27.1893 </r>
       <r>     1.8952     5.0508    27.6633 </r>
       <r>     1.9891     3.9989    28.0386 </r>
       <r>     2.0830     8.6872    28.8540 </r>
       <r>     2.1768     7.0443    29.5151 </r>
       <r>     2.2707     5.7772    30.0573 </r>
       <r>     2.3645     4.0082    30.4335 </r>
       <r>     2.4584     3.3362    30.7467 </r>
       <r>     2.5522     3.2971    31.0561 </r>
       <r>     2.6461     4.0958    31.4405 </r>
       <r>     2.7399     5.6201    31.9680 </r>
       <r>     2.8338     6.2372    32.5534 </r>
       <r>     2.9276     7.0301    33.2132 </r>
       <r>     3.0215     6.0415    33.7802 </r>
       <r>     3.1154     5.8743    34.3315 </r>
       <r>     3.2092     5.0766    34.8080 </r>
       <r>     3.3031     4.6636    35.2457 </r>
       <r>     3.3969     6.6725    35.8720 </r>
       <r>     3.4908     4.0891    36.2557 </r>
       <r>     3.5846     4.2936    36.6587 </r>
       <r>     3.6785     4.0394    37.0378 </r>
       <r>     3.7723     4.2224    37.4341 </r>
       <r>     3.8662     5.7140    37.9704 </r>
       <r>     3.9600     4.2332    38.3677 </r>
       <r>     4.0539     4.9043    38.8280 </r>
       <r>     4.1478     5.3370    39.3289 </r>
       <r>     4.2416     4.4795    39.7493 </r>
       <r>     4.3355     5.3903    40.2552 </r>
       <r>     4.4293     4.9387    40.7187 </r>
       <r>     4.5232     6.4883    41.3277 </r>
       <r>     4.6170     7.1198    41.9959 </r>
       <r>     4.7109     6.1570    42.5738 </r>
       <r>     4.8047     7.8194    43.3077 </r>
       <r>     4.8986    10.2325    44.2681 </r>
       <r>     4.9924     7.2699    44.9504 </r>
       <r>     5.0863     7.2242    45.6284 </r>
       <r>     5.1802     8.1021    46.3888 </r>
       <r>     5.2740     4.0101    46.7652 </r>
       <r>     5.3679     2.1000    46.9623 </r>
       <r>     5.4617     1.6172    47.1141 </r>
       <r>     5.5556     2.6525    47.3630 </r>
       <r>     5.6494     2.4713    47.5950 </r>
       <r>     5.7433     2.5464    47.8339 </r>
       <r>     5.8371     2.1025    48.0313 </r>
       <r>     5.9310     2.2013    48.2379 </r>
       <r>     6.0249     5.0932    48.7159 </r>
       <r>     6.1187     5.4639    49.2287 </r>
       <r>     6.2126     4.4447    49.6459 </r>
       <r>     6.3064     6.1877    50.2266 </r>
       <r>     6.4003     5.4025    50.7337 </r>
       <r>     6.4941     6.1455    51.3105 </r>
       <r>     6.5880     6.7089    51.9401 </r>
       <r>     6.6818     7.1172    52.6081 </r>
       <r>     6.7757     6.4200    53.2106 </r>
       <r>     6.8695     5.4429    53.7215 </r>
       <r>     6.9634     4.9955    54.1903 </r>
       <r>     7.0573     2.8831    54.4609 </r>
       <r>     7.1511     4.5080    54.8840 </r>
       <r>     7.2450     3.6168    55.2235 </r>
       <r>     7.3388     2.4018    55.4489 </r>
       <r>     7.4327     1.7414    55.6123 </r>
       <r>     7.5265     0.5732    55.6661 </r>
       <r>     7.6204     1.3231    55.7903 </r>
       <r>     7.7142     1.3728    55.9191 </r>
       <r>     7.8081     2.3644    56.1411 </r>
       <r>     7.9019     2.0320    56.3318 </r>
       <r>     7.9958     2.5011    56.5665 </r>
       <r>     8.0897     2.3802    56.7899 </r>
       <r>     8.1835     3.1888    57.0892 </r>
       <r>     8.2774     3.4415    57.4122 </r>
       <r>     8.3712     2.7377    57.6691 </r>
       <r>     8.4651     2.3825    57.8927 </r>
       <r>     8.5589     1.8890    58.0700 </r>
       <r>     8.6528     1.0299    58.1667 </r>
       <r>     8.7466     1.7794    58.3337 </r>
       <r>     8.8405     2.0763    58.5286 </r>
       <r>     8.9343     1.9732    58.7138 </r>
       <r>     9.0282     3.2576    59.0195 </r>
       <r>     9.1221     2.4554    59.2500 </r>
       <r>     9.2159     2.0666    59.4439 </r>
       <r>     9.3098     1.8655    59.6190 </r>
       <r>     9.4036     0.6863    59.6834 </r>
       <r>     9.4975     1.5995    59.8335 </r>
       <r>     9.5913     1.5350    59.9776 </r>
       <r>     9.6852     2.5565    60.2175 </r>
       <r>     9.7790     2.2418    60.4279 </r>
       <r>     9.8729     1.6034    60.5784 </r>
       <r>     9.9668     1.2605    60.6967 </r>
       <r>    10.0606     2.2950    60.9121 </r>
       <r>    10.1545     4.6841    61.3518 </r>
       <r>    10.2483     3.2773    61.6593 </r>
       <r>    10.3422     2.2313    61.8688 </r>
       <r>    10.4360     2.2779    62.0825 </r>
       <r>    10.5299     1.8502    62.2562 </r>
       <r>    10.6237     1.5666    62.4032 </r>
       <r>    10.7176     1.2733    62.5227 </r>
       <r>    10.8114     2.4622    62.7538 </r>
       <r>    10.9053     2.2697    62.9668 </r>
       <r>    10.9992     2.9535    63.2440 </r>
       <r>    11.0930     3.3860    63.5618 </r>
       <r>    11.1869     3.8627    63.9244 </r>
       <r>    11.2807     3.0101    64.2069 </r>
       <r>    11.3746     3.6266    64.5473 </r>
       <r>    11.4684     3.9976    64.9225 </r>
       <r>    11.5623     4.2720    65.3234 </r>
       <r>    11.6561     5.2773    65.8187 </r>
       <r>    11.7500     4.8017    66.2694 </r>
       <r>    11.8438     4.0763    66.6519 </r>
       <r>    11.9377     2.9959    66.9331 </r>
       <r>    12.0316     3.1046    67.2245 </r>
       <r>    12.1254     2.9507    67.5014 </r>
       <r>    12.2193     3.1998    67.8018 </r>
       <r>    12.3131     2.3161    68.0191 </r>
       <r>    12.4070     2.6912    68.2717 </r>
       <r>    12.5008     2.6969    68.5248 </r>
       <r>    12.5947     3.5909    68.8619 </r>
       <r>    12.6885     2.1182    69.0607 </r>
       <r>    12.7824     3.5929    69.3979 </r>
       <r>    12.8762     6.0430    69.9650 </r>
       <r>    12.9701     3.8875    70.3299 </r>
       <r>    13.0640     2.8140    70.5940 </r>
       <r>    13.1578     3.1382    70.8885 </r>
       <r>    13.2517     3.9424    71.2586 </r>
       <r>    13.3455     2.1868    71.4638 </r>
       <r>    13.4394     4.0539    71.8443 </r>
       <r>    13.5332     5.4100    72.3520 </r>
       <r>    13.6271     6.3860    72.9514 </r>
       <r>    13.7209     8.1313    73.7146 </r>
       <r>    13.8148     6.2198    74.2983 </r>
       <r>    13.9087     5.9847    74.8600 </r>
       <r>    14.0025     5.4130    75.3680 </r>
       <r>    14.0964     4.5920    75.7990 </r>
       <r>    14.1902     3.0837    76.0885 </r>
       <r>    14.2841     3.2288    76.3915 </r>
       <r>    14.3779     3.4415    76.7145 </r>
       <r>    14.4718     2.5366    76.9526 </r>
       <r>    14.5656     3.1908    77.2520 </r>
       <r>    14.6595     4.6255    77.6862 </r>
       <r>    14.7533     3.3124    77.9970 </r>
       <r>    14.8472     3.4317    78.3191 </r>
       <r>    14.9411     4.1776    78.7112 </r>
       <r>    15.0349     3.1974    79.0113 </r>
       <r>    15.1288     3.6038    79.3495 </r>
       <r>    15.2226     2.3291    79.5681 </r>
       <r>    15.3165     2.0425    79.7598 </r>
       <r>    15.4103     1.1976    79.8722 </r>
       <r>    15.5042     1.1093    79.9764 </r>
       <r>    15.5980     0.2844    80.0030 </r>
       <r>    15.6919    -0.0369    79.9996 </r>
       <r>    15.7857     0.0042    80.0000 </r>
       <r>    15.8796     0.0003    80.0000 </r>
       <r>    15.9735     0.0000    80.0000 </r>
       <r>    16.0673     0.0000    80.0000 </r>
       <r>    16.1612     0.0000    80.0000 </r>
       <r>    16.2550     0.0000    80.0000 </r>
       <r>    16.3489     0.0000    80.0000 </r>
       <r>    16.4427     0.0000    80.0000 </r>
       <r>    16.5366     0.0000    80.0000 </r>
       <r>    16.6304     0.0000    80.0000 </r>
       <r>    16.7243     0.0000    80.0000 </r>
       <r>    16.8181     0.0000    80.0000 </r>
      </set>
     </set>
    </array>
   </total>
  </dos>
 </calculation>
 <structure name="finalpos" >
  <crystal>
   <varray name="basis" >
    <v>       3.94121756      -6.82638904       0.00000000 </v>
    <v>       3.94121755       6.82638904       0.00000000 </v>
    <v>       0.00000000       0.00000000       2.77248954 </v>
   </varray>
   <i name="volume">    149.18369359 </i>
   <varray name="rec_basis" >
    <v>       0.12686435      -0.07324517       0.00000000 </v>
    <v>       0.12686435       0.07324517       0.00000000 </v>
    <v>       0.00000000       0.00000000       0.36068666 </v>
   </varray>
  </crystal>
  <varray name="positions" >
   <v>       0.19657214       0.83145669       0.75000000 </v>
   <v>       0.36511545       0.19657214       0.25000000 </v>
   <v>       0.83145669       0.63488455       0.25000000 </v>
   <v>       0.16854331       0.36511545       0.75000000 </v>
   <v>       0.63488455       0.80342786       0.75000000 </v>
   <v>       0.80342786       0.16854331       0.25000000 </v>
   <v>       0.33333333       0.66666667       0.75000000 </v>
   <v>       0.66666667       0.33333333       0.25000000 </v>
   <v>       0.96368480       0.61198998       0.75000000 </v>
   <v>       0.35169481       0.96368480       0.25000000 </v>
   <v>       0.61198998       0.64830519       0.25000000 </v>
   <v>       0.38801002       0.35169481       0.75000000 </v>
   <v>       0.03631520       0.38801002       0.25000000 </v>
   <v>       0.64830519       0.03631520       0.75000000 </v>
  </varray>
 </structure>
</modeling>
