unknown system                          
           1
     3.941218   -6.826389    0.000000
     3.941218    6.826389    0.000000
     0.000000    0.000000    2.772490
   Si   N 
   6   8
Direct configuration=     1
   0.19708959  0.83151770  0.75000000
   0.36557189  0.19708959  0.25000000
   0.83151770  0.63442811  0.25000000
   0.16848230  0.36557189  0.75000000
   0.63442811  0.80291041  0.75000000
   0.80291041  0.16848230  0.25000000
   0.33333333  0.66666667  0.75000000
   0.66666667  0.33333333  0.25000000
   0.96358754  0.61246345  0.75000000
   0.35112409  0.96358754  0.25000000
   0.61246345  0.64887591  0.25000000
   0.38753655  0.35112409  0.75000000
   0.03641246  0.38753655  0.25000000
   0.64887591  0.03641246  0.75000000
Direct configuration=     2
   0.19618807  0.83141141  0.75000000
   0.36477666  0.19618807  0.25000000
   0.83141141  0.63522334  0.25000000
   0.16858859  0.36477666  0.75000000
   0.63522334  0.80381193  0.75000000
   0.80381193  0.16858859  0.25000000
   0.33333333  0.66666667  0.75000000
   0.66666667  0.33333333  0.25000000
   0.96375698  0.61163855  0.75000000
   0.35211843  0.96375698  0.25000000
   0.61163855  0.64788157  0.25000000
   0.38836145  0.35211843  0.75000000
   0.03624302  0.38836145  0.25000000
   0.64788157  0.03624302  0.75000000
Direct configuration=     3
   0.19657214  0.83145669  0.75000000
   0.36511545  0.19657214  0.25000000
   0.83145669  0.63488455  0.25000000
   0.16854331  0.36511545  0.75000000
   0.63488455  0.80342786  0.75000000
   0.80342786  0.16854331  0.25000000
   0.33333333  0.66666667  0.75000000
   0.66666667  0.33333333  0.25000000
   0.96368480  0.61198998  0.75000000
   0.35169481  0.96368480  0.25000000
   0.61198998  0.64830519  0.25000000
   0.38801002  0.35169481  0.75000000
   0.03631520  0.38801002  0.25000000
   0.64830519  0.03631520  0.75000000
