  14  14   0   0
  0.1002312E+02  0.7723194E-09  0.7723194E-09  0.2716480E-09  0.5000000E-15
  1.000000000000000E-004
  CAR 
 unknown system                          
     17.98673212    -11.13689782  301     11.14164938      1.00000000
    -11.137  0.0000E+00  0.0000E+00
    -11.040  0.0000E+00  0.0000E+00
    -10.943  0.0000E+00  0.0000E+00
    -10.846  0.0000E+00  0.0000E+00
    -10.749  0.0000E+00  0.0000E+00
    -10.652  0.5825E-32  0.5655E-33
    -10.554  0.1828E-25  0.1774E-26
    -10.457  0.8283E-20  0.8041E-21
    -10.360  0.5382E-15  0.5225E-16
    -10.263  0.4949E-11  0.4805E-12
    -10.166  0.6368E-08  0.6187E-09
    -10.069  0.1078E-05  0.1053E-06
     -9.972  0.1433E-04  0.1497E-05
     -9.875 -0.1087E-03 -0.9054E-05
     -9.778  0.1033E-02  0.9123E-04
     -9.681  0.5122E-02  0.5885E-03
     -9.584  0.7975E-02  0.1363E-02
     -9.487  0.1076E-01  0.2408E-02
     -9.389  0.1144E-01  0.3518E-02
     -9.292  0.1480E-01  0.4955E-02
     -9.195  0.1447E-01  0.6360E-02
     -9.098  0.1491E-01  0.7807E-02
     -9.001  0.1846E-01  0.9599E-02
     -8.904  0.2299E-01  0.1183E-01
     -8.807  0.2159E-01  0.1393E-01
     -8.710  0.2773E-01  0.1662E-01
     -8.613  0.3145E-01  0.1967E-01
     -8.516  0.3490E-01  0.2306E-01
     -8.419  0.2576E-01  0.2556E-01
     -8.322  0.2566E-01  0.2805E-01
     -8.225  0.2116E-01  0.3011E-01
     -8.127  0.1942E-01  0.3199E-01
     -8.030  0.3360E-01  0.3525E-01
     -7.933  0.4316E-01  0.3944E-01
     -7.836  0.3486E-01  0.4283E-01
     -7.739  0.2713E-01  0.4546E-01
     -7.642  0.4666E-01  0.4999E-01
     -7.545  0.5036E-01  0.5488E-01
     -7.448  0.4957E-01  0.5969E-01
     -7.351  0.3993E-01  0.6357E-01
     -7.254  0.3870E-01  0.6732E-01
     -7.157  0.5580E-01  0.7274E-01
     -7.060  0.4998E-01  0.7759E-01
     -6.963  0.6036E-01  0.8345E-01
     -6.865  0.6512E-01  0.8978E-01
     -6.768  0.4326E-01  0.9398E-01
     -6.671  0.4272E-01  0.9812E-01
     -6.574  0.5487E-01  0.1034E+00
     -6.477  0.5623E-01  0.1089E+00
     -6.380  0.6961E-01  0.1157E+00
     -6.283  0.3051E-01  0.1186E+00
     -6.186  0.1497E-01  0.1201E+00
     -6.089 -0.9227E-03  0.1200E+00
     -5.992  0.6671E-04  0.1200E+00
     -5.895  0.1967E-04  0.1200E+00
     -5.798  0.1527E-06  0.1200E+00
     -5.700  0.1332E-09  0.1200E+00
     -5.603  0.1536E-13  0.1200E+00
     -5.506  0.3295E-18  0.1200E+00
     -5.409  0.0000E+00  0.1200E+00
     -5.312  0.0000E+00  0.1200E+00
     -5.215  0.0000E+00  0.1200E+00
     -5.118  0.0000E+00  0.1200E+00
     -5.021  0.0000E+00  0.1200E+00
     -4.924  0.0000E+00  0.1200E+00
     -4.827  0.0000E+00  0.1200E+00
     -4.730  0.0000E+00  0.1200E+00
     -4.633  0.0000E+00  0.1200E+00
     -4.536  0.0000E+00  0.1200E+00
     -4.438  0.0000E+00  0.1200E+00
     -4.341  0.0000E+00  0.1200E+00
     -4.244  0.0000E+00  0.1200E+00
     -4.147  0.0000E+00  0.1200E+00
     -4.050  0.0000E+00  0.1200E+00
     -3.953  0.0000E+00  0.1200E+00
     -3.856  0.0000E+00  0.1200E+00
     -3.759  0.0000E+00  0.1200E+00
     -3.662  0.0000E+00  0.1200E+00
     -3.565  0.0000E+00  0.1200E+00
     -3.468  0.0000E+00  0.1200E+00
     -3.371  0.0000E+00  0.1200E+00
     -3.274  0.6999E-29  0.1200E+00
     -3.176  0.1128E-22  0.1200E+00
     -3.079  0.2591E-17  0.1200E+00
     -2.982  0.8288E-13  0.1200E+00
     -2.885  0.3536E-09  0.1200E+00
     -2.788  0.1862E-06  0.1200E+00
     -2.691  0.9506E-05  0.1200E+00
     -2.594 -0.3197E-04  0.1200E+00
     -2.497  0.1209E-03  0.1200E+00
     -2.400  0.4313E-02  0.1204E+00
     -2.303  0.7680E-02  0.1212E+00
     -2.206  0.1308E-01  0.1224E+00
     -2.109  0.6338E-02  0.1231E+00
     -2.011  0.1003E-01  0.1240E+00
     -1.914  0.8676E-02  0.1249E+00
     -1.817  0.1109E-01  0.1260E+00
     -1.720  0.5519E-02  0.1265E+00
     -1.623  0.4781E-02  0.1270E+00
     -1.526  0.1151E-01  0.1281E+00
     -1.429  0.1044E-01  0.1291E+00
     -1.332  0.6955E-02  0.1298E+00
     -1.235  0.2189E-01  0.1319E+00
     -1.138  0.2803E-01  0.1346E+00
     -1.041  0.2248E-01  0.1368E+00
     -0.944  0.3151E-01  0.1398E+00
     -0.847  0.3561E-01  0.1433E+00
     -0.749  0.5312E-01  0.1485E+00
     -0.652  0.3960E-01  0.1523E+00
     -0.555  0.6362E-01  0.1585E+00
     -0.458  0.4666E-01  0.1630E+00
     -0.361  0.3729E-01  0.1666E+00
     -0.264  0.2217E-01  0.1688E+00
     -0.167  0.3278E-01  0.1720E+00
     -0.070  0.3420E-01  0.1753E+00
      0.027  0.4410E-01  0.1796E+00
      0.124  0.4289E-01  0.1837E+00
      0.221  0.4718E-01  0.1883E+00
      0.318  0.5039E-01  0.1932E+00
      0.415  0.3539E-01  0.1966E+00
      0.513  0.3675E-01  0.2002E+00
      0.610  0.5118E-01  0.2052E+00
      0.707  0.4061E-01  0.2091E+00
      0.804  0.4147E-01  0.2131E+00
      0.901  0.5367E-01  0.2184E+00
      0.998  0.3001E-01  0.2213E+00
      1.095  0.2138E-01  0.2233E+00
      1.192  0.3093E-01  0.2263E+00
      1.289  0.3885E-01  0.2301E+00
      1.386  0.3840E-01  0.2338E+00
      1.483  0.5160E-01  0.2389E+00
      1.580  0.4037E-01  0.2428E+00
      1.677  0.4668E-01  0.2473E+00
      1.775  0.2773E-01  0.2500E+00
      1.872  0.2649E-01  0.2526E+00
      1.969  0.3193E-01  0.2557E+00
      2.066  0.4344E-01  0.2599E+00
      2.163  0.4261E-01  0.2640E+00
      2.260  0.4040E-01  0.2679E+00
      2.357  0.5493E-01  0.2733E+00
      2.454  0.4543E-01  0.2777E+00
      2.551  0.4395E-01  0.2819E+00
      2.648  0.5860E-01  0.2876E+00
      2.745  0.7878E-01  0.2953E+00
      2.842  0.6149E-01  0.3013E+00
      2.940  0.4689E-01  0.3058E+00
      3.037  0.3921E-01  0.3096E+00
      3.134  0.3921E-01  0.3134E+00
      3.231  0.3777E-01  0.3171E+00
      3.328  0.3574E-01  0.3206E+00
      3.425  0.6627E-01  0.3270E+00
      3.522  0.6694E-01  0.3335E+00
      3.619  0.6287E-01  0.3396E+00
      3.716  0.6231E-01  0.3456E+00
      3.813  0.3167E-01  0.3487E+00
      3.910  0.3788E-01  0.3524E+00
      4.007  0.5788E-01  0.3580E+00
      4.104  0.5570E-01  0.3634E+00
      4.202  0.3341E-01  0.3667E+00
      4.299  0.4492E-01  0.3710E+00
      4.396  0.4059E-01  0.3750E+00
      4.493  0.5438E-01  0.3802E+00
      4.590  0.4822E-01  0.3849E+00
      4.687  0.4625E-01  0.3894E+00
      4.784  0.4147E-01  0.3934E+00
      4.881  0.5145E-01  0.3984E+00
      4.978  0.5263E-01  0.4035E+00
      5.075  0.5562E-01  0.4089E+00
      5.172  0.5578E-01  0.4144E+00
      5.269  0.7724E-01  0.4219E+00
      5.366  0.7394E-01  0.4290E+00
      5.464  0.6338E-01  0.4352E+00
      5.561  0.7647E-01  0.4426E+00
      5.658  0.7212E-01  0.4496E+00
      5.755  0.5818E-01  0.4553E+00
      5.852  0.6251E-01  0.4613E+00
      5.949  0.5368E-01  0.4665E+00
      6.046  0.3426E-01  0.4699E+00
      6.143  0.1824E-01  0.4716E+00
      6.240  0.1976E-01  0.4736E+00
      6.337  0.1484E-01  0.4750E+00
      6.434  0.2210E-01  0.4771E+00
      6.531  0.3836E-01  0.4809E+00
      6.629  0.3961E-01  0.4847E+00
      6.726  0.5283E-01  0.4898E+00
      6.823  0.4355E-01  0.4941E+00
      6.920  0.4583E-01  0.4985E+00
      7.017  0.5228E-01  0.5036E+00
      7.114  0.5782E-01  0.5092E+00
      7.211  0.7363E-01  0.5164E+00
      7.308  0.7457E-01  0.5236E+00
      7.405  0.6630E-01  0.5300E+00
      7.502  0.5807E-01  0.5357E+00
      7.599  0.5089E-01  0.5406E+00
      7.696  0.3705E-01  0.5442E+00
      7.793  0.3830E-01  0.5479E+00
      7.891  0.3973E-01  0.5518E+00
      7.988  0.2649E-01  0.5543E+00
      8.085  0.1861E-01  0.5562E+00
      8.182  0.1785E-01  0.5579E+00
      8.279  0.1192E-01  0.5590E+00
      8.376  0.9328E-02  0.5599E+00
      8.473  0.1598E-01  0.5615E+00
      8.570  0.1728E-01  0.5632E+00
      8.667  0.2576E-01  0.5657E+00
      8.764  0.3126E-01  0.5687E+00
      8.861  0.3399E-01  0.5720E+00
      8.958  0.2895E-01  0.5748E+00
      9.055  0.1796E-01  0.5766E+00
      9.153  0.9353E-02  0.5775E+00
      9.250  0.2735E-01  0.5801E+00
      9.347  0.2734E-01  0.5828E+00
      9.444  0.1356E-01  0.5841E+00
      9.541  0.1553E-01  0.5856E+00
      9.638  0.1705E-01  0.5873E+00
      9.735  0.9608E-02  0.5882E+00
      9.832  0.1912E-01  0.5901E+00
      9.929  0.3858E-01  0.5938E+00
     10.026  0.2984E-01  0.5967E+00
     10.123  0.1285E-01  0.5979E+00
     10.220  0.7868E-02  0.5987E+00
     10.318  0.7504E-02  0.5994E+00
     10.415  0.2045E-01  0.6014E+00
     10.512  0.2492E-01  0.6038E+00
     10.609  0.2320E-01  0.6061E+00
     10.706  0.2148E-01  0.6082E+00
     10.803  0.3656E-01  0.6117E+00
     10.900  0.4084E-01  0.6157E+00
     10.997  0.2252E-01  0.6179E+00
     11.094  0.1288E-01  0.6191E+00
     11.191  0.1762E-01  0.6208E+00
     11.288  0.1204E-01  0.6220E+00
     11.385  0.1457E-01  0.6234E+00
     11.482  0.1408E-01  0.6248E+00
     11.580  0.1715E-01  0.6265E+00
     11.677  0.2283E-01  0.6287E+00
     11.774  0.1825E-01  0.6304E+00
     11.871  0.2124E-01  0.6325E+00
     11.968  0.4957E-01  0.6373E+00
     12.065  0.3929E-01  0.6411E+00
     12.162  0.4846E-01  0.6458E+00
     12.259  0.4550E-01  0.6503E+00
     12.356  0.4625E-01  0.6547E+00
     12.453  0.2898E-01  0.6576E+00
     12.550  0.3125E-01  0.6606E+00
     12.647  0.2587E-01  0.6631E+00
     12.744  0.4415E-01  0.6674E+00
     12.842  0.4343E-01  0.6716E+00
     12.939  0.3379E-01  0.6749E+00
     13.036  0.2846E-01  0.6776E+00
     13.133  0.2242E-01  0.6798E+00
     13.230  0.3850E-01  0.6836E+00
     13.327  0.1628E-01  0.6851E+00
     13.424  0.1983E-01  0.6871E+00
     13.521  0.3446E-01  0.6904E+00
     13.618  0.3805E-01  0.6941E+00
     13.715  0.1561E-01  0.6956E+00
     13.812  0.3400E-01  0.6989E+00
     13.909  0.4735E-01  0.7035E+00
     14.007  0.3880E-01  0.7073E+00
     14.104  0.2893E-01  0.7101E+00
     14.201  0.4024E-01  0.7140E+00
     14.298  0.3453E-01  0.7174E+00
     14.395  0.3526E-01  0.7208E+00
     14.492  0.3420E-01  0.7241E+00
     14.589  0.4070E-01  0.7280E+00
     14.686  0.8355E-01  0.7362E+00
     14.783  0.5561E-01  0.7416E+00
     14.880  0.5025E-01  0.7464E+00
     14.977  0.5890E-01  0.7522E+00
     15.074  0.3640E-01  0.7557E+00
     15.171  0.3742E-01  0.7593E+00
     15.269  0.2931E-01  0.7622E+00
     15.366  0.2780E-01  0.7649E+00
     15.463  0.3101E-01  0.7679E+00
     15.560  0.3017E-01  0.7708E+00
     15.657  0.2085E-01  0.7728E+00
     15.754  0.3643E-01  0.7764E+00
     15.851  0.3122E-01  0.7794E+00
     15.948  0.2844E-01  0.7822E+00
     16.045  0.4555E-01  0.7866E+00
     16.142  0.5121E-01  0.7915E+00
     16.239  0.2996E-01  0.7945E+00
     16.336  0.2110E-01  0.7965E+00
     16.433  0.2721E-01  0.7991E+00
     16.531  0.8946E-02  0.8000E+00
     16.628 -0.6440E-03  0.8000E+00
     16.725  0.4847E-03  0.8000E+00
     16.822  0.1542E-04  0.8000E+00
     16.919 -0.3277E-05  0.8000E+00
     17.016  0.8434E-06  0.8000E+00
     17.113  0.8684E-08  0.8000E+00
     17.210  0.8425E-11  0.8000E+00
     17.307  0.1006E-14  0.8000E+00
     17.404  0.0000E+00  0.8000E+00
     17.501  0.0000E+00  0.8000E+00
     17.598  0.0000E+00  0.8000E+00
     17.695  0.0000E+00  0.8000E+00
     17.793  0.0000E+00  0.8000E+00
     17.890  0.0000E+00  0.8000E+00
     17.987  0.0000E+00  0.8000E+00
