   14   14  100    1
  0.1002312E+02  0.7723194E-09  0.7723194E-09  0.2716480E-09  0.5000000E-15
  1.000000000000000E-004
  CAR 
 unknown system                          
     62     81     40
 
  0.3742002E-15  0.3742002E-15  0.3742002E-15  0.1200480E-02
    1       -9.813096   1.000000
    2       -8.509225   1.000000
    3       -8.509224   1.000000
    4       -7.839790   1.000000
    5       -7.839790   1.000000
    6       -7.675169   1.000000
    7       -1.358830   1.000000
    8       -1.358829   1.000000
    9       -1.267511   1.000000
   10       -0.444776   1.000000
   11        0.898330   1.000000
   12        1.473035   1.000000
   13        1.473035   1.000000
   14        3.384838   1.000000
   15        3.384838   1.000000
   16        4.564686   1.000000
   17        4.719857   1.000000
   18        4.719858   1.000000
   19        5.295878   1.000000
   20        5.542148   1.000000
   21        6.113239   1.000000
   22        6.113239   1.000000
   23        6.663862   1.000000
   24        6.663862   1.000000
   25        6.855555   1.000000
   26        7.901111   1.000000
   27        7.983036   1.000000
   28        7.983036   1.000000
   29       10.013923   1.000000
   30       10.175929   1.000000
   31       10.175930   1.000000
   32       14.580856   0.000000
   33       14.693823   0.000000
   34       14.693823   0.000000
   35       15.221726   0.000000
   36       15.221726   0.000000
   37       15.930432   0.000000
   38       16.151271   0.000000
   39       16.515498   0.000000
   40       16.516660   0.000000
 
  0.1428571E+00  0.3815968E-15  0.3742002E-15  0.7202881E-02
    1       -9.770711   1.000000
    2       -8.607907   1.000000
    3       -8.552573   1.000000
    4       -8.011486   1.000000
    5       -7.772503   1.000000
    6       -7.431594   1.000000
    7       -1.660414   1.000000
    8       -1.353481   1.000000
    9       -1.201643   1.000000
   10       -0.145811   1.000000
   11        0.751209   1.000000
   12        1.370016   1.000000
   13        1.599846   1.000000
   14        3.292688   1.000000
   15        3.456625   1.000000
   16        4.451342   1.000000
   17        4.634063   1.000000
   18        4.877491   1.000000
   19        5.566247   1.000000
   20        5.569198   1.000000
   21        6.082110   1.000000
   22        6.106452   1.000000
   23        6.620591   1.000000
   24        6.678258   1.000000
   25        6.911321   1.000000
   26        7.737345   1.000000
   27        7.785141   1.000000
   28        8.026702   1.000000
   29        9.957092   1.000000
   30       10.343020   1.000000
   31       10.394211   1.000000
   32       14.212757   0.000000
   33       14.550072   0.000000
   34       14.719430   0.000000
   35       15.116162   0.000000
   36       15.285196   0.000000
   37       15.960208   0.000000
   38       16.197484   0.000000
   39       16.334091   0.000000
   40       16.460490   0.000000
 
  0.2857143E+00  0.3747105E-15  0.3742002E-15  0.7202881E-02
    1       -9.646180   1.000000
    2       -8.865354   1.000000
    3       -8.630626   1.000000
    4       -8.111968   1.000000
    5       -7.638917   1.000000
    6       -7.164427   1.000000
    7       -2.077052   1.000000
    8       -1.342160   1.000000
    9       -1.015703   1.000000
   10        0.138258   1.000000
   11        0.497452   1.000000
   12        1.153393   1.000000
   13        2.009879   1.000000
   14        3.111728   1.000000
   15        3.450202   1.000000
   16        4.308867   1.000000
   17        4.623013   1.000000
   18        5.140359   1.000000
   19        5.631065   1.000000
   20        5.994497   1.000000
   21        5.997253   1.000000
   22        6.086802   1.000000
   23        6.564585   1.000000
   24        6.706501   1.000000
   25        6.992966   1.000000
   26        7.248708   1.000000
   27        7.426719   1.000000
   28        8.357293   1.000000
   29        9.775934   1.000000
   30       10.638062   1.000000
   31       10.879457   0.998605
   32       13.307450   0.000000
   33       14.291338   0.000000
   34       14.795272   0.000000
   35       15.067296   0.000000
   36       15.403442   0.000000
   37       15.952691   0.000000
   38       16.039473   0.000000
   39       16.140600   0.000000
   40       16.336661   0.000000
 
  0.4285714E+00  0.3806941E-15  0.3742002E-15  0.7202881E-02
    1       -9.452348   1.000000
    2       -9.156158   1.000000
    3       -8.681581   1.000000
    4       -8.142452   1.000000
    5       -7.540937   1.000000
    6       -7.010387   1.000000
    7       -2.322829   1.000000
    8       -1.332627   1.000000
    9       -0.773762   1.000000
   10       -0.076574   1.000000
   11        0.540106   1.000000
   12        0.991638   1.000000
   13        2.633037   1.000000
   14        2.986134   1.000000
   15        3.216271   1.000000
   16        3.931363   1.000000
   17        4.965153   1.000000
   18        5.341777   1.000000
   19        5.728393   1.000000
   20        5.880528   1.000000
   21        6.075011   1.000000
   22        6.171205   1.000000
   23        6.537241   1.000000
   24        6.726842   1.000000
   25        6.840520   1.000000
   26        7.041903   1.000000
   27        7.257292   1.000000
   28        8.758573   1.000000
   29        9.505811   1.000000
   30       10.811043   0.999936
   31       11.501331   0.000012
   32       12.362039   0.000000
   33       14.115451   0.000000
   34       14.927269   0.000000
   35       15.102388   0.000000
   36       15.347505   0.000000
   37       15.822775   0.000000
   38       16.063672   0.000000
   39       16.140120   0.000000
   40       16.189084   0.000000
 
  0.1428571E+00  0.1428571E+00  0.3742002E-15  0.7202881E-02
    1       -9.687190   1.000000
    2       -8.721990   1.000000
    3       -8.698681   1.000000
    4       -8.050959   1.000000
    5       -7.702251   1.000000
    6       -7.221491   1.000000
    7       -1.990836   1.000000
    8       -1.314279   1.000000
    9       -1.072043   1.000000
   10        0.052920   1.000000
   11        0.527777   1.000000
   12        1.336184   1.000000
   13        1.797869   1.000000
   14        3.091902   1.000000
   15        3.609621   1.000000
   16        4.328631   1.000000
   17        4.515255   1.000000
   18        5.116642   1.000000
   19        5.609805   1.000000
   20        5.890601   1.000000
   21        6.033252   1.000000
   22        6.079102   1.000000
   23        6.585713   1.000000
   24        6.691289   1.000000
   25        6.973444   1.000000
   26        7.381571   1.000000
   27        7.525941   1.000000
   28        8.249361   1.000000
   29        9.840171   1.000000
   30       10.590098   1.000000
   31       10.706111   1.000000
   32       13.642810   0.000000
   33       14.176679   0.000000
   34       14.807426   0.000000
   35       15.059969   0.000000
   36       15.420043   0.000000
   37       16.014652   0.000000
   38       16.081755   0.000000
   39       16.257829   0.000000
   40       16.362660   0.000000
 
  0.2857143E+00  0.1428571E+00  0.3742002E-15  0.7202881E-02
    1       -9.525842   1.000000
    2       -8.992249   1.000000
    3       -8.793990   1.000000
    4       -8.032465   1.000000
    5       -7.625021   1.000000
    6       -7.031385   1.000000
    7       -2.298496   1.000000
    8       -1.231469   1.000000
    9       -0.838153   1.000000
   10       -0.063643   1.000000
   11        0.251705   1.000000
   12        1.449492   1.000000
   13        2.227342   1.000000
   14        2.862116   1.000000
   15        3.640232   1.000000
   16        4.044681   1.000000
   17        4.594105   1.000000
   18        5.383065   1.000000
   19        5.692436   1.000000
   20        5.944000   1.000000
   21        6.043151   1.000000
   22        6.132922   1.000000
   23        6.567356   1.000000
   24        6.703443   1.000000
   25        7.033553   1.000000
   26        7.121629   1.000000
   27        7.167255   1.000000
   28        8.623834   1.000000
   29        9.610944   1.000000
   30       10.885783   0.998274
   31       11.143240   0.483178
   32       12.781836   0.000000
   33       13.815831   0.000000
   34       14.898807   0.000000
   35       15.084150   0.000000
   36       15.596140   0.000000
   37       15.748297   0.000000
   38       16.110057   0.000000
   39       16.216763   0.000000
   40       16.250306   0.000000
 
  0.4285714E+00  0.1428571E+00  0.3742002E-15  0.7202881E-02
    1       -9.343420   1.000000
    2       -9.225076   1.000000
    3       -8.823926   1.000000
    4       -8.023195   1.000000
    5       -7.588583   1.000000
    6       -6.959823   1.000000
    7       -2.414876   1.000000
    8       -1.180543   1.000000
    9       -0.659473   1.000000
   10       -0.233992   1.000000
   11        0.112848   1.000000
   12        1.496983   1.000000
   13        2.632972   1.000000
   14        2.794080   1.000000
   15        3.385568   1.000000
   16        3.886592   1.000000
   17        4.779213   1.000000
   18        5.480747   1.000000
   19        5.770632   1.000000
   20        5.859659   1.000000
   21        6.030768   1.000000
   22        6.163629   1.000000
   23        6.563136   1.000000
   24        6.708109   1.000000
   25        6.866644   1.000000
   26        7.055933   1.000000
   27        7.200473   1.000000
   28        8.910287   1.000000
   29        9.396384   1.000000
   30       10.948312   0.995329
   31       11.707447   0.000000
   32       12.045162   0.000000
   33       13.728603   0.000000
   34       14.930681   0.000000
   35       15.228332   0.000000
   36       15.344250   0.000000
   37       15.813031   0.000000
   38       16.169309   0.000000
   39       16.173611   0.000000
   40       16.227466   0.000000
 
 -0.4285714E+00  0.1428571E+00  0.3742002E-15  0.7202881E-02
    1       -9.525805   1.000000
    2       -8.992319   1.000000
    3       -8.794008   1.000000
    4       -8.032399   1.000000
    5       -7.625023   1.000000
    6       -7.031365   1.000000
    7       -2.298548   1.000000
    8       -1.228366   1.000000
    9       -0.845682   1.000000
   10       -0.049651   1.000000
   11        0.243075   1.000000
   12        1.445056   1.000000
   13        2.217066   1.000000
   14        2.902310   1.000000
   15        3.640638   1.000000
   16        3.966719   1.000000
   17        4.644873   1.000000
   18        5.406853   1.000000
   19        5.692811   1.000000
   20        5.943723   1.000000
   21        6.043875   1.000000
   22        6.123093   1.000000
   23        6.566950   1.000000
   24        6.703302   1.000000
   25        6.979255   1.000000
   26        7.033359   1.000000
   27        7.297428   1.000000
   28        8.628818   1.000000
   29        9.607133   1.000000
   30       10.831438   0.999817
   31       11.211987  -0.021855
   32       12.732765   0.000000
   33       13.867339   0.000000
   34       14.966857   0.000000
   35       15.017293   0.000000
   36       15.487118   0.000000
   37       15.850576   0.000000
   38       16.105689   0.000000
   39       16.203726   0.000000
   40       16.263258   0.000000
 
  0.2857143E+00  0.2857143E+00  0.3742002E-15  0.7202881E-02
    1       -9.336413   1.000000
    2       -9.098435   1.000000
    3       -9.021001   1.000000
    4       -7.872521   1.000000
    5       -7.694397   1.000000
    6       -6.932509   1.000000
    7       -2.468139   1.000000
    8       -0.946992   1.000000
    9       -0.599429   1.000000
   10       -0.414026   1.000000
   11       -0.155141   1.000000
   12        2.055047   1.000000
   13        2.307951   1.000000
   14        2.640140   1.000000
   15        3.548690   1.000000
   16        4.067716   1.000000
   17        4.457120   1.000000
   18        5.519752   1.000000
   19        5.774486   1.000000
   20        5.909180   1.000000
   21        5.960582   1.000000
   22        6.172224   1.000000
   23        6.608766   1.000000
   24        6.671534   1.000000
   25        7.015129   1.000000
   26        7.064822   1.000000
   27        7.103950   1.000000
   28        8.975665   1.000000
   29        9.358447   1.000000
   30       11.139788   0.519688
   31       11.514109   0.000005
   32       12.116385   0.000000
   33       13.433084   0.000000
   34       14.866618   0.000000
   35       15.239574   0.000000
   36       15.483709   0.000000
   37       15.665563   0.000000
   38       16.176894   0.000000
   39       16.211805   0.000000
   40       16.318249   0.000000
 
  0.3742002E-15  0.3742002E-15  0.5882353E-01  0.2400960E-02
    1       -9.762511   1.000000
    2       -8.465213   1.000000
    3       -8.465212   1.000000
    4       -7.798422   1.000000
    5       -7.798422   1.000000
    6       -7.638005   1.000000
    7       -1.317430   1.000000
    8       -1.317430   1.000000
    9       -1.210185   1.000000
   10       -0.393320   1.000000
   11        0.923819   1.000000
   12        1.505049   1.000000
   13        1.505049   1.000000
   14        3.430278   1.000000
   15        3.430279   1.000000
   16        4.576885   1.000000
   17        4.728675   1.000000
   18        4.728677   1.000000
   19        5.277635   1.000000
   20        5.286685   1.000000
   21        5.868526   1.000000
   22        5.868526   1.000000
   23        6.411032   1.000000
   24        6.411032   1.000000
   25        6.528438   1.000000
   26        8.000815   1.000000
   27        8.000815   1.000000
   28        8.082118   1.000000
   29        9.956983   1.000000
   30       10.274489   1.000000
   31       10.274490   1.000000
   32       14.481617   0.000000
   33       14.805213   0.000000
   34       14.805213   0.000000
   35       14.916032   0.000000
   36       14.916032   0.000000
   37       15.615496   0.000000
   38       15.849669   0.000000
   39       16.035810   0.000000
   40       16.035811   0.000000
 
  0.1428571E+00  0.3815968E-15  0.5882353E-01  0.1440576E-01
    1       -9.720309   1.000000
    2       -8.563183   1.000000
    3       -8.508148   1.000000
    4       -7.970332   1.000000
    5       -7.732028   1.000000
    6       -7.395228   1.000000
    7       -1.613437   1.000000
    8       -1.311247   1.000000
    9       -1.144736   1.000000
   10       -0.099951   1.000000
   11        0.781637   1.000000
   12        1.402528   1.000000
   13        1.630065   1.000000
   14        3.337999   1.000000
   15        3.490061   1.000000
   16        4.467692   1.000000
   17        4.624633   1.000000
   18        4.881634   1.000000
   19        5.308670   1.000000
   20        5.561743   1.000000
   21        5.836766   1.000000
   22        5.860039   1.000000
   23        6.334653   1.000000
   24        6.433954   1.000000
   25        6.635011   1.000000
   26        7.768316   1.000000
   27        7.818464   1.000000
   28        8.186218   1.000000
   29        9.908673   1.000000
   30       10.422120   1.000000
   31       10.472492   1.000000
   32       14.270154   0.000000
   33       14.567505   0.000000
   34       14.637459   0.000000
   35       14.929847   0.000000
   36       15.043115   0.000000
   37       15.655812   0.000000
   38       15.909975   0.000000
   39       15.951083   0.000000
   40       16.018680   0.000000
 
  0.2857143E+00  0.3747105E-15  0.5882353E-01  0.1440576E-01
    1       -9.596402   1.000000
    2       -8.819080   1.000000
    3       -8.585633   1.000000
    4       -8.070580   1.000000
    5       -7.600165   1.000000
    6       -7.130436   1.000000
    7       -2.025164   1.000000
    8       -1.297282   1.000000
    9       -0.959974   1.000000
   10        0.183166   1.000000
   11        0.533061   1.000000
   12        1.186301   1.000000
   13        2.033444   1.000000
   14        3.157618   1.000000
   15        3.469628   1.000000
   16        4.296046   1.000000
   17        4.612233   1.000000
   18        5.131596   1.000000
   19        5.401536   1.000000
   20        5.682674   1.000000
   21        5.852531   1.000000
   22        6.013328   1.000000
   23        6.308539   1.000000
   24        6.479515   1.000000
   25        6.761005   1.000000
   26        7.294804   1.000000
   27        7.460964   1.000000
   28        8.473352   1.000000
   29        9.747022   1.000000
   30       10.679226   1.000000
   31       10.931456   0.995242
   32       13.370870   0.000000
   33       14.351886   0.000000
   34       14.603657   0.000000
   35       14.925190   0.000000
   36       15.210935   0.000000
   37       15.481876   0.000000
   38       15.908236   0.000000
   39       16.007896   0.000000
   40       16.136431   0.000000
 
  0.4285714E+00  0.3806941E-15  0.5882353E-01  0.1440576E-01
    1       -9.403296   1.000000
    2       -9.108487   1.000000
    3       -8.636138   1.000000
    4       -8.101043   1.000000
    5       -7.503533   1.000000
    6       -6.978056   1.000000
    7       -2.268586   1.000000
    8       -1.285509   1.000000
    9       -0.719971   1.000000
   10       -0.027037   1.000000
   11        0.575455   1.000000
   12        1.024232   1.000000
   13        2.647250   1.000000
   14        3.031700   1.000000
   15        3.230488   1.000000
   16        3.931798   1.000000
   17        4.885471   1.000000
   18        5.304943   1.000000
   19        5.522117   1.000000
   20        5.591324   1.000000
   21        5.869085   1.000000
   22        6.177530   1.000000
   23        6.313581   1.000000
   24        6.510941   1.000000
   25        6.829972   1.000000
   26        6.905431   1.000000
   27        7.271497   1.000000
   28        8.825657   1.000000
   29        9.505446   1.000000
   30       10.828860   0.999839
   31       11.541766   0.000001
   32       12.420456   0.000000
   33       14.175877   0.000000
   34       14.718127   0.000000
   35       14.936994   0.000000
   36       15.094917   0.000000
   37       15.469612   0.000000
   38       15.874359   0.000000
   39       16.036554   0.000000
   40       16.247298   0.000000
 
  0.1428571E+00  0.1428571E+00  0.5882353E-01  0.1440576E-01
    1       -9.637200   1.000000
    2       -8.676580   1.000000
    3       -8.653242   1.000000
    4       -8.010006   1.000000
    5       -7.662823   1.000000
    6       -7.187015   1.000000
    7       -1.940067   1.000000
    8       -1.270315   1.000000
    9       -1.016349   1.000000
   10        0.097271   1.000000
   11        0.563666   1.000000
   12        1.366397   1.000000
   13        1.824861   1.000000
   14        3.135314   1.000000
   15        3.629178   1.000000
   16        4.329825   1.000000
   17        4.513778   1.000000
   18        5.093856   1.000000
   19        5.380476   1.000000
   20        5.749909   1.000000
   21        5.782946   1.000000
   22        5.953701   1.000000
   23        6.311939   1.000000
   24        6.459955   1.000000
   25        6.733369   1.000000
   26        7.417874   1.000000
   27        7.567528   1.000000
   28        8.379261   1.000000
   29        9.803298   1.000000
   30       10.646064   1.000000
   31       10.759244   0.999997
   32       13.710464   0.000000
   33       14.219804   0.000000
   34       14.607747   0.000000
   35       14.980614   0.000000
   36       15.179080   0.000000
   37       15.524438   0.000000
   38       15.967048   0.000000
   39       16.012750   0.000000
   40       16.109465   0.000000
 
  0.2857143E+00  0.1428571E+00  0.5882353E-01  0.1440576E-01
    1       -9.476444   1.000000
    2       -8.945279   1.000000
    3       -8.748100   1.000000
    4       -7.991730   1.000000
    5       -7.586766   1.000000
    6       -6.998699   1.000000
    7       -2.244677   1.000000
    8       -1.185497   1.000000
    9       -0.784026   1.000000
   10       -0.016180   1.000000
   11        0.292263   1.000000
   12        1.476327   1.000000
   13        2.248872   1.000000
   14        2.902566   1.000000
   15        3.651462   1.000000
   16        4.039759   1.000000
   17        4.582456   1.000000
   18        5.290785   1.000000
   19        5.519649   1.000000
   20        5.644755   1.000000
   21        5.813633   1.000000
   22        6.139572   1.000000
   23        6.345080   1.000000
   24        6.481767   1.000000
   25        6.827440   1.000000
   26        7.152934   1.000000
   27        7.208022   1.000000
   28        8.708193   1.000000
   29        9.597183   1.000000
   30       10.898185   0.997491
   31       11.199168   0.023296
   32       12.840628   0.000000
   33       13.870513   0.000000
   34       14.681931   0.000000
   35       14.976461   0.000000
   36       15.233491   0.000000
   37       15.402596   0.000000
   38       16.003216   0.000000
   39       16.096226   0.000000
   40       16.376951   0.000000
 
  0.4285714E+00  0.1428571E+00  0.5882353E-01  0.1440576E-01
    1       -9.294719   1.000000
    2       -9.177019   1.000000
    3       -8.777742   1.000000
    4       -7.982474   1.000000
    5       -7.550988   1.000000
    6       -6.927912   1.000000
    7       -2.360076   1.000000
    8       -1.133463   1.000000
    9       -0.607483   1.000000
   10       -0.182742   1.000000
   11        0.153916   1.000000
   12        1.522921   1.000000
   13        2.672572   1.000000
   14        2.800513   1.000000
   15        3.407406   1.000000
   16        3.890489   1.000000
   17        4.732276   1.000000
   18        5.361262   1.000000
   19        5.540090   1.000000
   20        5.664679   1.000000
   21        5.820879   1.000000
   22        6.193458   1.000000
   23        6.309749   1.000000
   24        6.489884   1.000000
   25        6.870602   1.000000
   26        6.916328   1.000000
   27        7.219814   1.000000
   28        8.960704   1.000000
   29        9.405689   1.000000
   30       10.957209   0.996302
   31       11.745301   0.000000
   32       12.110913   0.000000
   33       13.780993   0.000000
   34       14.780102   0.000000
   35       14.947078   0.000000
   36       15.074620   0.000000
   37       15.465875   0.000000
   38       16.032530   0.000000
   39       16.143276   0.000000
   40       16.402592   0.000000
 
 -0.4285714E+00  0.1428571E+00  0.5882353E-01  0.1440576E-01
    1       -9.476456   1.000000
    2       -8.945326   1.000000
    3       -8.748046   1.000000
    4       -7.991682   1.000000
    5       -7.586825   1.000000
    6       -6.998716   1.000000
    7       -2.244758   1.000000
    8       -1.182214   1.000000
    9       -0.791997   1.000000
   10       -0.001207   1.000000
   11        0.282812   1.000000
   12        1.471958   1.000000
   13        2.239553   1.000000
   14        2.941030   1.000000
   15        3.654996   1.000000
   16        3.963780   1.000000
   17        4.628000   1.000000
   18        5.299740   1.000000
   19        5.509575   1.000000
   20        5.697384   1.000000
   21        5.778387   1.000000
   22        6.153697   1.000000
   23        6.329255   1.000000
   24        6.481093   1.000000
   25        6.826607   1.000000
   26        7.021465   1.000000
   27        7.328669   1.000000
   28        8.712147   1.000000
   29        9.594321   1.000000
   30       10.860353   0.999324
   31       11.248046  -0.048358
   32       12.798388   0.000000
   33       13.916270   0.000000
   34       14.690009   0.000000
   35       14.993582   0.000000
   36       15.170922   0.000000
   37       15.423855   0.000000
   38       15.996356   0.000000
   39       16.167284   0.000000
   40       16.229293   0.000000
 
  0.2857143E+00  0.2857143E+00  0.5882353E-01  0.1440576E-01
    1       -9.287840   1.000000
    2       -9.050866   1.000000
    3       -8.974086   1.000000
    4       -7.832887   1.000000
    5       -7.655956   1.000000
    6       -6.900880   1.000000
    7       -2.413090   1.000000
    8       -0.900692   1.000000
    9       -0.552320   1.000000
   10       -0.361281   1.000000
   11       -0.107987   1.000000
   12        2.071893   1.000000
   13        2.336608   1.000000
   14        2.665767   1.000000
   15        3.561798   1.000000
   16        4.063414   1.000000
   17        4.440574   1.000000
   18        5.380814   1.000000
   19        5.596720   1.000000
   20        5.664355   1.000000
   21        5.751683   1.000000
   22        6.199244   1.000000
   23        6.357107   1.000000
   24        6.443448   1.000000
   25        6.883959   1.000000
   26        7.053969   1.000000
   27        7.137259   1.000000
   28        9.019955   1.000000
   29        9.366057   1.000000
   30       11.127864   0.643699
   31       11.574418   0.000000
   32       12.182561   0.000000
   33       13.478417   0.000000
   34       14.801078   0.000000
   35       14.948919   0.000000
   36       15.018378   0.000000
   37       15.435486   0.000000
   38       16.129693   0.000000
   39       16.332008   0.000000
   40       16.394614   0.000000
 
  0.3742002E-15  0.3742002E-15  0.1176471E+00  0.2400960E-02
    1       -9.612378   1.000000
    2       -8.335125   1.000000
    3       -8.335125   1.000000
    4       -7.677178   1.000000
    5       -7.677178   1.000000
    6       -7.530131   1.000000
    7       -1.197957   1.000000
    8       -1.197957   1.000000
    9       -1.039141   1.000000
   10       -0.241986   1.000000
   11        0.985339   1.000000
   12        1.591002   1.000000
   13        1.591002   1.000000
   14        3.564488   1.000000
   15        3.564489   1.000000
   16        4.580030   1.000000
   17        4.615414   1.000000
   18        4.728033   1.000000
   19        4.728034   1.000000
   20        5.140126   1.000000
   21        5.233324   1.000000
   22        5.233324   1.000000
   23        5.795141   1.000000
   24        5.795141   1.000000
   25        5.998494   1.000000
   26        8.029883   1.000000
   27        8.029883   1.000000
   28        8.371035   1.000000
   29        9.737637   1.000000
   30       10.494475   1.000000
   31       10.494475   1.000000
   32       13.892574   0.000000
   33       13.939899   0.000000
   34       13.939899   0.000000
   35       14.549585   0.000000
   36       15.038209   0.000000
   37       15.038210   0.000000
   38       15.787933   0.000000
   39       15.787934   0.000000
   40       16.305158   0.000000
 
  0.1428571E+00  0.3815968E-15  0.1176471E+00  0.1440576E-01
    1       -9.570667   1.000000
    2       -8.430799   1.000000
    3       -8.376767   1.000000
    4       -7.849736   1.000000
    5       -7.613405   1.000000
    6       -7.289873   1.000000
    7       -1.475898   1.000000
    8       -1.188663   1.000000
    9       -0.974978   1.000000
   10        0.034501   1.000000
   11        0.860388   1.000000
   12        1.490317   1.000000
   13        1.710031   1.000000
   14        3.471842   1.000000
   15        3.569856   1.000000
   16        4.452085   1.000000
   17        4.570917   1.000000
   18        4.704499   1.000000
   19        4.853950   1.000000
   20        5.173568   1.000000
   21        5.254578   1.000000
   22        5.445139   1.000000
   23        5.682161   1.000000
   24        5.837926   1.000000
   25        6.186502   1.000000
   26        7.821343   1.000000
   27        7.870427   1.000000
   28        8.452688   1.000000
   29        9.708461   1.000000
   30       10.595284   1.000000
   31       10.650122   1.000000
   32       13.864183   0.000000
   33       13.945430   0.000000
   34       14.026928   0.000000
   35       14.563557   0.000000
   36       14.642783   0.000000
   37       14.863895   0.000000
   38       15.708257   0.000000
   39       15.854080   0.000000
   40       16.370688   0.000000
 
  0.2857143E+00  0.3747105E-15  0.1176471E+00  0.1440576E-01
    1       -9.448291   1.000000
    2       -8.681882   1.000000
    3       -8.452141   1.000000
    4       -7.949129   1.000000
    5       -7.486714   1.000000
    6       -7.032202   1.000000
    7       -1.871524   1.000000
    8       -1.167215   1.000000
    9       -0.794151   1.000000
   10        0.313204   1.000000
   11        0.632184   1.000000
   12        1.275574   1.000000
   13        2.092793   1.000000
   14        3.292754   1.000000
   15        3.493420   1.000000
   16        4.213987   1.000000
   17        4.443977   1.000000
   18        4.923404   1.000000
   19        4.973512   1.000000
   20        5.081214   1.000000
   21        5.393608   1.000000
   22        5.593255   1.000000
   23        5.837626   1.000000
   24        5.919821   1.000000
   25        6.473633   1.000000
   26        7.373696   1.000000
   27        7.524823   1.000000
   28        8.675556   1.000000
   29        9.606292   1.000000
   30       10.758423   0.999997
   31       11.051907   1.050244
   32       13.518295   0.000000
   33       13.849541   0.000000
   34       13.965186   0.000000
   35       14.240176   0.000000
   36       14.538454   0.000000
   37       14.909741   0.000000
   38       15.584527   0.000000
   39       15.961164   0.000000
   40       16.432177   0.000000
 
  0.4285714E+00  0.3806941E-15  0.1176471E+00  0.1440576E-01
    1       -9.257571   1.000000
    2       -8.966817   1.000000
    3       -8.501415   1.000000
    4       -7.979157   1.000000
    5       -7.393896   1.000000
    6       -6.884295   1.000000
    7       -2.106845   1.000000
    8       -1.148279   1.000000
    9       -0.560369   1.000000
   10        0.118581   1.000000
   11        0.675861   1.000000
   12        1.113250   1.000000
   13        2.673351   1.000000
   14        3.166210   1.000000
   15        3.252067   1.000000
   16        3.899507   1.000000
   17        4.447579   1.000000
   18        4.875457   1.000000
   19        5.004206   1.000000
   20        5.280817   1.000000
   21        5.582496   1.000000