Automatically generated mesh
      81
Reciprocal lattice
    0.00000000000000    0.00000000000000    0.00000000000000             1
    0.14285714285714    0.00000000000000    0.00000000000000             6
    0.28571428571429    0.00000000000000    0.00000000000000             6
    0.42857142857143    0.00000000000000    0.00000000000000             6
    0.14285714285714    0.14285714285714    0.00000000000000             6
    0.28571428571429    0.14285714285714    0.00000000000000             6
    0.42857142857143    0.14285714285714    0.00000000000000             6
   -0.42857142857143    0.14285714285714    0.00000000000000             6
    0.28571428571429    0.28571428571429    0.00000000000000             6
    0.00000000000000    0.00000000000000    0.05882352941176             2
    0.14285714285714    0.00000000000000    0.05882352941176            12
    0.28571428571429    0.00000000000000    0.05882352941176            12
    0.42857142857143    0.00000000000000    0.05882352941176            12
    0.14285714285714    0.14285714285714    0.05882352941176            12
    0.28571428571429    0.14285714285714    0.05882352941176            12
    0.42857142857143    0.14285714285714    0.05882352941176            12
   -0.42857142857143    0.14285714285714    0.05882352941176            12
    0.28571428571429    0.28571428571429    0.05882352941176            12
    0.00000000000000    0.00000000000000    0.11764705882353             2
    0.14285714285714    0.00000000000000    0.11764705882353            12
    0.28571428571429    0.00000000000000    0.11764705882353            12
    0.42857142857143    0.00000000000000    0.11764705882353            12
    0.14285714285714    0.14285714285714    0.11764705882353            12
    0.28571428571429    0.14285714285714    0.11764705882353            12
    0.42857142857143    0.14285714285714    0.11764705882353            12
   -0.42857142857143    0.14285714285714    0.11764705882353            12
    0.28571428571429    0.28571428571429    0.11764705882353            12
    0.00000000000000    0.00000000000000    0.17647058823529             2
    0.14285714285714    0.00000000000000    0.17647058823529            12
    0.28571428571429    0.00000000000000    0.17647058823529            12
    0.42857142857143    0.00000000000000    0.17647058823529            12
    0.14285714285714    0.14285714285714    0.17647058823529            12
    0.28571428571429    0.14285714285714    0.17647058823529            12
    0.42857142857143    0.14285714285714    0.17647058823529            12
   -0.42857142857143    0.14285714285714    0.17647058823529            12
    0.28571428571429    0.28571428571429    0.17647058823529            12
    0.00000000000000    0.00000000000000    0.23529411764706             2
    0.14285714285714    0.00000000000000    0.23529411764706            12
    0.28571428571429    0.00000000000000    0.23529411764706            12
    0.42857142857143    0.00000000000000    0.23529411764706            12
    0.14285714285714    0.14285714285714    0.23529411764706            12
    0.28571428571429    0.14285714285714    0.23529411764706            12
    0.42857142857143    0.14285714285714    0.23529411764706            12
   -0.42857142857143    0.14285714285714    0.23529411764706            12
    0.28571428571429    0.28571428571429    0.23529411764706            12
    0.00000000000000    0.00000000000000    0.29411764705882             2
    0.14285714285714    0.00000000000000    0.29411764705882            12
    0.28571428571429    0.00000000000000    0.29411764705882            12
    0.42857142857143    0.00000000000000    0.29411764705882            12
    0.14285714285714    0.14285714285714    0.29411764705882            12
    0.28571428571429    0.14285714285714    0.29411764705882            12
    0.42857142857143    0.14285714285714    0.29411764705882            12
   -0.42857142857143    0.14285714285714    0.29411764705882            12
    0.28571428571429    0.28571428571429    0.29411764705882            12
    0.00000000000000    0.00000000000000    0.35294117647059             2
    0.14285714285714    0.00000000000000    0.35294117647059            12
    0.28571428571429    0.00000000000000    0.35294117647059            12
    0.42857142857143    0.00000000000000    0.35294117647059            12
    0.14285714285714    0.14285714285714    0.35294117647059            12
    0.28571428571429    0.14285714285714    0.35294117647059            12
    0.42857142857143    0.14285714285714    0.35294117647059            12
   -0.42857142857143    0.14285714285714    0.35294117647059            12
    0.28571428571429    0.28571428571429    0.35294117647059            12
    0.00000000000000    0.00000000000000    0.41176470588235             2
    0.14285714285714    0.00000000000000    0.41176470588235            12
    0.28571428571429    0.00000000000000    0.41176470588235            12
    0.42857142857143    0.00000000000000    0.41176470588235            12
    0.14285714285714    0.14285714285714    0.41176470588235            12
    0.28571428571429    0.14285714285714    0.41176470588235            12
    0.42857142857143    0.14285714285714    0.41176470588235            12
   -0.42857142857143    0.14285714285714    0.41176470588235            12
    0.28571428571429    0.28571428571429    0.41176470588235            12
    0.00000000000000    0.00000000000000    0.47058823529412             2
    0.14285714285714    0.00000000000000    0.47058823529412            12
    0.28571428571429    0.00000000000000    0.47058823529412            12
    0.42857142857143    0.00000000000000    0.47058823529412            12
    0.14285714285714    0.14285714285714    0.47058823529412            12
    0.28571428571429    0.14285714285714    0.47058823529412            12
    0.42857142857143    0.14285714285714    0.47058823529412            12
   -0.42857142857143    0.14285714285714    0.47058823529412            12
    0.28571428571429    0.28571428571429    0.47058823529412            12
