 running on   16 total cores
 distrk:  each k-point on   16 cores,    1 groups
 distr:  one band on    4 cores,    4 groups
 using from now: INCAR     
 vasp.5.4.4.18Apr17-6-g9f103f2a35 (build Nov 01 2019 12:17:22) complex          
  
 POSCAR found type information on POSCAR  Si N 
 POSCAR found :  2 types and      14 ions
 WARNING: type information on POSCAR and POTCAR are incompatible
 POTCAR overwrites the type information in POSCAR
 typ   1 type information:  Si N 
 WARNING: type information on POSCAR and POTCAR are incompatible
 POTCAR overwrites the type information in POSCAR
 typ   2 type information:  N  Si
 LDA part: xc-table for Pade appr. of Perdew
 generate k-points for:    7    7   17
 POSCAR, INCAR and KPOINTS ok, starting setup
 FFT: planning ...
 WAVECAR not read
 entering main loop
       N       E                     dE             d eps       ncg     rms          rms(c)
DAV:   1     0.232479478691E+03    0.23248E+03   -0.26044E+04  6520   0.116E+03
DAV:   2    -0.839293479553E+02   -0.31641E+03   -0.30308E+03  8208   0.250E+02
DAV:   3    -0.104010973668E+03   -0.20082E+02   -0.19733E+02  8048   0.666E+01
DAV:   4    -0.104447089939E+03   -0.43612E+00   -0.43454E+00  8296   0.101E+01
DAV:   5    -0.104456194430E+03   -0.91045E-02   -0.90998E-02  8200   0.141E+00    0.261E+01
RMM:   6    -0.946556770732E+02    0.98005E+01   -0.43829E+01  6480   0.242E+01    0.121E+01
RMM:   7    -0.942015895442E+02    0.45409E+00   -0.16993E+00  6521   0.459E+00    0.654E+00
RMM:   8    -0.940892736248E+02    0.11232E+00   -0.67732E-01  6499   0.269E+00    0.788E-01
RMM:   9    -0.940875548174E+02    0.17188E-02   -0.11773E-01  6513   0.128E+00    0.536E-01
RMM:  10    -0.940855341918E+02    0.20206E-02   -0.10984E-02  6488   0.447E-01    0.170E-01
RMM:  11    -0.940867091783E+02   -0.11750E-02   -0.60098E-03  6495   0.297E-01    0.120E-01
RMM:  12    -0.940863726562E+02    0.33652E-03   -0.96399E-04  6435   0.125E-01    0.329E-02
RMM:  13    -0.940864007736E+02   -0.28117E-04   -0.17562E-04  4038   0.552E-02
   1 F= -.94086401E+02 E0= -.94086297E+02  d E =-.940864E+02
 curvature:   0.00 expect dE= 0.000E+00 dE for cont linesearch  0.000E+00
 trial: gam= 0.00000 g(F)=  0.134E+00 g(S)=  0.000E+00 ort = 0.000E+00 (trialstep = 0.100E+01)
 search vector abs. value=  0.134E+00
 bond charge predicted
       N       E                     dE             d eps       ncg     rms          rms(c)
DAV:   1    -0.940884029353E+02   -0.20303E-02   -0.13207E+01  7056   0.203E+01    0.923E-01
RMM:   2    -0.940964182658E+02   -0.80153E-02   -0.23925E-01  6484   0.229E+00    0.492E-01
RMM:   3    -0.940925887110E+02    0.38296E-02   -0.21477E-02  6561   0.592E-01    0.317E-01
RMM:   4    -0.940920288426E+02    0.55987E-03   -0.43109E-03  6593   0.260E-01    0.135E-01
RMM:   5    -0.940920589958E+02   -0.30153E-04   -0.23708E-04  4184   0.667E-02
   2 F= -.94092059E+02 E0= -.94092046E+02  d E =-.565822E-02
 trial-energy change:   -0.005658  1 .order   -0.005921   -0.134449    0.122607
 step:   0.5230(harm=  0.5230)  dis= 0.01222  next Energy=   -94.121562 (dE=-0.352E-01)
 bond charge predicted
       N       E                     dE             d eps       ncg     rms          rms(c)
DAV:   1    -0.941207076951E+02   -0.28679E-01   -0.30110E+00  7184   0.969E+00    0.418E-01
RMM:   2    -0.941226772402E+02   -0.19695E-02   -0.53913E-02  6480   0.110E+00    0.230E-01
RMM:   3    -0.941216015346E+02    0.10757E-02   -0.54137E-03  6545   0.298E-01    0.124E-01
RMM:   4    -0.941215081325E+02    0.93402E-04   -0.91655E-04  6327   0.119E-01
   3 F= -.94121508E+02 E0= -.94121412E+02  d E =-.351074E-01
 curvature:  -0.26 expect dE=-0.309E-02 dE for cont linesearch -0.607E-06
 trial: gam= 0.09195 g(F)=  0.118E-01 g(S)=  0.000E+00 ort =-0.559E-03 (trialstep = 0.905E+00)
 search vector abs. value=  0.128E-01
 bond charge predicted
       N       E                     dE             d eps       ncg     rms          rms(c)
DAV:   1    -0.941251788193E+02   -0.35773E-02   -0.11283E+00  7200   0.583E+00    0.253E-01
RMM:   2    -0.941265067004E+02   -0.13279E-02   -0.22538E-02  6483   0.692E-01    0.127E-01
RMM:   3    -0.941262251716E+02    0.28153E-03   -0.13054E-03  6578   0.150E-01    0.771E-02
RMM:   4    -0.941261592636E+02    0.65908E-04   -0.26956E-04  4054   0.728E-02
   4 F= -.94126159E+02 E0= -.94126029E+02  d E =-.465113E-02
 trial-energy change:   -0.004651  1 .order   -0.004738   -0.010632    0.001155
 step:   0.8160(harm=  0.8160)  dis= 0.00584  next Energy=   -94.126303 (dE=-0.479E-02)
 bond charge predicted
       N       E                     dE             d eps       ncg     rms          rms(c)
DAV:   1    -0.941262291161E+02   -0.39444E-05   -0.11121E-02  7776   0.580E-01    0.257E-02
RMM:   2    -0.941262393523E+02   -0.10236E-04   -0.20769E-04  3944   0.688E-02
   5 F= -.94126239E+02 E0= -.94126113E+02  d E =-.473122E-02
 curvature:  -0.45 expect dE=-0.288E-02 dE for cont linesearch -0.166E-05
 trial: gam= 0.56057 g(F)=  0.646E-02 g(S)=  0.000E+00 ort =-0.218E-03 (trialstep = 0.887E+00)
 search vector abs. value=  0.102E-01
 bond charge predicted
       N       E                     dE             d eps       ncg     rms          rms(c)
DAV:   1    -0.941283572843E+02   -0.21282E-02   -0.10958E+00  6672   0.575E+00    0.292E-01
RMM:   2    -0.941298551231E+02   -0.14978E-02   -0.21483E-02  6482   0.707E-01    0.982E-02
RMM:   3    -0.941296714841E+02    0.18364E-03   -0.10276E-03  6442   0.135E-01    0.629E-02
RMM:   4    -0.941296188713E+02    0.52613E-04   -0.20367E-04  3967   0.644E-02
   6 F= -.94129619E+02 E0= -.94129466E+02  d E =-.337952E-02
 trial-energy change:   -0.003380  1 .order   -0.003481   -0.005620   -0.001342
 step:   1.1649(harm=  1.1649)  dis= 0.00848  next Energy=   -94.129931 (dE=-0.369E-02)
 bond charge predicted
       N       E                     dE             d eps       ncg     rms          rms(c)
DAV:   1    -0.941296440402E+02    0.27444E-04   -0.10659E-01  7384   0.179E+00    0.881E-02
RMM:   2    -0.941297893805E+02   -0.14534E-03   -0.20858E-03  6480   0.220E-01    0.340E-02
RMM:   3    -0.941297710972E+02    0.18283E-04   -0.79568E-05  3761   0.419E-02
   7 F= -.94129771E+02 E0= -.94129608E+02  d E =-.353174E-02
 curvature:  -0.94 expect dE=-0.591E-04 dE for cont linesearch -0.108E-05
 trial: gam=-0.01719 g(F)=  0.628E-04 g(S)=  0.000E+00 ort =-0.109E-03 (trialstep = 0.942E+00)
 search vector abs. value=  0.695E-04
 reached required accuracy - stopping structural energy minimisation
