 vasp.5.4.4.18Apr17-6-g9f103f2a35 (build Nov 01 2019 12:17:22) complex          
  
 executed on             LinuxIFC date 2023.05.19  18:18:46
 running on   16 total cores
 distrk:  each k-point on   16 cores,    1 groups
 distr:  one band on NCORES_PER_BAND=   4 cores,    4 groups


--------------------------------------------------------------------------------------------------------


 INCAR:
 POTCAR:    PAW_PBE N 08Apr2002                   
 POTCAR:    PAW_PBE Si 05Jan2001                  
 POTCAR:    PAW_PBE N 08Apr2002                   
   VRHFIN =N: s2p3                                                              
   LEXCH  = PE                                                                  
   EATOM  =   264.5486 eV,   19.4438 Ry                                         
                                                                                
   TITEL  = PAW_PBE N 08Apr2002                                                 
   LULTRA =        F    use ultrasoft PP ?                                      
   IUNSCR =        1    unscreen: 0-lin 1-nonlin 2-no                           
   RPACOR =    1.200    partial core radius                                     
   POMASS =   14.001; ZVAL   =    5.000    mass and valenz                      
   RCORE  =    1.500    outmost cutoff radius                                   
   RWIGS  =    1.400; RWIGS  =    0.741    wigner-seitz radius (au A)           
   ENMAX  =  400.000; ENMIN  =  300.000 eV                                      
   ICORE  =        2    local potential                                         
   LCOR   =        T    correct aug charges                                     
   LPAW   =        T    paw PP                                                  
   EAUG   =  627.112                                                            
   DEXC   =    0.000                                                            
   RMAX   =    1.529    core radius for proj-oper                               
   RAUG   =    1.300    factor for augmentation sphere                          
   RDEP   =    1.514    radius for radial grids                                 
   RDEPT  =    1.338    core radius for aug-charge                              
                                                                                
   Atomic configuration                                                         
    4 entries                                                                   
     n  l   j            E        occ.                                          
     1  0  0.50      -384.7179   2.0000                                         
     2  0  0.50       -18.5828   2.0000                                         
     2  1  0.50        -7.0898   3.0000                                         
     3  2  1.50        -6.8029   0.0000                                         
   Description                                                                  
     l       E           TYP  RCUT    TYP  RCUT                                 
     0    -18.5828119     23  1.200                                             
     0    -13.5018863     23  1.200                                             
     1     -7.0897853     23  1.500                                             
     1      9.5240782     23  1.500                                             
     2     -6.8029130      7  1.500                                             
  local pseudopotential read in
  partial core-charges read in
  partial kinetic energy density read in
  atomic valenz-charges read in
  non local Contribution for L=           0  read in
    real space projection operators read in
  non local Contribution for L=           0  read in
    real space projection operators read in
  non local Contribution for L=           1  read in
    real space projection operators read in
  non local Contribution for L=           1  read in
    real space projection operators read in
    PAW grid and wavefunctions read in
 
   number of l-projection  operators is LMAX  =           4
   number of lm-projection operators is LMMAX =           8
 
 POTCAR:    PAW_PBE Si 05Jan2001                  
   VRHFIN =Si: s2p2                                                             
   LEXCH  = PE                                                                  
   EATOM  =   103.0669 eV,    7.5752 Ry                                         
                                                                                
   TITEL  = PAW_PBE Si 05Jan2001                                                
   LULTRA =        F    use ultrasoft PP ?                                      
   IUNSCR =        1    unscreen: 0-lin 1-nonlin 2-no                           
   RPACOR =    1.500    partial core radius                                     
   POMASS =   28.085; ZVAL   =    4.000    mass and valenz                      
   RCORE  =    1.900    outmost cutoff radius                                   
   RWIGS  =    2.480; RWIGS  =    1.312    wigner-seitz radius (au A)           
   ENMAX  =  245.345; ENMIN  =  184.009 eV                                      
   ICORE  =        2    local potential                                         
   LCOR   =        T    correct aug charges                                     
   LPAW   =        T    paw PP                                                  
   EAUG   =  322.069                                                            
   DEXC   =    0.000                                                            
   RMAX   =    1.950    core radius for proj-oper                               
   RAUG   =    1.300    factor for augmentation sphere                          
   RDEP   =    1.993    radius for radial grids                                 
   RDEPT  =    1.837    core radius for aug-charge                              
                                                                                
   Atomic configuration                                                         
    6 entries                                                                   
     n  l   j            E        occ.                                          
     1  0  0.50     -1785.8828   2.0000                                         
     2  0  0.50      -139.4969   2.0000                                         
     2  1  1.50       -95.5546   6.0000                                         
     3  0  0.50       -10.8127   2.0000                                         
     3  1  0.50        -4.0811   2.0000                                         
     3  2  1.50        -4.0817   0.0000                                         
   Description                                                                  
     l       E           TYP  RCUT    TYP  RCUT                                 
     0    -10.8127223     23  1.900                                             
     0     -7.6451159     23  1.900                                             
     1     -4.0811372     23  1.900                                             
     1      2.4879257     23  1.900                                             
     2     -4.0817478      7  1.900                                             
  local pseudopotential read in
  partial core-charges read in
  partial kinetic energy density read in
  atomic valenz-charges read in
  non local Contribution for L=           0  read in
    real space projection operators read in
  non local Contribution for L=           0  read in
    real space projection operators read in
  non local Contribution for L=           1  read in
    real space projection operators read in
  non local Contribution for L=           1  read in
    real space projection operators read in
    PAW grid and wavefunctions read in
 
   number of l-projection  operators is LMAX  =           4
   number of lm-projection operators is LMMAX =           8
 
 Optimization of the real space projectors (new method)

 maximal supplied QI-value         = 25.13
 optimisation between [QCUT,QGAM] = [ 10.05, 20.36] = [ 28.30,116.06] Ry 
 Optimized for a Real-space Cutoff    1.70 Angstroem

   l    n(q)    QCUT    max X(q) W(low)/X(q) W(high)/X(q)  e(spline) 
   0     10    10.053    79.467    0.61E-04    0.98E-04    0.61E-06
   0     10    10.053    66.151    0.60E-04    0.98E-04    0.61E-06
   1     10    10.053     8.350    0.17E-03    0.71E-03    0.45E-05
   1     10    10.053     5.531    0.18E-03    0.77E-03    0.49E-05
 Optimization of the real space projectors (new method)

 maximal supplied QI-value         = 19.84
 optimisation between [QCUT,QGAM] = [ 10.12, 20.44] = [ 28.68,116.96] Ry 
 Optimized for a Real-space Cutoff    1.38 Angstroem

   l    n(q)    QCUT    max X(q) W(low)/X(q) W(high)/X(q)  e(spline) 
   0      8    10.119   159.560    0.58E-04    0.11E-03    0.54E-07
   0      8    10.119   115.863    0.56E-04    0.11E-03    0.54E-07
   1      8    10.119    88.339    0.22E-03    0.17E-03    0.19E-06
   1      8    10.119    48.592    0.22E-03    0.17E-03    0.18E-06
  PAW_PBE N 08Apr2002                   :
 energy of atom  1       EATOM= -264.5486
 kinetic energy error for atom=    0.0736 (will be added to EATOM!!)
  PAW_PBE Si 05Jan2001                  :
 energy of atom  2       EATOM= -103.0669
 kinetic energy error for atom=    0.0012 (will be added to EATOM!!)
 
 
 POSCAR: Si6 N8                                  
  positions in direct lattice
  No initial velocities read in
 exchange correlation table for  LEXCH =        8
   RHO(1)=    0.500       N(1)  =     2000
   RHO(2)=  100.500       N(2)  =     4000
 


--------------------------------------------------------------------------------------------------------


 ion  position               nearest neighbor table
   1  0.197  0.832  0.750-   9 1.75  10 1.76  10 1.76   7 2.02
   2  0.366  0.197  0.250-  10 1.75  12 1.76  12 1.76   8 2.02
   3  0.832  0.634  0.250-  11 1.75   9 1.76   9 1.76   8 2.02
   4  0.168  0.366  0.750-  12 1.75  13 1.76  13 1.76   7 2.02
   5  0.634  0.803  0.750-  14 1.75  11 1.76  11 1.76   7 2.02
   6  0.803  0.168  0.250-  13 1.75  14 1.76  14 1.76   8 2.02
   7  0.333  0.667  0.750-   5 2.02   4 2.02   1 2.02  11 2.61  11 2.61  13 2.61  13 2.61  10 2.61
                            10 2.61  12 2.67  14 2.67   9 2.67
   8  0.667  0.333  0.250-   2 2.02   3 2.02   6 2.02  12 2.61  12 2.61   9 2.61   9 2.61  14 2.61
                            14 2.61  11 2.67  10 2.67  13 2.67
   9  0.964  0.612  0.750-   1 1.75   3 1.76   3 1.76  13 2.48  13 2.48   8 2.61   8 2.61   7 2.67

  10  0.351  0.964  0.250-   2 1.75   1 1.76   1 1.76  14 2.48  14 2.48   7 2.61   7 2.61   8 2.67

  11  0.612  0.649  0.250-   3 1.75   5 1.76   5 1.76  12 2.48  12 2.48   7 2.61   7 2.61   8 2.67

  12  0.388  0.351  0.750-   4 1.75   2 1.76   2 1.76  11 2.48  11 2.48   8 2.61   8 2.61   7 2.67

  13  0.036  0.388  0.250-   6 1.75   4 1.76   4 1.76   9 2.48   9 2.48   7 2.61   7 2.61   8 2.67

  14  0.649  0.036  0.750-   5 1.75   6 1.76   6 1.76  10 2.48  10 2.48   8 2.61   8 2.61   7 2.67

 
  LATTYP: Found a hexagonal cell.
 ALAT       =     7.7231939879
 C/A-ratio  =     0.3517300815
  
  Lattice vectors:
  
 A1 = (   3.8615969990,  -6.6884821890,   0.0000000000)
 A2 = (   3.8615969889,   6.6884821948,   0.0000000000)
 A3 = (   0.0000000000,   0.0000000000,   2.7164796504)


Analysis of symmetry for initial positions (statically):
=====================================================================
 Subroutine PRICEL returns:
 Original cell was already a primitive cell.
 

 Routine SETGRP: Setting up the symmetry group for a 
 hexagonal supercell.


 Subroutine GETGRP returns: Found 12 space group operations
 (whereof  6 operations were pure point group operations)
 out of a pool of 24 trial point group operations.


The static configuration has the point symmetry S_6 .
 The point group associated with its full space group is C_6h.


Analysis of symmetry for dynamics (positions and initial velocities):
=====================================================================
 Subroutine PRICEL returns:
 Original cell was already a primitive cell.
 

 Routine SETGRP: Setting up the symmetry group for a 
 hexagonal supercell.


 Subroutine GETGRP returns: Found 12 space group operations
 (whereof  6 operations were pure point group operations)
 out of a pool of 24 trial point group operations.


The dynamic configuration has the point symmetry S_6 .
 The point group associated with its full space group is C_6h.


 Subroutine INISYM returns: Found 12 space group operations
 (whereof  6 operations are pure point group operations),
 and found     1 'primitive' translations

 
 
 KPOINTS: Automatic mesh                          

Automatic generation of k-mesh.
 generate k-points for:    7    7   17
Space group operators:
 irot       det(A)        alpha          n_x          n_y          n_z        tau_x        tau_y        tau_z
    1     1.000000     0.000000     1.000000     0.000000     0.000000     0.000000     0.000000     0.000000
    2    -1.000000     0.000000     1.000000     0.000000     0.000000     0.000000     0.000000     0.000000
    3     1.000000   120.000000     0.000000     0.000000    -1.000000     0.000000     0.000000     0.000000
    4    -1.000000   120.000000     0.000000     0.000000    -1.000000     0.000000     0.000000     0.000000
    5     1.000000   120.000000     0.000000     0.000000     1.000000     0.000000     0.000000     0.000000
    6    -1.000000   120.000000     0.000000     0.000000     1.000000     0.000000     0.000000     0.000000
    7     1.000000    60.000000     0.000000     0.000000    -1.000000     0.000000     0.000000     0.500000
    8    -1.000000    60.000000     0.000000     0.000000    -1.000000     0.000000     0.000000     0.500000
    9     1.000000   180.000000     0.000000     0.000000     1.000000     0.000000    -0.000000     0.500000
   10    -1.000000   180.000000     0.000000     0.000000     1.000000     0.000000     0.000000     0.500000
   11     1.000000    60.000000     0.000000     0.000000     1.000000     0.000000     0.000000     0.500000
   12    -1.000000    60.000000     0.000000     0.000000     1.000000     0.000000     0.000000     0.500000
 
 Subroutine IBZKPT returns following result:
 ===========================================
 
 Found     81 irreducible k-points:
 
 Following reciprocal coordinates:
            Coordinates               Weight
  0.000000  0.000000  0.000000      1.000000
  0.142857  0.000000  0.000000      6.000000
  0.285714  0.000000  0.000000      6.000000
  0.428571  0.000000  0.000000      6.000000
  0.142857  0.142857  0.000000      6.000000
  0.285714  0.142857  0.000000      6.000000
  0.428571  0.142857  0.000000      6.000000
 -0.428571  0.142857  0.000000      6.000000
  0.285714  0.285714  0.000000      6.000000
  0.000000  0.000000  0.058824      2.000000
  0.142857  0.000000  0.058824     12.000000
  0.285714  0.000000  0.058824     12.000000
  0.428571  0.000000  0.058824     12.000000
  0.142857  0.142857  0.058824     12.000000
  0.285714  0.142857  0.058824     12.000000
  0.428571  0.142857  0.058824     12.000000
 -0.428571  0.142857  0.058824     12.000000
  0.285714  0.285714  0.058824     12.000000
  0.000000  0.000000  0.117647      2.000000
  0.142857  0.000000  0.117647     12.000000
  0.285714  0.000000  0.117647     12.000000
  0.428571  0.000000  0.117647     12.000000
  0.142857  0.142857  0.117647     12.000000
  0.285714  0.142857  0.117647     12.000000
  0.428571  0.142857  0.117647     12.000000
 -0.428571  0.142857  0.117647     12.000000
  0.285714  0.285714  0.117647     12.000000
  0.000000  0.000000  0.176471      2.000000
  0.142857  0.000000  0.176471     12.000000
  0.285714  0.000000  0.176471     12.000000
  0.428571  0.000000  0.176471     12.000000
  0.142857  0.142857  0.176471     12.000000
  0.285714  0.142857  0.176471     12.000000
  0.428571  0.142857  0.176471     12.000000
 -0.428571  0.142857  0.176471     12.000000
  0.285714  0.285714  0.176471     12.000000
  0.000000  0.000000  0.235294      2.000000
  0.142857  0.000000  0.235294     12.000000
  0.285714  0.000000  0.235294     12.000000
  0.428571  0.000000  0.235294     12.000000
  0.142857  0.142857  0.235294     12.000000
  0.285714  0.142857  0.235294     12.000000
  0.428571  0.142857  0.235294     12.000000
 -0.428571  0.142857  0.235294     12.000000
  0.285714  0.285714  0.235294     12.000000
  0.000000  0.000000  0.294118      2.000000
  0.142857  0.000000  0.294118     12.000000
  0.285714  0.000000  0.294118     12.000000
  0.428571  0.000000  0.294118     12.000000
  0.142857  0.142857  0.294118     12.000000
  0.285714  0.142857  0.294118     12.000000
  0.428571  0.142857  0.294118     12.000000
 -0.428571  0.142857  0.294118     12.000000
  0.285714  0.285714  0.294118     12.000000
  0.000000  0.000000  0.352941      2.000000
  0.142857  0.000000  0.352941     12.000000
  0.285714  0.000000  0.352941     12.000000
  0.428571  0.000000  0.352941     12.000000
  0.142857  0.142857  0.352941     12.000000
  0.285714  0.142857  0.352941     12.000000
  0.428571  0.142857  0.352941     12.000000
 -0.428571  0.142857  0.352941     12.000000
  0.285714  0.285714  0.352941     12.000000
  0.000000  0.000000  0.411765      2.000000
  0.142857  0.000000  0.411765     12.000000
  0.285714  0.000000  0.411765     12.000000
  0.428571  0.000000  0.411765     12.000000
  0.142857  0.142857  0.411765     12.000000
  0.285714  0.142857  0.411765     12.000000
  0.428571  0.142857  0.411765     12.000000
 -0.428571  0.142857  0.411765     12.000000
  0.285714  0.285714  0.411765     12.000000
  0.000000  0.000000  0.470588      2.000000
  0.142857  0.000000  0.470588     12.000000
  0.285714  0.000000  0.470588     12.000000
  0.428571  0.000000  0.470588     12.000000
  0.142857  0.142857  0.470588     12.000000
  0.285714  0.142857  0.470588     12.000000
  0.428571  0.142857  0.470588     12.000000
 -0.428571  0.142857  0.470588     12.000000
  0.285714  0.285714  0.470588     12.000000
 
 Following cartesian coordinates:
            Coordinates               Weight
  0.000000  0.000000  0.000000      1.000000
  0.018497 -0.010679  0.000000      6.000000
  0.036994 -0.021359  0.000000      6.000000
  0.055491 -0.032038  0.000000      6.000000
  0.036994  0.000000  0.000000      6.000000
  0.055491 -0.010679  0.000000      6.000000
  0.073989 -0.021359  0.000000      6.000000
 -0.036994  0.042717  0.000000      6.000000
  0.073989  0.000000  0.000000      6.000000
  0.000000  0.000000  0.021654      2.000000
  0.018497 -0.010679  0.021654     12.000000
  0.036994 -0.021359  0.021654     12.000000
  0.055491 -0.032038  0.021654     12.000000
  0.036994  0.000000  0.021654     12.000000
  0.055491 -0.010679  0.021654     12.000000
  0.073989 -0.021359  0.021654     12.000000
 -0.036994  0.042717  0.021654     12.000000
  0.073989  0.000000  0.021654     12.000000
  0.000000  0.000000  0.043309      2.000000
  0.018497 -0.010679  0.043309     12.000000
  0.036994 -0.021359  0.043309     12.000000
  0.055491 -0.032038  0.043309     12.000000
  0.036994  0.000000  0.043309     12.000000
  0.055491 -0.010679  0.043309     12.000000
  0.073989 -0.021359  0.043309     12.000000
 -0.036994  0.042717  0.043309     12.000000
  0.073989  0.000000  0.043309     12.000000
  0.000000  0.000000  0.064963      2.000000
  0.018497 -0.010679  0.064963     12.000000
  0.036994 -0.021359  0.064963     12.000000
  0.055491 -0.032038  0.064963     12.000000
  0.036994  0.000000  0.064963     12.000000
  0.055491 -0.010679  0.064963     12.000000
  0.073989 -0.021359  0.064963     12.000000
 -0.036994  0.042717  0.064963     12.000000
  0.073989  0.000000  0.064963     12.000000
  0.000000  0.000000  0.086617      2.000000
  0.018497 -0.010679  0.086617     12.000000
  0.036994 -0.021359  0.086617     12.000000
  0.055491 -0.032038  0.086617     12.000000
  0.036994  0.000000  0.086617     12.000000
  0.055491 -0.010679  0.086617     12.000000
  0.073989 -0.021359  0.086617     12.000000
 -0.036994  0.042717  0.086617     12.000000
  0.073989  0.000000  0.086617     12.000000
  0.000000  0.000000  0.108272      2.000000
  0.018497 -0.010679  0.108272     12.000000
  0.036994 -0.021359  0.108272     12.000000
  0.055491 -0.032038  0.108272     12.000000
  0.036994  0.000000  0.108272     12.000000
  0.055491 -0.010679  0.108272     12.000000
  0.073989 -0.021359  0.108272     12.000000
 -0.036994  0.042717  0.108272     12.000000
  0.073989  0.000000  0.108272     12.000000
  0.000000  0.000000  0.129926      2.000000
  0.018497 -0.010679  0.129926     12.000000
  0.036994 -0.021359  0.129926     12.000000
  0.055491 -0.032038  0.129926     12.000000
  0.036994  0.000000  0.129926     12.000000
  0.055491 -0.010679  0.129926     12.000000
  0.073989 -0.021359  0.129926     12.000000
 -0.036994  0.042717  0.129926     12.000000
  0.073989  0.000000  0.129926     12.000000
  0.000000  0.000000  0.151580      2.000000
  0.018497 -0.010679  0.151580     12.000000
  0.036994 -0.021359  0.151580     12.000000
  0.055491 -0.032038  0.151580     12.000000
  0.036994  0.000000  0.151580     12.000000
  0.055491 -0.010679  0.151580     12.000000
  0.073989 -0.021359  0.151580     12.000000
 -0.036994  0.042717  0.151580     12.000000
  0.073989  0.000000  0.151580     12.000000
  0.000000  0.000000  0.173235      2.000000
  0.018497 -0.010679  0.173235     12.000000
  0.036994 -0.021359  0.173235     12.000000
  0.055491 -0.032038  0.173235     12.000000
  0.036994  0.000000  0.173235     12.000000
  0.055491 -0.010679  0.173235     12.000000
  0.073989 -0.021359  0.173235     12.000000
 -0.036994  0.042717  0.173235     12.000000
  0.073989  0.000000  0.173235     12.000000
 


--------------------------------------------------------------------------------------------------------




 Dimension of arrays:
   k-points           NKPTS =     81   k-points in BZ     NKDIM =     81   number of bands    NBANDS=     40
   number of dos      NEDOS =    301   number of ions     NIONS =     14
   non local maximal  LDIM  =      4   non local SUM 2l+1 LMDIM =      8
   total plane-waves  NPLWV =  45000
   max r-space proj   IRMAX =   6624   max aug-charges    IRDMAX=  10920
   dimension x,y,z NGX =    50 NGY =   50 NGZ =   18
   dimension x,y,z NGXF=   100 NGYF=  100 NGZF=   36
   support grid    NGXF=   100 NGYF=  100 NGZF=   36
   ions per type =               6   8
   NGX,Y,Z   is equivalent  to a cutoff of  10.76, 10.76, 11.02 a.u.
   NGXF,Y,Z  is equivalent  to a cutoff of  21.53, 21.53, 22.03 a.u.

 SYSTEM =  unknown system                          
 POSCAR =  Si6 N8                                  

 Startparameter for this run:
   NWRITE =      2    write-flag & timer
   PREC   = accura    normal or accurate (medium, high low for compatibility)
   ISTART =      0    job   : 0-new  1-cont  2-samecut
   ICHARG =      2    charge: 1-file 2-atom 10-const
   ISPIN  =      1    spin polarized calculation?
   LNONCOLLINEAR =      F non collinear calculations
   LSORBIT =      F    spin-orbit coupling
   INIWAV =      1    electr: 0-lowe 1-rand  2-diag
   LASPH  =      F    aspherical Exc in radial PAW
   METAGGA=      F    non-selfconsistent MetaGGA calc.

 Electronic Relaxation 1
   ENCUT  =  400.0 eV  29.40 Ry    5.42 a.u.  12.59 12.59  4.43*2*pi/ulx,y,z
   ENINI  =  400.0     initial cutoff
   ENAUG  =  627.1 eV  augmentation charge cutoff
   NELM   =     60;   NELMIN=  2; NELMDL= -5     # of ELM steps 
   EDIFF  = 0.1E-03   stopping-criterion for ELM
   LREAL  =      T    real-space projection
   NLSPLINE    = F    spline interpolate recip. space projectors
   LCOMPAT=      F    compatible to vasp.4.4
   GGA_COMPAT  = T    GGA compatible to vasp.4.4-vasp.4.6
   LMAXPAW     = -100 max onsite density
   LMAXMIX     =    2 max onsite mixed and CHGCAR
   VOSKOWN=      0    Vosko Wilk Nusair interpolation
   ROPT   =   -0.00025  -0.00025
 Ionic relaxation
   EDIFFG = 0.1E-02   stopping-criterion for IOM
   NSW    =    100    number of steps for IOM
   NBLOCK =      1;   KBLOCK =    100    inner block; outer block 
   IBRION =      2    ionic relax: 0-MD 1-quasi-New 2-CG
   NFREE  =      1    steps in history (QN), initial steepest desc. (CG)
   ISIF   =      2    stress and relaxation
   IWAVPR =     11    prediction:  0-non 1-charg 2-wave 3-comb
   ISYM   =      2    0-nonsym 1-usesym 2-fastsym
   LCORR  =      T    Harris-Foulkes like correction to forces

   POTIM  = 0.5000    time-step for ionic-motion
   TEIN   =    0.0    initial temperature
   TEBEG  =    0.0;   TEEND  =   0.0 temperature during run
   SMASS  =  -3.00    Nose mass-parameter (am)
   estimated Nose-frequenzy (Omega)   =  0.10E-29 period in steps =****** mass=  -0.136E-26a.u.
   SCALEE = 1.0000    scale energy and forces
   NPACO  =    256;   APACO  = 16.0  distance and # of slots for P.C.
   PSTRESS=    0.0 pullay stress

  Mass of Ions in am
   POMASS =  14.00 28.09
  Ionic Valenz
   ZVAL   =   5.00  4.00
  Atomic Wigner-Seitz radii
   RWIGS  =  -1.00 -1.00
  virtual crystal weights 
   VCA    =   1.00  1.00
   NELECT =      62.0000    total number of electrons
   NUPDOWN=      -1.0000    fix difference up-down

 DOS related values:
   EMIN   =  10.00;   EMAX   =-10.00  energy-range for DOS
   EFERMI =   0.00
   ISMEAR =     2;   SIGMA  =   0.10  broadening in eV -4-tet -1-fermi 0-gaus

 Electronic relaxation 2 (details)
   IALGO  =     68    algorithm
   LDIAG  =      T    sub-space diagonalisation (order eigenvalues)
   LSUBROT=      F    optimize rotation matrix (better conditioning)
   TURBO    =      0    0=normal 1=particle mesh
   IRESTART =      0    0=no restart 2=restart with 2 vectors
   NREBOOT  =      0    no. of reboots
   NMIN     =      0    reboot dimension
   EREF     =   0.00    reference energy to select bands
   IMIX   =      4    mixing-type and parameters
     AMIX     =   0.40;   BMIX     =  1.00
     AMIX_MAG =   1.60;   BMIX_MAG =  1.00
     AMIN     =   0.10
     WC   =   100.;   INIMIX=   1;  MIXPRE=   1;  MAXMIX= -45

 Intra band minimization:
   WEIMIN = 0.0010     energy-eigenvalue tresh-hold
   EBREAK =  0.63E-06  absolut break condition
   DEPER  =   0.30     relativ break condition  

   TIME   =   0.40     timestep for ELM

  volume/ion in A,a.u.               =      10.02        67.64
  Fermi-wavevector in a.u.,A,eV,Ry     =   1.246891  2.356282 21.153475  1.554737
  Thomas-Fermi vector in A             =   2.381048
 
 Write flags
   LWAVE        =      F    write WAVECAR
   LDOWNSAMPLE  =      F    k-point downsampling of WAVECAR
   LCHARG       =      F    write CHGCAR
   LVTOT        =      F    write LOCPOT, total local potential
   LVHAR        =      F    write LOCPOT, Hartree potential only
   LELF         =      F    write electronic localiz. function (ELF)
   LORBIT       =      0    0 simple, 1 ext, 2 COOP (PROOUT), +10 PAW based schemes


 Dipole corrections
   LMONO  =      F    monopole corrections only (constant potential shift)
   LDIPOL =      F    correct potential (dipole corrections)
   IDIPOL =      0    1-x, 2-y, 3-z, 4-all directions 
   EPSILON=  1.0000000 bulk dielectric constant

 Exchange correlation treatment:
   GGA     =    --    GGA type
   LEXCH   =     8    internal setting for exchange type
   VOSKOWN=      0    Vosko Wilk Nusair interpolation
   LHFCALC =     F    Hartree Fock is set to
   LHFONE  =     F    Hartree Fock one center treatment
   AEXX    =    0.0000 exact exchange contribution

 Linear response parameters
   LEPSILON=     F    determine dielectric tensor
   LRPA    =     F    only Hartree local field effects (RPA)
   LNABLA  =     F    use nabla operator in PAW spheres
   LVEL    =     F    velocity operator in full k-point grid
   LINTERFAST=   F  fast interpolation
   KINTER  =     0    interpolate to denser k-point grid
   CSHIFT  =0.1000    complex shift for real part using Kramers Kronig
   OMEGAMAX=  -1.0    maximum frequency
   DEG_THRESHOLD= 0.2000000E-02 threshold for treating states as degnerate
   RTIME   =   -0.100 relaxation time in fs
  (WPLASMAI=    0.000 imaginary part of plasma frequency in eV, 0.658/RTIME)
   DFIELD  = 0.0000000 0.0000000 0.0000000 field for delta impulse in time
 
 Orbital magnetization related:
   ORBITALMAG=     F  switch on orbital magnetization
   LCHIMAG   =     F  perturbation theory with respect to B field
   DQ        =  0.001000  dq finite difference perturbation B field
   LLRAUG    =     F  two centre corrections for induced B field



--------------------------------------------------------------------------------------------------------


 conjugate gradient relaxation of ions
 charge density and potential will be updated during run
 non-spin polarized calculation
 RMM-DIIS sequential band-by-band and
  variant of blocked Davidson during initial phase
 perform sub-space diagonalisation
    before iterative eigenvector-optimisation
 modified Broyden-mixing scheme, WC =      100.0
 initial mixing is a Kerker type mixing with AMIX =  0.4000 and BMIX =      1.0000
 Hartree-type preconditioning will be used
 using additional bands            9
 real space projection scheme for non local part
 use partial core corrections
 calculate Harris-corrections to forces 
   (improved forces if not selfconsistent)
 use gradient corrections 
 use of overlap-Matrix (Vanderbilt PP)
 Methfessel and Paxton  Order N= 2 SIGMA  =   0.10


--------------------------------------------------------------------------------------------------------


  energy-cutoff  :      400.00
  volume of cell :      140.32
      direct lattice vectors                 reciprocal lattice vectors
     3.861596999 -6.688482189  0.000000000     0.129480109 -0.074755376  0.000000000
     3.861596989  6.688482195  0.000000000     0.129480109  0.074755376  0.000000000
     0.000000000  0.000000000  2.716479650     0.000000000  0.000000000  0.368123501

  length of vectors
     7.723193988  7.723193988  2.716479650     0.149510752  0.149510752  0.368123501


 
 k-points in units of 2pi/SCALE and weight: Automatic mesh                          
   0.00000000  0.00000000  0.00000000       0.001
   0.01849716 -0.01067934  0.00000000       0.007
   0.03699432 -0.02135868  0.00000000       0.007
   0.05549148 -0.03203802  0.00000000       0.007
   0.03699432  0.00000000  0.00000000       0.007
   0.05549148 -0.01067934  0.00000000       0.007
   0.07398863 -0.02135868  0.00000000       0.007
  -0.03699432  0.04271736  0.00000000       0.007
   0.07398863  0.00000000  0.00000000       0.007
   0.00000000  0.00000000  0.02165432       0.002
   0.01849716 -0.01067934  0.02165432       0.014
   0.03699432 -0.02135868  0.02165432       0.014
   0.05549148 -0.03203802  0.02165432       0.014
   0.03699432  0.00000000  0.02165432       0.014
   0.05549148 -0.01067934  0.02165432       0.014
   0.07398863 -0.02135868  0.02165432       0.014
  -0.03699432  0.04271736  0.02165432       0.014
   0.07398863  0.00000000  0.02165432       0.014
   0.00000000  0.00000000  0.04330865       0.002
   0.01849716 -0.01067934  0.04330865       0.014
   0.03699432 -0.02135868  0.04330865       0.014
   0.05549148 -0.03203802  0.04330865       0.014
   0.03699432  0.00000000  0.04330865       0.014
   0.05549148 -0.01067934  0.04330865       0.014
   0.07398863 -0.02135868  0.04330865       0.014
  -0.03699432  0.04271736  0.04330865       0.014
   0.07398863  0.00000000  0.04330865       0.014
   0.00000000  0.00000000  0.06496297       0.002
   0.01849716 -0.01067934  0.06496297       0.014
   0.03699432 -0.02135868  0.06496297       0.014
   0.05549148 -0.03203802  0.06496297       0.014
   0.03699432  0.00000000  0.06496297       0.014
   0.05549148 -0.01067934  0.06496297       0.014
   0.07398863 -0.02135868  0.06496297       0.014
  -0.03699432  0.04271736  0.06496297       0.014
   0.07398863  0.00000000  0.06496297       0.014
   0.00000000  0.00000000  0.08661729       0.002
   0.01849716 -0.01067934  0.08661729       0.014
   0.03699432 -0.02135868  0.08661729       0.014
   0.05549148 -0.03203802  0.08661729       0.014
   0.03699432  0.00000000  0.08661729       0.014
   0.05549148 -0.01067934  0.08661729       0.014
   0.07398863 -0.02135868  0.08661729       0.014
  -0.03699432  0.04271736  0.08661729       0.014
   0.07398863  0.00000000  0.08661729       0.014
   0.00000000  0.00000000  0.10827162       0.002
   0.01849716 -0.01067934  0.10827162       0.014
   0.03699432 -0.02135868  0.10827162       0.014
   0.05549148 -0.03203802  0.10827162       0.014
   0.03699432  0.00000000  0.10827162       0.014
   0.05549148 -0.01067934  0.10827162       0.014
   0.07398863 -0.02135868  0.10827162       0.014
  -0.03699432  0.04271736  0.10827162       0.014
   0.07398863  0.00000000  0.10827162       0.014
   0.00000000  0.00000000  0.12992594       0.002
   0.01849716 -0.01067934  0.12992594       0.014
   0.03699432 -0.02135868  0.12992594       0.014
   0.05549148 -0.03203802  0.12992594       0.014
   0.03699432  0.00000000  0.12992594       0.014
   0.05549148 -0.01067934  0.12992594       0.014
   0.07398863 -0.02135868  0.12992594       0.014
  -0.03699432  0.04271736  0.12992594       0.014
   0.07398863  0.00000000  0.12992594       0.014
   0.00000000  0.00000000  0.15158027       0.002
   0.01849716 -0.01067934  0.15158027       0.014
   0.03699432 -0.02135868  0.15158027       0.014
   0.05549148 -0.03203802  0.15158027       0.014
   0.03699432  0.00000000  0.15158027       0.014
   0.05549148 -0.01067934  0.15158027       0.014
   0.07398863 -0.02135868  0.15158027       0.014
  -0.03699432  0.04271736  0.15158027       0.014
   0.07398863  0.00000000  0.15158027       0.014
   0.00000000  0.00000000  0.17323459       0.002
   0.01849716 -0.01067934  0.17323459       0.014
   0.03699432 -0.02135868  0.17323459       0.014
   0.05549148 -0.03203802  0.17323459       0.014
   0.03699432  0.00000000  0.17323459       0.014
   0.05549148 -0.01067934  0.17323459       0.014
   0.07398863 -0.02135868  0.17323459       0.014
  -0.03699432  0.04271736  0.17323459       0.014
   0.07398863  0.00000000  0.17323459       0.014
 
 k-points in reciprocal lattice and weights: Automatic mesh                          
   0.00000000  0.00000000  0.00000000       0.001
   0.14285714  0.00000000  0.00000000       0.007
   0.28571429  0.00000000  0.00000000       0.007
   0.42857143  0.00000000  0.00000000       0.007
   0.14285714  0.14285714  0.00000000       0.007
   0.28571429  0.14285714  0.00000000       0.007
   0.42857143  0.14285714  0.00000000       0.007
  -0.42857143  0.14285714  0.00000000       0.007
   0.28571429  0.28571429  0.00000000       0.007
   0.00000000  0.00000000  0.05882353       0.002
   0.14285714  0.00000000  0.05882353       0.014
   0.28571429  0.00000000  0.05882353       0.014
   0.42857143  0.00000000  0.05882353       0.014
   0.14285714  0.14285714  0.05882353       0.014
   0.28571429  0.14285714  0.05882353       0.014
   0.42857143  0.14285714  0.05882353       0.014
  -0.42857143  0.14285714  0.05882353       0.014
   0.28571429  0.28571429  0.05882353       0.014
   0.00000000  0.00000000  0.11764706       0.002
   0.14285714  0.00000000  0.11764706       0.014
   0.28571429  0.00000000  0.11764706       0.014
   0.42857143  0.00000000  0.11764706       0.014
   0.14285714  0.14285714  0.11764706       0.014
   0.28571429  0.14285714  0.11764706       0.014
   0.42857143  0.14285714  0.11764706       0.014
  -0.42857143  0.14285714  0.11764706       0.014
   0.28571429  0.28571429  0.11764706       0.014
   0.00000000  0.00000000  0.17647059       0.002
   0.14285714  0.00000000  0.17647059       0.014
   0.28571429  0.00000000  0.17647059       0.014
   0.42857143  0.00000000  0.17647059       0.014
   0.14285714  0.14285714  0.17647059       0.014
   0.28571429  0.14285714  0.17647059       0.014
   0.42857143  0.14285714  0.17647059       0.014
  -0.42857143  0.14285714  0.17647059       0.014
   0.28571429  0.28571429  0.17647059       0.014
   0.00000000  0.00000000  0.23529412       0.002
   0.14285714  0.00000000  0.23529412       0.014
   0.28571429  0.00000000  0.23529412       0.014
   0.42857143  0.00000000  0.23529412       0.014
   0.14285714  0.14285714  0.23529412       0.014
   0.28571429  0.14285714  0.23529412       0.014
   0.42857143  0.14285714  0.23529412       0.014
  -0.42857143  0.14285714  0.23529412       0.014
   0.28571429  0.28571429  0.23529412       0.014
   0.00000000  0.00000000  0.29411765       0.002
   0.14285714  0.00000000  0.29411765       0.014
   0.28571429  0.00000000  0.29411765       0.014
   0.42857143  0.00000000  0.29411765       0.014
   0.14285714  0.14285714  0.29411765       0.014
   0.28571429  0.14285714  0.29411765       0.014
   0.42857143  0.14285714  0.29411765       0.014
  -0.42857143  0.14285714  0.29411765       0.014
   0.28571429  0.28571429  0.29411765       0.014
   0.00000000  0.00000000  0.35294118       0.002
   0.14285714  0.00000000  0.35294118       0.014
   0.28571429  0.00000000  0.35294118       0.014
   0.42857143  0.00000000  0.35294118       0.014
   0.14285714  0.14285714  0.35294118       0.014
   0.28571429  0.14285714  0.35294118       0.014
   0.42857143  0.14285714  0.35294118       0.014
  -0.42857143  0.14285714  0.35294118       0.014
   0.28571429  0.28571429  0.35294118       0.014
   0.00000000  0.00000000  0.41176471       0.002
   0.14285714  0.00000000  0.41176471       0.014
   0.28571429  0.00000000  0.41176471       0.014
   0.42857143  0.00000000  0.41176471       0.014
   0.14285714  0.14285714  0.41176471       0.014
   0.28571429  0.14285714  0.41176471       0.014
   0.42857143  0.14285714  0.41176471       0.014
  -0.42857143  0.14285714  0.41176471       0.014
   0.28571429  0.28571429  0.41176471       0.014
   0.00000000  0.00000000  0.47058824       0.002
   0.14285714  0.00000000  0.47058824       0.014
   0.28571429  0.00000000  0.47058824       0.014
   0.42857143  0.00000000  0.47058824       0.014
   0.14285714  0.14285714  0.47058824       0.014
   0.28571429  0.14285714  0.47058824       0.014
   0.42857143  0.14285714  0.47058824       0.014
  -0.42857143  0.14285714  0.47058824       0.014
   0.28571429  0.28571429  0.47058824       0.014
 
 position of ions in fractional coordinates (direct lattice) 
   0.19708959  0.83151770  0.75000000
   0.36557189  0.19708959  0.25000000
   0.83151770  0.63442811  0.25000000
   0.16848230  0.36557189  0.75000000
   0.63442811  0.80291041  0.75000000
   0.80291041  0.16848230  0.25000000
   0.33333333  0.66666667  0.75000000
   0.66666667  0.33333333  0.25000000
   0.96358754  0.61246345  0.75000000
   0.35112409  0.96358754  0.25000000
   0.61246345  0.64887591  0.25000000
   0.38753655  0.35112409  0.75000000
   0.03641246  0.38753655  0.25000000
   0.64887591  0.03641246  0.75000000
 
 position of ions in cartesian coordinates  (Angst):
   3.97206684  4.24336112  2.03735974
   2.17277189 -1.12689084  0.67911991
   5.66089194 -1.31823023  0.67911991
   2.06230204  1.31823023  2.03735974
   5.55042210  1.12689085  2.03735974
   3.75112715 -4.24336111  0.67911991
   3.86159699  2.22949407  2.03735974
   3.86159700 -2.22949406  0.67911991
   6.08607377 -2.34848723  2.03735974
   5.07688648  4.09645088  0.67911991
   4.87078428  0.24354409  0.67911991
   2.85240971 -0.24354408  2.03735974
   1.63712022  2.34848723  0.67911991
   2.64630750 -4.09645088  2.03735974
 


--------------------------------------------------------------------------------------------------------


 k-point  1 :   0.0000 0.0000 0.0000  plane waves:    2625
 k-point  2 :   0.1429 0.0000 0.0000  plane waves:    2588
 k-point  3 :   0.2857 0.0000 0.0000  plane waves:    2566
 k-point  4 :   0.4286 0.0000 0.0000  plane waves:    2550
 k-point  5 :   0.1429 0.1429 0.0000  plane waves:    2571
 k-point  6 :   0.2857 0.1429 0.0000  plane waves:    2560
 k-point  7 :   0.4286 0.1429 0.0000  plane waves:    2560
 k-point  8 :  -0.4286 0.1429 0.0000  plane waves:    2560
 k-point  9 :   0.2857 0.2857 0.0000  plane waves:    2549
 k-point 10 :   0.0000 0.0000 0.0588  plane waves:    2595
 k-point 11 :   0.1429 0.0000 0.0588  plane waves:    2570
 k-point 12 :   0.2857 0.0000 0.0588  plane waves:    2568
 k-point 13 :   0.4286 0.0000 0.0588  plane waves:    2562
 k-point 14 :   0.1429 0.1429 0.0588  plane waves:    2573
 k-point 15 :   0.2857 0.1429 0.0588  plane waves:    2563
 k-point 16 :   0.4286 0.1429 0.0588  plane waves:    2556
 k-point 17 :  -0.4286 0.1429 0.0588  plane waves:    2563
 k-point 18 :   0.2857 0.2857 0.0588  plane waves:    2558
 k-point 19 :   0.0000 0.0000 0.1176  plane waves:    2583
 k-point 20 :   0.1429 0.0000 0.1176  plane waves:    2562
 k-point 21 :   0.2857 0.0000 0.1176  plane waves:    2571
 k-point 22 :   0.4286 0.0000 0.1176  plane waves:    2551
 k-point 23 :   0.1429 0.1429 0.1176  plane waves:    2563
 k-point 24 :   0.2857 0.1429 0.1176  plane waves:    2565
 k-point 25 :   0.4286 0.1429 0.1176  plane waves:    2558
 k-point 26 :  -0.4286 0.1429 0.1176  plane waves:    2565
 k-point 27 :   0.2857 0.2857 0.1176  plane waves:    2557
 k-point 28 :   0.0000 0.0000 0.1765  plane waves:    2553
 k-point 29 :   0.1429 0.0000 0.1765  plane waves:    2557
 k-point 30 :   0.2857 0.0000 0.1765  plane waves:    2564
 k-point 31 :   0.4286 0.0000 0.1765  plane waves:    2557
 k-point 32 :   0.1429 0.1429 0.1765  plane waves:    2557
 k-point 33 :   0.2857 0.1429 0.1765  plane waves:    2562
 k-point 34 :   0.4286 0.1429 0.1765  plane waves:    2557
 k-point 35 :  -0.4286 0.1429 0.1765  plane waves:    2562
 k-point 36 :   0.2857 0.2857 0.1765  plane waves:    2541
 k-point 37 :   0.0000 0.0000 0.2353  plane waves:    2541
 k-point 38 :   0.1429 0.0000 0.2353  plane waves:    2551
 k-point 39 :   0.2857 0.0000 0.2353  plane waves:    2562
 k-point 40 :   0.4286 0.0000 0.2353  plane waves:    2557
 k-point 41 :   0.1429 0.1429 0.2353  plane waves:    2549
 k-point 42 :   0.2857 0.1429 0.2353  plane waves:    2552
 k-point 43 :   0.4286 0.1429 0.2353  plane waves:    2557
 k-point 44 :  -0.4286 0.1429 0.2353  plane waves:    2552
 k-point 45 :   0.2857 0.2857 0.2353  plane waves:    2548
 k-point 46 :   0.0000 0.0000 0.2941  plane waves:    2535
 k-point 47 :   0.1429 0.0000 0.2941  plane waves:    2546
 k-point 48 :   0.2857 0.0000 0.2941  plane waves:    2553
 k-point 49 :   0.4286 0.0000 0.2941  plane waves:    2549
 k-point 50 :   0.1429 0.1429 0.2941  plane waves:    2549
 k-point 51 :   0.2857 0.1429 0.2941  plane waves:    2550
 k-point 52 :   0.4286 0.1429 0.2941  plane waves:    2538
 k-point 53 :  -0.4286 0.1429 0.2941  plane waves:    2550
 k-point 54 :   0.2857 0.2857 0.2941  plane waves:    2545
 k-point 55 :   0.0000 0.0000 0.3529  plane waves:    2541
 k-point 56 :   0.1429 0.0000 0.3529  plane waves:    2543
 k-point 57 :   0.2857 0.0000 0.3529  plane waves:    2537
 k-point 58 :   0.4286 0.0000 0.3529  plane waves:    2540
 k-point 59 :   0.1429 0.1429 0.3529  plane waves:    2542
 k-point 60 :   0.2857 0.1429 0.3529  plane waves:    2532
 k-point 61 :   0.4286 0.1429 0.3529  plane waves:    2548
 k-point 62 :  -0.4286 0.1429 0.3529  plane waves:    2532
 k-point 63 :   0.2857 0.2857 0.3529  plane waves:    2540
 k-point 64 :   0.0000 0.0000 0.4118  plane waves:    2517
 k-point 65 :   0.1429 0.0000 0.4118  plane waves:    2538
 k-point 66 :   0.2857 0.0000 0.4118  plane waves:    2538
 k-point 67 :   0.4286 0.0000 0.4118  plane waves:    2532
 k-point 68 :   0.1429 0.1429 0.4118  plane waves:    2533
 k-point 69 :   0.2857 0.1429 0.4118  plane waves:    2530
 k-point 70 :   0.4286 0.1429 0.4118  plane waves:    2523
 k-point 71 :  -0.4286 0.1429 0.4118  plane waves:    2530
 k-point 72 :   0.2857 0.2857 0.4118  plane waves:    2528
 k-point 73 :   0.0000 0.0000 0.4706  plane waves:    2546
 k-point 74 :   0.1429 0.0000 0.4706  plane waves:    2522
 k-point 75 :   0.2857 0.0000 0.4706  plane waves:    2528
 k-point 76 :   0.4286 0.0000 0.4706  plane waves:    2522
 k-point 77 :   0.1429 0.1429 0.4706  plane waves:    2527
 k-point 78 :   0.2857 0.1429 0.4706  plane waves:    2535
 k-point 79 :   0.4286 0.1429 0.4706  plane waves:    2522
 k-point 80 :  -0.4286 0.1429 0.4706  plane waves:    2535
 k-point 81 :   0.2857 0.2857 0.4706  plane waves:    2532

 maximum and minimum number of plane-waves per node :       668      619

 maximum number of plane-waves:      2625
 maximum index in each direction: 
   IXMAX=   13   IYMAX=   12   IZMAX=    4
   IXMIN=  -13   IYMIN=  -12   IZMIN=   -4


 real space projection operators:
  total allocation   :       4110.75 KBytes
  max/ min on nodes  :       1068.75        986.75


 parallel 3D FFT for wavefunctions:
    minimum data exchange during FFTs selected (reduces bandwidth)
 parallel 3D FFT for charge:
    minimum data exchange during FFTs selected (reduces bandwidth)


 total amount of memory used by VASP MPI-rank0    45024. kBytes
=======================================================================

   base      :      30000. kBytes
   nonlr-proj:       2879. kBytes
   fftplans  :       1220. kBytes
   grid      :       1945. kBytes
   one-center:         12. kBytes
   wavefun   :       8968. kBytes
 
     INWAV:  cpu time    0.0000: real time    0.0000
 Broyden mixing: mesh for mixing (old mesh)
   NGX = 25   NGY = 25   NGZ =  9
  (NGX  =100   NGY  =100   NGZ  = 36)
  gives a total of   5625 points

 initial charge density was supplied:
 charge density of overlapping atoms calculated
 number of electron      62.0000000 magnetization 
 keeping initial charge density in first step


--------------------------------------------------------------------------------------------------------


 Maximum index for non-local projection operator         1704
 Maximum index for augmentation-charges         1039 (set IRDMAX)


--------------------------------------------------------------------------------------------------------


 First call to EWALD:  gamma=   0.341
 Maximum number of real-space cells 2x 2x 5
 Maximum number of reciprocal cells 4x 4x 2

    FEWALD:  cpu time    0.0017: real time    0.0017


--------------------------------------- Iteration      1(   1)  ---------------------------------------


    POTLOK:  cpu time    0.0205: real time    0.1488
    SETDIJ:  cpu time    0.0025: real time    0.0027
     EDDAV:  cpu time    2.4402: real time    2.4401
       DOS:  cpu time    0.0030: real time    0.0030
    --------------------------------------------
      LOOP:  cpu time    2.4663: real time    2.5946

 eigenvalue-minimisations  :  6520
 total energy-change (2. order) : 0.2324795E+03  (-0.2604422E+04)
 number of electron      62.0000000 magnetization 
 augmentation part       62.0000000 magnetization 

 Free energy of the ion-electron system (eV)
  ---------------------------------------------------
  alpha Z        PSCENC =        86.87435279
  Ewald energy   TEWEN  =     -2315.57241999
  -Hartree energ DENC   =      -495.08593646
  -exchange      EXHF   =         0.00000000
  -V(xc)+E(xc)   XCENC  =        56.66915925
  PAW double counting   =      1934.58678659    -1800.98643654
  entropy T*S    EENTRO =        -0.00078029
  eigenvalues    EBANDS =       354.61876904
  atomic energy  EATOM  =      2411.37598431
  Solvation  Ediel_sol  =         0.00000000
  ---------------------------------------------------
  free energy    TOTEN  =       232.47947869 eV

  energy without entropy =      232.48025898  energy(sigma->0) =      232.47967376


--------------------------------------------------------------------------------------------------------




--------------------------------------- Iteration      1(   2)  ---------------------------------------


     EDDAV:  cpu time    3.5346: real time    3.5374
       DOS:  cpu time    0.0031: real time    0.0031
    --------------------------------------------
      LOOP:  cpu time    3.5377: real time    3.5405

 eigenvalue-minimisations  :  8208
 total energy-change (2. order) :-0.3164088E+03  (-0.3030773E+03)
 number of electron      62.0000000 magnetization 
 augmentation part       62.0000000 magnetization 

 Free energy of the ion-electron system (eV)
  ---------------------------------------------------
  alpha Z        PSCENC =        86.87435279
  Ewald energy   TEWEN  =     -2315.57241999
  -Hartree energ DENC   =      -495.08593646
  -exchange      EXHF   =         0.00000000
  -V(xc)+E(xc)   XCENC  =        56.66915925
  PAW double counting   =      1934.58678659    -1800.98643654
  entropy T*S    EENTRO =         0.00031665
  eigenvalues    EBANDS =        38.20884545
  atomic energy  EATOM  =      2411.37598431
  Solvation  Ediel_sol  =         0.00000000
  ---------------------------------------------------
  free energy    TOTEN  =       -83.92934796 eV

  energy without entropy =      -83.92966461  energy(sigma->0) =      -83.92942712


--------------------------------------------------------------------------------------------------------




--------------------------------------- Iteration      1(   3)  ---------------------------------------


     EDDAV:  cpu time    3.5684: real time    3.5704
       DOS:  cpu time    0.0034: real time    0.0034
    --------------------------------------------
      LOOP:  cpu time    3.5718: real time    3.5738

 eigenvalue-minimisations  :  8048
 total energy-change (2. order) :-0.2008163E+02  (-0.1973256E+02)
 number of electron      62.0000000 magnetization 
 augmentation part       62.0000000 magnetization 

 Free energy of the ion-electron system (eV)
  ---------------------------------------------------
  alpha Z        PSCENC =        86.87435279
  Ewald energy   TEWEN  =     -2315.57241999
  -Hartree energ DENC   =      -495.08593646
  -exchange      EXHF   =         0.00000000
  -V(xc)+E(xc)   XCENC  =        56.66915925
  PAW double counting   =      1934.58678659    -1800.98643654
  entropy T*S    EENTRO =        -0.00030699
  eigenvalues    EBANDS =        18.12784339
  atomic energy  EATOM  =      2411.37598431
  Solvation  Ediel_sol  =         0.00000000
  ---------------------------------------------------
  free energy    TOTEN  =      -104.01097367 eV

  energy without entropy =     -104.01066667  energy(sigma->0) =     -104.01089692


--------------------------------------------------------------------------------------------------------




--------------------------------------- Iteration      1(   4)  ---------------------------------------


     EDDAV:  cpu time    3.6542: real time    3.6544
       DOS:  cpu time    0.0033: real time    0.0033
    --------------------------------------------
      LOOP:  cpu time    3.6575: real time    3.6577

 eigenvalue-minimisations  :  8296
 total energy-change (2. order) :-0.4361163E+00  (-0.4345353E+00)
 number of electron      62.0000000 magnetization 
 augmentation part       62.0000000 magnetization 

 Free energy of the ion-electron system (eV)
  ---------------------------------------------------
  alpha Z        PSCENC =        86.87435279
  Ewald energy   TEWEN  =     -2315.57241999
  -Hartree energ DENC   =      -495.08593646
  -exchange      EXHF   =         0.00000000
  -V(xc)+E(xc)   XCENC  =        56.66915925
  PAW double counting   =      1934.58678659    -1800.98643654
  entropy T*S    EENTRO =        -0.00005930
  eigenvalues    EBANDS =        17.69147942
  atomic energy  EATOM  =      2411.37598431
  Solvation  Ediel_sol  =         0.00000000
  ---------------------------------------------------
  free energy    TOTEN  =      -104.44708994 eV

  energy without entropy =     -104.44703064  energy(sigma->0) =     -104.44707511


--------------------------------------------------------------------------------------------------------




--------------------------------------- Iteration      1(   5)  ---------------------------------------


     EDDAV:  cpu time    3.5641: real time    3.6400
       DOS:  cpu time    0.0035: real time    0.0035
    CHARGE:  cpu time    0.1377: real time    0.1395
    MIXING:  cpu time    0.0006: real time    0.0007
    --------------------------------------------
      LOOP:  cpu time    3.7060: real time    3.7837

 eigenvalue-minimisations  :  8200
 total energy-change (2. order) :-0.9104491E-02  (-0.9099839E-02)
 number of electron      62.0000011 magnetization 
 augmentation part        0.4784461 magnetization 

 Broyden mixing:
  rms(total) = 0.26083E+01    rms(broyden)= 0.26078E+01
  rms(prec ) = 0.36507E+01
  weight for this iteration     100.00

 Free energy of the ion-electron system (eV)
  ---------------------------------------------------
  alpha Z        PSCENC =        86.87435279
  Ewald energy   TEWEN  =     -2315.57241999
  -Hartree energ DENC   =      -495.08593646
  -exchange      EXHF   =         0.00000000
  -V(xc)+E(xc)   XCENC  =        56.66915925
  PAW double counting   =      1934.58678659    -1800.98643654
  entropy T*S    EENTRO =        -0.00006148
  eigenvalues    EBANDS =        17.68237711
  atomic energy  EATOM  =      2411.37598431
  Solvation  Ediel_sol  =         0.00000000
  ---------------------------------------------------
  free energy    TOTEN  =      -104.45619443 eV

  energy without entropy =     -104.45613295  energy(sigma->0) =     -104.45617906


--------------------------------------------------------------------------------------------------------




--------------------------------------- Iteration      1(   6)  ---------------------------------------


    POTLOK:  cpu time    0.0266: real time    0.0279
    SETDIJ:  cpu time    0.0026: real time    0.0029
    EDDIAG:  cpu time    0.4083: real time    0.4084
  RMM-DIIS:  cpu time    2.0725: real time    2.0731
    ORTHCH:  cpu time    0.0422: real time    0.0422
       DOS:  cpu time    0.0033: real time    0.0033
    CHARGE:  cpu time    0.1382: real time    0.1382
    MIXING:  cpu time    0.0007: real time    0.0007
    --------------------------------------------
      LOOP:  cpu time    2.6943: real time    2.6967

 eigenvalue-minimisations  :  6480
 total energy-change (2. order) : 0.9800517E+01  (-0.4382901E+01)
 number of electron      62.0000007 magnetization 
 augmentation part       -0.2283195 magnetization 

 Broyden mixing:
  rms(total) = 0.12118E+01    rms(broyden)= 0.12113E+01
  rms(prec ) = 0.13980E+01
  weight for this iteration     100.00

 eigenvalues of (default mixing * dielectric matrix)
  average eigenvalue GAMMA=   1.1965
  1.1965

 Free energy of the ion-electron system (eV)
  ---------------------------------------------------
  alpha Z        PSCENC =        86.87435279
  Ewald energy   TEWEN  =     -2315.57241999
  -Hartree energ DENC   =      -575.06009681
  -exchange      EXHF   =         0.00000000
  -V(xc)+E(xc)   XCENC  =        62.47579765
  PAW double counting   =      4427.61870055    -4295.11906636
  entropy T*S    EENTRO =         0.00040502
  eigenvalues    EBANDS =       102.75066578
  atomic energy  EATOM  =      2411.37598431
  Solvation  Ediel_sol  =         0.00000000
  ---------------------------------------------------
  free energy    TOTEN  =       -94.65567707 eV

  energy without entropy =      -94.65608209  energy(sigma->0) =      -94.65577833


--------------------------------------------------------------------------------------------------------




--------------------------------------- Iteration      1(   7)  ---------------------------------------


    POTLOK:  cpu time    0.0192: real time    0.0226
    SETDIJ:  cpu time    0.0025: real time    0.0025
    EDDIAG:  cpu time    0.4127: real time    0.4128
  RMM-DIIS:  cpu time    2.0999: real time    2.0995
    ORTHCH:  cpu time    0.0461: real time    0.0461
       DOS:  cpu time    0.0036: real time    0.0036
    CHARGE:  cpu time    0.1367: real time    0.1367
    MIXING:  cpu time    0.0009: real time    0.0009
    --------------------------------------------
      LOOP:  cpu time    2.7214: real time    2.7246

 eigenvalue-minimisations  :  6521
 total energy-change (2. order) : 0.4540875E+00  (-0.1699280E+00)
 number of electron      62.0000007 magnetization 
 augmentation part       -0.2657356 magnetization 

 Broyden mixing:
  rms(total) = 0.65423E+00    rms(broyden)= 0.65419E+00
  rms(prec ) = 0.75399E+00
  weight for this iteration     100.00

 eigenvalues of (default mixing * dielectric matrix)
  average eigenvalue GAMMA=   1.6392
  1.0744  2.2040

 Free energy of the ion-electron system (eV)
  ---------------------------------------------------
  alpha Z        PSCENC =        86.87435279
  Ewald energy   TEWEN  =     -2315.57241999
  -Hartree energ DENC   =      -583.53861095
  -exchange      EXHF   =         0.00000000
  -V(xc)+E(xc)   XCENC  =        63.32421544
  PAW double counting   =      6727.97659527    -6595.95137342
  entropy T*S    EENTRO =        -0.00022066
  eigenvalues    EBANDS =       111.30988768
  atomic energy  EATOM  =      2411.37598431
  Solvation  Ediel_sol  =         0.00000000
  ---------------------------------------------------
  free energy    TOTEN  =       -94.20158954 eV

  energy without entropy =      -94.20136888  energy(sigma->0) =      -94.20153438


--------------------------------------------------------------------------------------------------------




--------------------------------------- Iteration      1(   8)  ---------------------------------------


    POTLOK:  cpu time    0.0197: real time    0.0223
    SETDIJ:  cpu time    0.0025: real time    0.0025
    EDDIAG:  cpu time    0.4122: real time    0.4122
  RMM-DIIS:  cpu time    2.1092: real time    2.1097
    ORTHCH:  cpu time    0.0423: real time    0.0423
       DOS:  cpu time    0.0034: real time    0.0034
    CHARGE:  cpu time    0.1390: real time    0.1391
    MIXING:  cpu time    0.0007: real time    0.0007
    --------------------------------------------
      LOOP:  cpu time    2.7290: real time    2.7322

 eigenvalue-minimisations  :  6499
 total energy-change (2. order) : 0.1123159E+00  (-0.6773202E-01)
 number of electron      62.0000007 magnetization 
 augmentation part       -0.2360611 magnetization 

 Broyden mixing:
  rms(total) = 0.78773E-01    rms(broyden)= 0.78726E-01
  rms(prec ) = 0.13621E+00
  weight for this iteration     100.00

 eigenvalues of (default mixing * dielectric matrix)
  average eigenvalue GAMMA=   1.5746
  2.3868  1.1685  1.1685

 Free energy of the ion-electron system (eV)
  ---------------------------------------------------
  alpha Z        PSCENC =        86.87435279
  Ewald energy   TEWEN  =     -2315.57241999
  -Hartree energ DENC   =      -589.28982613
  -exchange      EXHF   =         0.00000000
  -V(xc)+E(xc)   XCENC  =        64.07154699
  PAW double counting   =      9730.97461659    -9599.44672431
  entropy T*S    EENTRO =        -0.00028192
  eigenvalues    EBANDS =       116.92347805
  atomic energy  EATOM  =      2411.37598431
  Solvation  Ediel_sol  =         0.00000000
  ---------------------------------------------------
  free energy    TOTEN  =       -94.08927362 eV

  energy without entropy =      -94.08899171  energy(sigma->0) =      -94.08920315


--------------------------------------------------------------------------------------------------------




--------------------------------------- Iteration      1(   9)  ---------------------------------------


    POTLOK:  cpu time    0.0191: real time    0.0207
    SETDIJ:  cpu time    0.0028: real time    0.0029
    EDDIAG:  cpu time    0.3958: real time    0.3960
  RMM-DIIS:  cpu time    1.9495: real time    1.9503
    ORTHCH:  cpu time    0.0478: real time    0.0477
       DOS:  cpu time    0.0034: real time    0.0034
    CHARGE:  cpu time    0.1395: real time    0.1396
    MIXING:  cpu time    0.0008: real time    0.0008
    --------------------------------------------
      LOOP:  cpu time    2.5587: real time    2.5616

 eigenvalue-minimisations  :  6513
 total energy-change (2. order) : 0.1718807E-02  (-0.1177302E-01)
 number of electron      62.0000007 magnetization 
 augmentation part       -0.2719362 magnetization 

 Broyden mixing:
  rms(total) = 0.53649E-01    rms(broyden)= 0.53622E-01
  rms(prec ) = 0.73545E-01
  weight for this iteration     100.00

 eigenvalues of (default mixing * dielectric matrix)
  average eigenvalue GAMMA=   1.6643
  1.0135  1.0135  2.3150  2.3150

 Free energy of the ion-electron system (eV)
  ---------------------------------------------------
  alpha Z        PSCENC =        86.87435279
  Ewald energy   TEWEN  =     -2315.57241999
  -Hartree energ DENC   =      -594.20460859
  -exchange      EXHF   =         0.00000000
  -V(xc)+E(xc)   XCENC  =        64.45119620
  PAW double counting   =     10025.46473513    -9894.00533286
  entropy T*S    EENTRO =        -0.00049677
  eigenvalues    EBANDS =       121.52903497
  atomic energy  EATOM  =      2411.37598431
  Solvation  Ediel_sol  =         0.00000000
  ---------------------------------------------------
  free energy    TOTEN  =       -94.08755482 eV

  energy without entropy =      -94.08705805  energy(sigma->0) =      -94.08743063


--------------------------------------------------------------------------------------------------------




--------------------------------------- Iteration      1(  10)  ---------------------------------------


    POTLOK:  cpu time    0.0205: real time    0.0244
    SETDIJ:  cpu time    0.0025: real time    0.0025
    EDDIAG:  cpu time    0.4151: real time    0.4152
  RMM-DIIS:  cpu time    2.1056: real time    2.1062
    ORTHCH:  cpu time    0.0418: real time    0.0418
       DOS:  cpu time    0.0034: real time    0.0034
    CHARGE:  cpu time    0.1398: real time    0.1398
    MIXING:  cpu time    0.0007: real time    0.0007
    --------------------------------------------
      LOOP:  cpu time    2.7294: real time    2.7341

 eigenvalue-minimisations  :  6488
 total energy-change (2. order) : 0.2020626E-02  (-0.1098363E-02)
 number of electron      62.0000007 magnetization 
 augmentation part       -0.2643157 magnetization 

 Broyden mixing:
  rms(total) = 0.17049E-01    rms(broyden)= 0.17048E-01
  rms(prec ) = 0.24211E-01
  weight for this iteration     100.00

 eigenvalues of (default mixing * dielectric matrix)
  average eigenvalue GAMMA=   1.7796
  2.7550  2.5778  1.0353  1.0353  1.4947

 Free energy of the ion-electron system (eV)
  ---------------------------------------------------
  alpha Z        PSCENC =        86.87435279
  Ewald energy   TEWEN  =     -2315.57241999
  -Hartree energ DENC   =      -592.85763867
  -exchange      EXHF   =         0.00000000
  -V(xc)+E(xc)   XCENC  =        64.34862215
  PAW double counting   =      9858.79715351    -9727.31300029
  entropy T*S    EENTRO =        -0.00042746
  eigenvalues    EBANDS =       120.26183947
  atomic energy  EATOM  =      2411.37598431
  Solvation  Ediel_sol  =         0.00000000
  ---------------------------------------------------
  free energy    TOTEN  =       -94.08553419 eV

  energy without entropy =      -94.08510673  energy(sigma->0) =      -94.08542733


--------------------------------------------------------------------------------------------------------




--------------------------------------- Iteration      1(  11)  ---------------------------------------


    POTLOK:  cpu time    0.0199: real time    0.0201
    SETDIJ:  cpu time    0.0027: real time    0.0029
    EDDIAG:  cpu time    0.4084: real time    0.4085
  RMM-DIIS:  cpu time    1.7711: real time    1.7714
    ORTHCH:  cpu time    0.0412: real time    0.0412
       DOS:  cpu time    0.0035: real time    0.0035
    CHARGE:  cpu time    0.1381: real time    0.1381
    MIXING:  cpu time    0.0008: real time    0.0009
    --------------------------------------------
      LOOP:  cpu time    2.3857: real time    2.3866

 eigenvalue-minimisations  :  6495
 total energy-change (2. order) :-0.1174986E-02  (-0.6009787E-03)
 number of electron      62.0000007 magnetization 
 augmentation part       -0.2573156 magnetization 

 Broyden mixing:
  rms(total) = 0.12014E-01    rms(broyden)= 0.12006E-01
  rms(prec ) = 0.18875E-01
  weight for this iteration     100.00

 eigenvalues of (default mixing * dielectric matrix)
  average eigenvalue GAMMA=   1.6636
  2.5709  2.5709  1.8398  1.0095  1.0095  0.9809

 Free energy of the ion-electron system (eV)
  ---------------------------------------------------
  alpha Z        PSCENC =        86.87435279
  Ewald energy   TEWEN  =     -2315.57241999
  -Hartree energ DENC   =      -592.68780740
  -exchange      EXHF   =         0.00000000
  -V(xc)+E(xc)   XCENC  =        64.33497148
  PAW double counting   =      9807.44821444    -9675.96319816
  entropy T*S    EENTRO =        -0.00039307
  eigenvalues    EBANDS =       120.10358644
  atomic energy  EATOM  =      2411.37598431
  Solvation  Ediel_sol  =         0.00000000
  ---------------------------------------------------
  free energy    TOTEN  =       -94.08670918 eV

  energy without entropy =      -94.08631610  energy(sigma->0) =      -94.08661091


--------------------------------------------------------------------------------------------------------




--------------------------------------- Iteration      1(  12)  ---------------------------------------


    POTLOK:  cpu time    0.0195: real time    0.0195
    SETDIJ:  cpu time    0.0549: real time    0.1462
    EDDIAG:  cpu time    0.7118: real time    0.7117
  RMM-DIIS:  cpu time    2.0940: real time    2.0947
    ORTHCH:  cpu time    0.0421: real time    0.0420
       DOS:  cpu time    0.0033: real time    0.0033
    CHARGE:  cpu time    0.1371: real time    0.1371
    MIXING:  cpu time    0.0007: real time    0.0007
    --------------------------------------------
      LOOP:  cpu time    3.0633: real time    3.1552

 eigenvalue-minimisations  :  6435
 total energy-change (2. order) : 0.3365221E-03  (-0.9639902E-04)
 number of electron      62.0000007 magnetization 
 augmentation part       -0.2598722 magnetization 

 Broyden mixing:
  rms(total) = 0.32927E-02    rms(broyden)= 0.32920E-02
  rms(prec ) = 0.49049E-02
  weight for this iteration     100.00

 eigenvalues of (default mixing * dielectric matrix)
  average eigenvalue GAMMA=   1.7540
  3.2943  2.4728  1.6681  1.6681  0.9906  1.0919  1.0919

 Free energy of the ion-electron system (eV)
  ---------------------------------------------------
  alpha Z        PSCENC =        86.87435279
  Ewald energy   TEWEN  =     -2315.57241999
  -Hartree energ DENC   =      -593.18736466
  -exchange      EXHF   =         0.00000000
  -V(xc)+E(xc)   XCENC  =        64.36755667
  PAW double counting   =      9812.33737743    -9680.85517913
  entropy T*S    EENTRO =        -0.00041192
  eigenvalues    EBANDS =       120.57373184
  atomic energy  EATOM  =      2411.37598431
  Solvation  Ediel_sol  =         0.00000000
  ---------------------------------------------------
  free energy    TOTEN  =       -94.08637266 eV

  energy without entropy =      -94.08596073  energy(sigma->0) =      -94.08626968


--------------------------------------------------------------------------------------------------------




--------------------------------------- Iteration      1(  13)  ---------------------------------------


    POTLOK:  cpu time    0.0179: real time    0.0231
    SETDIJ:  cpu time    0.0024: real time    0.0024
    EDDIAG:  cpu time    0.4089: real time    0.4089
  RMM-DIIS:  cpu time    1.4183: real time    1.4191
    ORTHCH:  cpu time    0.0423: real time    0.0423
       DOS:  cpu time    0.0035: real time    0.0035
    --------------------------------------------
      LOOP:  cpu time    1.8933: real time    1.8992

 eigenvalue-minimisations  :  4038
 total energy-change (2. order) :-0.2811744E-04  (-0.1756156E-04)
 number of electron      62.0000007 magnetization 
 augmentation part       -0.2598722 magnetization 

 Free energy of the ion-electron system (eV)
  ---------------------------------------------------
  alpha Z        PSCENC =        86.87435279
  Ewald energy   TEWEN  =     -2315.57241999
  -Hartree energ DENC   =      -593.30626776
  -exchange      EXHF   =         0.00000000
  -V(xc)+E(xc)   XCENC  =        64.37461689
  PAW double counting   =      9809.20147144    -9677.71852730
  entropy T*S    EENTRO =        -0.00041509
  eigenvalues    EBANDS =       120.68480394
  atomic energy  EATOM  =      2411.37598431
  Solvation  Ediel_sol  =         0.00000000
  ---------------------------------------------------
  free energy    TOTEN  =       -94.08640077 eV

  energy without entropy =      -94.08598569  energy(sigma->0) =      -94.08629700


--------------------------------------------------------------------------------------------------------




 average (electrostatic) potential at core
  the test charge radii are     0.7089  0.9892
  (the norm of the test charge is              1.0000)
       1 -59.1294       2 -59.1294       3 -59.1294       4 -59.1294       5 -59.1294
       6 -59.1294       7 -80.3300       8 -80.3300       9 -79.5488      10 -79.5488
      11 -79.5488      12 -79.5488      13 -79.5488      14 -79.5488
 
 
 
 E-fermi :  11.2643     XC(G=0): -11.4491     alpha+bet :-17.3889


 k-point     1 :       0.0000    0.0000    0.0000
  band No.  band energies     occupation 
      1      -9.8698      2.00000
      2      -8.5697      2.00000
      3      -8.5697      2.00000
      4      -7.9200      2.00000
      5      -7.9200      2.00000
      6      -7.7856      2.00000
      7      -1.3556      2.00000
      8      -1.3556      2.00000
      9      -1.1961      2.00000
     10      -0.4706      2.00000
     11       0.9732      2.00000
     12       1.4009      2.00000
     13       1.4009      2.00000
     14       3.3940      2.00000
     15       3.3940      2.00000
     16       4.4770      2.00000
     17       4.6441      2.00000
     18       4.6441      2.00000
     19       5.3094      2.00000
     20       5.4551      2.00000
     21       6.0196      2.00000
     22       6.0196      2.00000
     23       6.5431      2.00000
     24       6.5431      2.00000
     25       6.7145      2.00000
     26       8.0131      2.00000
     27       8.0131      2.00000
     28       8.0195      2.00000
     29      10.0599      2.00000
     30      10.3266      2.00000
     31      10.3266      2.00000
     32      14.6060      0.00000
     33      14.8407      0.00000
     34      14.8408      0.00000
     35      15.2548      0.00000
     36      15.2555      0.00000
     37      16.1074      0.00000
     38      16.1828      0.00000
     39      16.6131      0.00000
     40      16.6412      0.00000

 k-point     2 :       0.1429    0.0000    0.0000
  band No.  band energies     occupation 
      1      -9.8278      2.00000
      2      -8.6682      2.00000
      3      -8.6129      2.00000
      4      -8.0999      2.00000
      5      -7.8539      2.00000
      6      -7.5346      2.00000
      7      -1.6542      2.00000
      8      -1.3516      2.00000
      9      -1.1303      2.00000
     10      -0.1769      2.00000
     11       0.8252      2.00000
     12       1.3069      2.00000
     13       1.5290      2.00000
     14       3.2998      2.00000
     15       3.4579      2.00000
     16       4.3942      2.00000
     17       4.5340      2.00000
     18       4.7912      2.00000
     19       5.4791      2.00000
     20       5.5972      2.00000
     21       5.9886      2.00000
     22       6.0127      2.00000
     23       6.4976      2.00000
     24       6.5575      2.00000
     25       6.7724      2.00000
     26       7.7754      2.00000
     27       7.8236      2.00000
     28       8.1353      2.00000
     29      10.0059      2.00000
     30      10.4852      2.00000
     31      10.5394      2.00000
     32      14.3197      0.00000
     33      14.6822      0.00000
     34      14.7759      0.00000
     35      15.1620      0.00000
     36      15.3136      0.00000
     37      16.1757      0.00000
     38      16.2851      0.00000
     39      16.4936      0.00000
     40      16.6174      0.00000

 k-point     3 :       0.2857    0.0000    0.0000
  band No.  band energies     occupation 
      1      -9.7044      2.00000
      2      -8.9257      2.00000
      3      -8.6903      2.00000
      4      -8.1980      2.00000
      5      -7.7233      2.00000
      6      -7.2707      2.00000
      7      -2.0644      2.00000
      8      -1.3438      2.00000
      9      -0.9443      2.00000
     10       0.1185      2.00000
     11       0.5461      2.00000
     12       1.1085      2.00000
     13       1.9407      2.00000
     14       3.1179      2.00000
     15       3.4226      2.00000
     16       4.2199      2.00000
     17       4.5705      2.00000
     18       5.0525      2.00000
     19       5.5435      2.00000
     20       5.9011      2.00000
     21       5.9931      2.00000
     22       6.0495      2.00000
     23       6.4415      2.00000
     24       6.5855      2.00000
     25       6.8541      2.00000
     26       7.2958      2.00000
     27       7.4668      2.00000
     28       8.4497      2.00000
     29       9.8300      2.00000
     30      10.7672      2.00000
     31      11.0192      1.99521
     32      13.4247      0.00000
     33      14.4273      0.00000
     34      14.8182      0.00000
     35      15.1351      0.00000
     36      15.4278      0.00000
     37      15.9493      0.00000
     38      16.1226      0.00000
     39      16.2467      0.00000
     40      16.4661      0.00000

 k-point     4 :       0.4286    0.0000    0.0000
  band No.  band energies     occupation 
      1      -9.5131      2.00000
      2      -9.2143      2.00000
      3      -8.7408      2.00000
      4      -8.2269      2.00000
      5      -7.6279      2.00000
      6      -7.1196      2.00000
      7      -2.3055      2.00000
      8      -1.3375      2.00000
      9      -0.7012      2.00000
     10      -0.0365      2.00000
     11       0.5186      2.00000
     12       0.9596      2.00000
     13       2.5572      2.00000
     14       2.9914      2.00000
     15       3.1712      2.00000
     16       3.8544      2.00000
     17       4.9131      2.00000
     18       5.2459      2.00000
     19       5.6420      2.00000
     20       5.7860      2.00000
     21       5.9812      2.00000
     22       6.2610      2.00000
     23       6.4147      2.00000
     24       6.6054      2.00000
     25       6.8934      2.00000
     26       6.9027      2.00000
     27       7.2887      2.00000
     28       8.8327      2.00000
     29       9.5646      2.00000
     30      10.9309      1.99989
     31      11.6361      0.00001
     32      12.4890      0.00000
     33      14.2541      0.00000
     34      14.9768      0.00000
     35      15.1491      0.00000
     36      15.3719      0.00000
     37      15.7696      0.00000
     38      16.0102      0.00000
     39      16.1972      0.00000
     40      16.4144      0.00000

 k-point     5 :       0.1429    0.1429    0.0000
  band No.  band energies     occupation 
      1      -9.7450      2.00000
      2      -8.7802      2.00000
      3      -8.7619      2.00000
      4      -8.1370      2.00000
      5      -7.7856      2.00000
      6      -7.3266      2.00000
      7      -1.9798      2.00000
      8      -1.3146      2.00000
      9      -1.0007      2.00000
     10       0.0185      2.00000
     11       0.5939      2.00000
     12       1.2874      2.00000
     13       1.7296      2.00000
     14       3.0864      2.00000
     15       3.6064      2.00000
     16       4.2662      2.00000
     17       4.4210      2.00000
     18       5.0332      2.00000
     19       5.5224      2.00000
     20       5.9361      2.00000
     21       5.9403      2.00000
     22       5.9847      2.00000
     23       6.4626      2.00000
     24       6.5703      2.00000
     25       6.8349      2.00000
     26       7.4249      2.00000
     27       7.5684      2.00000
     28       8.3464      2.00000
     29       9.8925      2.00000
     30      10.7237      2.00000
     31      10.8463      2.00000
     32      13.7643      0.00000
     33      14.2822      0.00000
     34      14.8420      0.00000
     35      15.1217      0.00000
     36      15.4472      0.00000
     37      16.0678      0.00000
     38      16.2508      0.00000
     39      16.2798      0.00000
     40      16.5985      0.00000

 k-point     6 :       0.2857    0.1429    0.0000
  band No.  band energies     occupation 
      1      -9.5853      2.00000
      2      -9.0526      2.00000
      3      -8.8539      2.00000
      4      -8.1165      2.00000
      5      -7.7108      2.00000
      6      -7.1397      2.00000
      7      -2.2820      2.00000
      8      -1.2354      2.00000
      9      -0.7669      2.00000
     10      -0.0657      2.00000
     11       0.2809      2.00000
     12       1.4065      2.00000
     13       2.1696      2.00000
     14       2.8333      2.00000
     15       3.6241      2.00000
     16       3.9615      2.00000
     17       4.5435      2.00000
     18       5.2920      2.00000
     19       5.6050      2.00000
     20       5.8507      2.00000
     21       5.9484      2.00000
     22       6.2096      2.00000
     23       6.4450      2.00000
     24       6.5822      2.00000
     25       6.8946      2.00000
     26       7.1653      2.00000
     27       7.2083      2.00000
     28       8.7019      2.00000
     29       9.6673      2.00000
     30      11.0034      1.99709
     31      11.2849      0.57968
     32      12.9079      0.00000
     33      13.9236      0.00000
     34      14.9373      0.00000
     35      15.1303      0.00000
     36      15.6374      0.00000
     37      15.7225      0.00000
     38      16.2270      0.00000
     39      16.3438      0.00000
     40      16.4831      0.00000

 k-point     7 :       0.4286    0.1429    0.0000
  band No.  band energies     occupation 
      1      -9.4075      2.00000
      2      -9.2810      2.00000
      3      -8.8835      2.00000
      4      -8.1068      2.00000
      5      -7.6756      2.00000
      6      -7.0696      2.00000
      7      -2.3961      2.00000
      8      -1.1876      2.00000
      9      -0.5848      2.00000
     10      -0.2112      2.00000
     11       0.1176      2.00000
     12       1.4541      2.00000
     13       2.5998      2.00000
     14       2.7275      2.00000
     15       3.3485      2.00000
     16       3.8312      2.00000
     17       4.7271      2.00000
     18       5.3890      2.00000
     19       5.6869      2.00000
     20       5.7624      2.00000
     21       5.9362      2.00000
     22       6.2563      2.00000
     23       6.4414      2.00000
     24       6.5867      2.00000
     25       6.9166      2.00000
     26       6.9171      2.00000
     27       7.2335      2.00000
     28       8.9769      2.00000
     29       9.4558      2.00000
     30      11.0640      1.99015
     31      11.8386      0.00000
     32      12.1793      0.00000
     33      13.8430      0.00000
     34      14.9912      0.00000
     35      15.2553      0.00000
     36      15.3572      0.00000
     37      15.7957      0.00000
     38      16.1776      0.00000
     39      16.3195      0.00000
     40      16.3803      0.00000

 k-point     8 :      -0.4286    0.1429    0.0000
  band No.  band energies     occupation 
      1      -9.5852      2.00000
      2      -9.0527      2.00000
      3      -8.8540      2.00000
      4      -8.1165      2.00000
      5      -7.7108      2.00000
      6      -7.1397      2.00000
      7      -2.2821      2.00000
      8      -1.2334      2.00000
[...]
     39      14.7266      0.00000
     40      14.8422      0.00000

 k-point    75 :       0.2857    0.0000    0.4706
  band No.  band energies     occupation 
      1      -7.1977      2.00000
      2      -6.9697      2.00000
      3      -6.6284      2.00000
      4      -6.5888      2.00000
      5      -6.4374      2.00000
      6      -6.4370      2.00000
      7      -0.8250      2.00000
      8      -0.6303      2.00000
      9      -0.1844      2.00000
     10       0.0506      2.00000
     11       0.3650      2.00000
     12       0.6636      2.00000
     13       1.6621      2.00000
     14       2.1722      2.00000
     15       2.2820      2.00000
     16       2.5425      2.00000
     17       2.6890      2.00000
     18       2.9245      2.00000
     19       3.3077      2.00000
     20       3.6249      2.00000
     21       5.0816      2.00000
     22       5.2865      2.00000
     23       5.3248      2.00000
     24       5.5282      2.00000
     25       6.5059      2.00000
     26       6.7603      2.00000
     27       7.2486      2.00000
     28       7.5229      2.00000
     29       7.6452      2.00000
     30       7.9683      2.00000
     31       9.5919      2.00000
     32      10.0015      2.00000
     33      11.9380      0.00000
     34      12.2531      0.00000
     35      12.6997      0.00000
     36      13.1885      0.00000
     37      13.4034      0.00000
     38      13.9625      0.00000
     39      14.6502      0.00000
     40      14.8415      0.00000

 k-point    76 :       0.4286    0.0000    0.4706
  band No.  band energies     occupation 
      1      -7.1361      2.00000
      2      -7.0156      2.00000
      3      -6.6522      2.00000
      4      -6.5990      2.00000
      5      -6.4356      2.00000
      6      -6.4300      2.00000
      7      -0.9202      2.00000
      8      -0.7541      2.00000
      9       0.0210      2.00000
     10       0.1369      2.00000
     11       0.5842      2.00000
     12       0.8582      2.00000
     13       1.4561      2.00000
     14       1.9592      2.00000
     15       2.2510      2.00000
     16       2.4259      2.00000
     17       2.6627      2.00000
     18       2.7466      2.00000
     19       3.4197      2.00000
     20       3.7263      2.00000
     21       4.9842      2.00000
     22       5.2271      2.00000
     23       5.2852      2.00000
     24       5.5757      2.00000
     25       6.5847      2.00000
     26       6.7708      2.00000
     27       7.1050      2.00000
     28       7.4553      2.00000
     29       7.8366      2.00000
     30       8.1506      2.00000
     31       9.8879      2.00000
     32      10.0988      2.00000
     33      11.9514      0.00000
     34      12.1361      0.00000
     35      12.4286      0.00000
     36      12.8749      0.00000
     37      13.5745      0.00000
     38      14.0895      0.00000
     39      14.6529      0.00000
     40      14.8260      0.00000

 k-point    77 :       0.1429    0.1429    0.4706
  band No.  band energies     occupation 
      1      -7.2130      2.00000
      2      -6.9599      2.00000
      3      -6.6274      2.00000
      4      -6.5745      2.00000
      5      -6.4479      2.00000
      6      -6.4327      2.00000
      7      -0.7797      2.00000
      8      -0.5882      2.00000
      9      -0.2256      2.00000
     10       0.0196      2.00000
     11       0.2709      2.00000
     12       0.5768      2.00000
     13       1.7543      2.00000
     14       2.2018      2.00000
     15       2.3204      2.00000
     16       2.6370      2.00000
     17       2.6978      2.00000
     18       2.9406      2.00000
     19       3.2818      2.00000
     20       3.5602      2.00000
     21       5.1533      2.00000
     22       5.2248      2.00000
     23       5.3964      2.00000
     24       5.4901      2.00000
     25       6.4996      2.00000
     26       6.7616      2.00000
     27       7.3281      2.00000
     28       7.3861      2.00000
     29       7.7232      2.00000
     30       7.9023      2.00000
     31       9.4799      2.00000
     32       9.9675      2.00000
     33      11.9335      0.00000
     34      12.2797      0.00000
     35      12.7907      0.00000
     36      13.2392      0.00000
     37      13.3863      0.00000
     38      13.9193      0.00000
     39      14.6629      0.00000
     40      14.8560      0.00000

 k-point    78 :       0.2857    0.1429    0.4706
  band No.  band energies     occupation 
      1      -7.1556      2.00000
      2      -6.9966      2.00000
      3      -6.6707      2.00000
      4      -6.5685      2.00000
      5      -6.4531      2.00000
      6      -6.4222      2.00000
      7      -0.8894      2.00000
      8      -0.7488      2.00000
      9      -0.0283      2.00000
     10       0.1594      2.00000
     11       0.5046      2.00000
     12       0.7990      2.00000
     13       1.4856      2.00000
     14       2.0045      2.00000
     15       2.3465      2.00000
     16       2.4294      2.00000
     17       2.6662      2.00000
     18       2.7793      2.00000
     19       3.4074      2.00000
     20       3.6597      2.00000
     21       5.0417      2.00000
     22       5.2064      2.00000
     23       5.3002      2.00000
     24       5.5593      2.00000
     25       6.5739      2.00000
     26       6.7500      2.00000
     27       7.1384      2.00000
     28       7.3583      2.00000
     29       7.9440      2.00000
     30       8.1545      2.00000
     31       9.7969      2.00000
     32      10.0003      2.00000
     33      11.9528      0.00000
     34      12.1608      0.00000
     35      12.4881      0.00000
     36      12.9033      0.00000
     37      13.6078      0.00000
     38      14.1234      0.00000
     39      14.6554      0.00000
     40      14.7775      0.00000

 k-point    79 :       0.4286    0.1429    0.4706
  band No.  band energies     occupation 
      1      -7.1103      2.00000
      2      -7.0332      2.00000
      3      -6.6879      2.00000
      4      -6.5644      2.00000
      5      -6.4567      2.00000
      6      -6.4186      2.00000
      7      -0.9266      2.00000
      8      -0.8069      2.00000
      9       0.1413      2.00000
     10       0.1854      2.00000
     11       0.5612      2.00000
     12       0.8497      2.00000
     13       1.4386      2.00000
     14       1.9142      2.00000
     15       2.2728      2.00000
     16       2.4521      2.00000
     17       2.6434      2.00000
     18       2.6743      2.00000
     19       3.4476      2.00000
     20       3.6898      2.00000
     21       5.0035      2.00000
     22       5.1877      2.00000
     23       5.2508      2.00000
     24       5.5895      2.00000
     25       6.6172      2.00000
     26       6.7473      2.00000
     27       7.0977      2.00000
     28       7.3198      2.00000
     29       8.0070      2.00000
     30       8.3220      2.00000
     31       9.9044      2.00000
     32      10.0363      2.00000
     33      11.9704      0.00000
     34      12.1003      0.00000
     35      12.3341      0.00000
     36      12.7297      0.00000
     37      13.7341      0.00000
     38      14.1714      0.00000
     39      14.6623      0.00000
     40      14.7430      0.00000

 k-point    80 :      -0.4286    0.1429    0.4706
  band No.  band energies     occupation 
      1      -7.1556      2.00000
      2      -6.9966      2.00000
      3      -6.6707      2.00000
      4      -6.5686      2.00000
      5      -6.4530      2.00000
      6      -6.4222      2.00000
      7      -0.8908      2.00000
      8      -0.7462      2.00000
      9      -0.0397      2.00000
     10       0.1742      2.00000
     11       0.5006      2.00000
     12       0.7976      2.00000
     13       1.4872      2.00000
     14       2.0031      2.00000
     15       2.3181      2.00000
     16       2.4692      2.00000
     17       2.6720      2.00000
     18       2.7610      2.00000
     19       3.4099      2.00000
     20       3.6580      2.00000
     21       5.0454      2.00000
     22       5.1896      2.00000
     23       5.3134      2.00000
     24       5.5677      2.00000
     25       6.5362      2.00000
     26       6.7529      2.00000
     27       7.1963      2.00000
     28       7.3533      2.00000
     29       7.8712      2.00000
     30       8.2057      2.00000
     31       9.7772      2.00000
     32      10.0139      2.00000
     33      11.9539      0.00000
     34      12.1732      0.00000
     35      12.4784      0.00000
     36      12.9130      0.00000
     37      13.5999      0.00000
     38      14.1016      0.00000
     39      14.6669      0.00000
     40      14.7814      0.00000

 k-point    81 :       0.2857    0.2857    0.4706
  band No.  band energies     occupation 
      1      -7.0995      2.00000
      2      -7.0376      2.00000
      3      -6.7110      2.00000
      4      -6.5294      2.00000
      5      -6.4808      2.00000
      6      -6.4144      2.00000
      7      -0.9101      2.00000
      8      -0.8520      2.00000
      9       0.1865      2.00000
     10       0.3183      2.00000
     11       0.4500      2.00000
     12       0.8102      2.00000
     13       1.4436      2.00000
     14       1.9016      2.00000
     15       2.3792      2.00000
     16       2.4366      2.00000
     17       2.6080      2.00000
     18       2.6348      2.00000
     19       3.4938      2.00000
     20       3.6078      2.00000
     21       5.0668      2.00000
     22       5.1335      2.00000
     23       5.2172      2.00000
     24       5.5964      2.00000
     25       6.6290      2.00000
     26       6.7174      2.00000
     27       7.1353      2.00000
     28       7.2168      2.00000
     29       8.1240      2.00000
     30       8.4768      2.00000
     31       9.8821      2.00000
     32       9.9175      2.00000
     33      12.0002      0.00000
     34      12.0811      0.00000
     35      12.2814      0.00000
     36      12.6391      0.00000
     37      13.9229      0.00000
     38      14.2087      0.00000
     39      14.6169      0.00000
     40      14.6631      0.00000


--------------------------------------------------------------------------------------------------------


 soft charge-density along one line, spin component           1
         0         1         2         3         4         5         6         7         8         9
 total charge-density along one line
 
 pseudopotential strength for first ion, spin component:           1
 12.172  14.583   0.002  -0.000  -0.001   0.006  -0.000  -0.002
 14.583  17.473   0.002  -0.000  -0.001   0.007  -0.000  -0.002
  0.002   0.002  -5.575   0.000   0.001  -7.355   0.000   0.002
 -0.000  -0.000   0.000  -5.584  -0.000   0.000  -7.369  -0.000
 -0.001  -0.001   0.001  -0.000  -5.601   0.002  -0.000  -7.397
  0.006   0.007  -7.355   0.000   0.002  -8.969   0.000   0.004
 -0.000  -0.000   0.000  -7.369  -0.000   0.000  -8.991  -0.000
 -0.002  -0.002   0.002  -0.000  -7.397   0.004  -0.000  -9.034
 total augmentation occupancy for first ion, spin component:           1
  7.866  -3.761  -0.332   0.000   0.096   0.141   0.000  -0.040
 -3.761   1.989   0.315   0.000  -0.078  -0.116  -0.000   0.030
 -0.332   0.315   2.034   0.000  -0.044  -0.304   0.000   0.012
 -0.000   0.000   0.000   2.334   0.000   0.000  -0.389   0.000
  0.096  -0.078  -0.044  -0.000   2.440   0.013   0.000  -0.453
  0.141  -0.116  -0.304   0.000   0.013   0.062   0.000  -0.004
  0.000  -0.000   0.000  -0.389   0.000   0.000   0.077   0.000
 -0.040   0.030   0.012   0.000  -0.453  -0.004   0.000   0.101


------------------------ aborting loop because EDIFF is reached ----------------------------------------


    CHARGE:  cpu time    0.1378: real time    0.1378
    FORLOC:  cpu time    0.0024: real time    0.0024
    FORNL :  cpu time    1.0948: real time    1.0947
    STRESS:  cpu time    3.1971: real time    3.1980
    FORCOR:  cpu time    0.0194: real time    0.0194
    FORHAR:  cpu time    0.0059: real time    0.0059
    MIXING:  cpu time    0.0006: real time    0.0007
    OFIELD:  cpu time    0.0001: real time    0.0000

  FORCE on cell =-STRESS in cart. coord.  units (eV):
  Direction    XX          YY          ZZ          XY          YZ          ZX
  --------------------------------------------------------------------------------------
  Alpha Z    86.87435    86.87435    86.87435
  Ewald    -882.14445  -882.14445  -564.65059    -0.00000     0.00000     0.00000
  Hartree   124.88285   124.88285   331.60249     0.00000     0.00000    -0.00000
  E(xc)    -242.72678  -242.72678  -242.72586     0.00000     0.00000     0.00000
  Local    -116.39058  -116.39024  -642.56259     0.00000     0.00000    -0.00000
  n-local   209.89881   209.87528   212.31436    -0.51137     0.21429    -0.58257
  augment   -36.77680   -36.77710   -36.46314     0.00188     0.00000    -0.00000
  Kinetic   874.28377   877.38668   873.54645    -0.66657     0.06406     0.50599
  Fock        0.00000     0.00000     0.00000     0.00000     0.00000     0.00000
  -------------------------------------------------------------------------------------
  Total      19.44088    19.44088    17.93547     0.00000     0.00000     0.00000
  in kB     221.97063   221.97063   204.78233     0.00000     0.00000     0.00000
  external pressure =      216.24 kB  Pullay stress =        0.00 kB


 VOLUME and BASIS-vectors are now :
 -----------------------------------------------------------------------------
  energy-cutoff  :      400.00
  volume of cell :      140.32
      direct lattice vectors                 reciprocal lattice vectors
     3.861596999 -6.688482189  0.000000000     0.129480109 -0.074755376  0.000000000
     3.861596989  6.688482195  0.000000000     0.129480109  0.074755376  0.000000000
     0.000000000  0.000000000  2.716479650     0.000000000  0.000000000  0.368123501

  length of vectors
     7.723193988  7.723193988  2.716479650     0.149510752  0.149510752  0.368123501


 FORCES acting on ions
    electron-ion (+dipol)            ewald-force                    non-local-force                 convergence-correction
 -----------------------------------------------------------------------------------------------
   0.109E+02 -.784E+02 -.596E-07   -.125E+02 0.870E+02 -.584E-14   0.156E+01 -.854E+01 -.311E-17   0.169E-01 -.296E-01 0.242E-12
   0.733E+02 -.298E+02 0.109E-06   -.816E+02 0.327E+02 0.422E-14   0.818E+01 -.292E+01 0.241E-17   0.341E-01 -.224E-03 -.815E-12
   -.625E+02 -.486E+02 -.161E-06   0.691E+02 0.543E+02 0.406E-14   -.662E+01 -.562E+01 0.493E-17   -.172E-01 -.294E-01 0.140E-11
   0.625E+02 0.486E+02 0.161E-06   -.691E+02 -.543E+02 0.367E-14   0.662E+01 0.562E+01 0.147E-17   0.172E-01 0.294E-01 0.113E-12
   -.733E+02 0.298E+02 -.109E-06   0.816E+02 -.327E+02 0.484E-14   -.818E+01 0.292E+01 -.360E-17   -.341E-01 0.224E-03 -.230E-12
   -.109E+02 0.784E+02 0.596E-07   0.125E+02 -.870E+02 -.828E-15   -.156E+01 0.854E+01 0.273E-17   -.169E-01 0.296E-01 0.285E-12
   -.280E-06 -.880E-07 0.125E-08   -.711E-14 0.964E-11 -.274E-14   0.158E-16 0.221E-16 0.951E-17   0.370E-06 0.214E-06 -.157E-13
   0.280E-06 0.880E-07 -.125E-08   0.639E-13 -.962E-11 -.277E-14   -.156E-16 0.130E-16 0.110E-17   -.370E-06 -.214E-06 0.262E-13
   0.146E+01 0.153E+02 -.201E-07   -.279E+01 -.174E+02 -.222E-14   0.134E+01 0.207E+01 0.344E-17   -.525E-02 -.611E-02 -.124E-12
   -.126E+02 0.894E+01 0.710E-07   0.137E+02 -.111E+02 0.227E-14   -.112E+01 0.219E+01 0.860E-18   0.267E-02 -.760E-02 -.469E-13
   0.140E+02 0.641E+01 -.160E-07   -.165E+02 -.630E+01 -.321E-14   0.246E+01 -.124E+00 -.151E-17   -.792E-02 0.149E-02 0.702E-13
   -.140E+02 -.641E+01 0.160E-07   0.165E+02 0.630E+01 -.396E-14   -.246E+01 0.124E+00 -.141E-18   0.792E-02 -.149E-02 0.594E-13
   -.146E+01 -.153E+02 0.201E-07   0.279E+01 0.174E+02 -.404E-14   -.134E+01 -.207E+01 0.614E-18   0.525E-02 0.611E-02 0.181E-13
   0.126E+02 -.894E+01 -.710E-07   -.137E+02 0.111E+02 0.515E-14   0.112E+01 -.219E+01 0.328E-17   -.267E-02 0.760E-02 -.228E-13
 -----------------------------------------------------------------------------------------------
   0.397E-10 -.106E-09 0.820E-11   0.480E-13 0.142E-13 -.140E-14   0.155E-14 -.888E-15 0.220E-16   -.147E-11 -.229E-11 0.963E-12
 
 
 POSITION                                       TOTAL-FORCE (eV/Angst)
 -----------------------------------------------------------------------------------
      3.96367      4.26687      2.03736        -0.008993      0.000614     -0.000000
      2.14821     -1.12241      0.67912        -0.005029     -0.007481      0.000000
      5.67705     -1.29920      0.67912        -0.003965      0.008096     -0.000000
      2.04615      1.29920      2.03736         0.003965     -0.008096      0.000000
      5.57498      1.12241      2.03736         0.005029      0.007481     -0.000000
      3.75953     -4.26687      0.67912         0.008993     -0.000614      0.000000
      3.86160      2.22949      2.03736        -0.000000     -0.000000     -0.000000
      3.86160     -2.22949      0.67912        -0.000000     -0.000000     -0.000000
      6.07638     -2.35076      2.03736         0.005528     -0.010248     -0.000000
      5.07401      4.08692      0.67912         0.011638     -0.000337      0.000000
      4.86397      0.25080      0.67912        -0.006111     -0.009911      0.000000
      2.85923     -0.25080      2.03736         0.006111      0.009911     -0.000000
      1.64682      2.35076      0.67912        -0.005528      0.010248      0.000000
      2.64918     -4.08692      2.03736        -0.011638      0.000337     -0.000000
 -----------------------------------------------------------------------------------
    total drift:                                0.000000     -0.000000      0.000000


--------------------------------------------------------------------------------------------------------



  FREE ENERGIE OF THE ION-ELECTRON SYSTEM (eV)
  ---------------------------------------------------
  free  energy   TOTEN  =       -94.12977110 eV

  energy  without entropy=      -94.12912019  energy(sigma->0) =      -94.12960837
 
 d Force = 0.1952185E-03[-0.302E-04, 0.421E-03]  d Energy = 0.1522258E-03 0.430E-04
 d Force = 0.8272720E+00[ 0.823E+00, 0.832E+00]  d Ewald  = 0.8272719E+00 0.284E-07


--------------------------------------------------------------------------------------------------------


    POTLOK:  cpu time    0.0203: real time    0.0203


--------------------------------------------------------------------------------------------------------




--------------------------------------------------------------------------------------------------------


  
 reached required accuracy - stopping structural energy minimisation
     LOOP+:  cpu time   12.8296: real time   12.9913
    4ORBIT:  cpu time    0.0000: real time    0.0000

 total amount of memory used by VASP MPI-rank0    45024. kBytes
=======================================================================

   base      :      30000. kBytes
   nonlr-proj:       2879. kBytes
   fftplans  :       1220. kBytes
   grid      :       1945. kBytes
   one-center:         12. kBytes
   wavefun   :       8968. kBytes
 
  
  
 General timing and accounting informations for this job:
 ========================================================
  
                  Total CPU time used (sec):      134.977
                            User time (sec):      134.136
                          System time (sec):        0.841
                         Elapsed time (sec):      137.939
  
                   Maximum memory used (kb):       58984.
                   Average memory used (kb):           0.
  
                          Minor page faults:        68326
                          Major page faults:           10
                 Voluntary context switches:         4635
