<?xml version="1.0" encoding="ISO-8859-1"?>
<modeling>
 <generator>
  <i name="program" type="string">vasp </i>
  <i name="version" type="string">5.4.4.18Apr17-6-g9f103f2a35  </i>
  <i name="subversion" type="string">(build Nov 01 2019 12:17:22) complex            parallel </i>
  <i name="platform" type="string">LinuxIFC </i>
  <i name="date" type="string">2023 05 19 </i>
  <i name="time" type="string">18:18:46 </i>
 </generator>
 <incar>
  <i type="string" name="PREC">accurate</i>
  <i type="string" name="ALGO"> Fast</i>
  <i type="int" name="IBRION">     2</i>
  <i type="int" name="NSW">   100</i>
  <i type="int" name="ISIF">     2</i>
  <i type="string" name="LREAL"> Auto</i>
  <i type="int" name="ISMEAR">     2</i>
  <i name="SIGMA">      0.10000000</i>
  <i type="logical" name="LWAVE"> F  </i>
  <i type="logical" name="LCHARG"> F  </i>
  <v type="int" name="KPOINT_BSE">    -1     0     0     0</v>
 </incar>
 <structure name="primitive_cell" >
  <crystal>
   <varray name="basis" >
    <v>       3.86159700      -6.68848219       0.00000000 </v>
    <v>       3.86159699       6.68848219       0.00000000 </v>
    <v>       0.00000000       0.00000000       2.71647965 </v>
   </varray>
   <i name="volume">    140.32368288 </i>
   <varray name="rec_basis" >
    <v>       0.12948011      -0.07475538       0.00000000 </v>
    <v>       0.12948011       0.07475538       0.00000000 </v>
    <v>       0.00000000       0.00000000       0.36812350 </v>
   </varray>
  </crystal>
  <varray name="positions" >
   <v>       0.19708959      -0.16848230      -0.25000000 </v>
   <v>      -0.03641246      -0.38753655      -0.25000000 </v>
   <v>       0.35112409      -0.03641246       0.25000000 </v>
   <v>       0.33333333      -0.33333333      -0.25000000 </v>
   <v>       0.36557189       0.19708959       0.25000000 </v>
   <v>      -0.16848230      -0.36557189       0.25000000 </v>
   <v>      -0.35112409       0.03641246      -0.25000000 </v>
   <v>       0.03641246       0.38753655       0.25000000 </v>
   <v>       0.16848230       0.36557189      -0.25000000 </v>
   <v>      -0.36557189      -0.19708959      -0.25000000 </v>
   <v>       0.38753655       0.35112409      -0.25000000 </v>
   <v>      -0.33333333       0.33333333       0.25000000 </v>
   <v>      -0.38753655      -0.35112409       0.25000000 </v>
   <v>      -0.19708959       0.16848230       0.25000000 </v>
  </varray>
 </structure>
 <varray name="primitive_index" >
  <v type="int" >        1 </v>
  <v type="int" >        9 </v>
  <v type="int" >       10 </v>
  <v type="int" >        7 </v>
  <v type="int" >        2 </v>
  <v type="int" >        3 </v>
  <v type="int" >       14 </v>
  <v type="int" >       13 </v>
  <v type="int" >        4 </v>
  <v type="int" >        5 </v>
  <v type="int" >       12 </v>
  <v type="int" >        8 </v>
  <v type="int" >       11 </v>
  <v type="int" >        6 </v>
 </varray>
 <kpoints>
  <generation param="Auto">
   <i name="subdivisionlength">     45.00000000 </i>
   <v type="int" name="divisions">       7        7       17 </v>
   <v name="usershift">      0.00000000       0.00000000       0.00000000 </v>
   <v name="genvec1">      0.14285714       0.00000000       0.00000000 </v>
   <v name="genvec2">     -0.00000000       0.14285714       0.00000000 </v>
   <v name="genvec3">      0.00000000       0.00000000       0.05882353 </v>
   <v name="shift">      0.00000000       0.00000000       0.00000000 </v>
  </generation>
  <varray name="kpointlist" >
   <v>       0.00000000       0.00000000       0.00000000 </v>
   <v>       0.14285714       0.00000000       0.00000000 </v>
   <v>       0.28571429       0.00000000       0.00000000 </v>
   <v>       0.42857143       0.00000000       0.00000000 </v>
   <v>       0.14285714       0.14285714       0.00000000 </v>
   <v>       0.28571429       0.14285714       0.00000000 </v>
   <v>       0.42857143       0.14285714       0.00000000 </v>
   <v>      -0.42857143       0.14285714       0.00000000 </v>
   <v>       0.28571429       0.28571429       0.00000000 </v>
   <v>       0.00000000       0.00000000       0.05882353 </v>
   <v>       0.14285714       0.00000000       0.05882353 </v>
   <v>       0.28571429       0.00000000       0.05882353 </v>
   <v>       0.42857143       0.00000000       0.05882353 </v>
   <v>       0.14285714       0.14285714       0.05882353 </v>
   <v>       0.28571429       0.14285714       0.05882353 </v>
   <v>       0.42857143       0.14285714       0.05882353 </v>
   <v>      -0.42857143       0.14285714       0.05882353 </v>
   <v>       0.28571429       0.28571429       0.05882353 </v>
   <v>       0.00000000       0.00000000       0.11764706 </v>
   <v>       0.14285714       0.00000000       0.11764706 </v>
   <v>       0.28571429       0.00000000       0.11764706 </v>
   <v>       0.42857143       0.00000000       0.11764706 </v>
   <v>       0.14285714       0.14285714       0.11764706 </v>
   <v>       0.28571429       0.14285714       0.11764706 </v>
   <v>       0.42857143       0.14285714       0.11764706 </v>
   <v>      -0.42857143       0.14285714       0.11764706 </v>
   <v>       0.28571429       0.28571429       0.11764706 </v>
   <v>       0.00000000       0.00000000       0.17647059 </v>
   <v>       0.14285714       0.00000000       0.17647059 </v>
   <v>       0.28571429       0.00000000       0.17647059 </v>
   <v>       0.42857143       0.00000000       0.17647059 </v>
   <v>       0.14285714       0.14285714       0.17647059 </v>
   <v>       0.28571429       0.14285714       0.17647059 </v>
   <v>       0.42857143       0.14285714       0.17647059 </v>
   <v>      -0.42857143       0.14285714       0.17647059 </v>
   <v>       0.28571429       0.28571429       0.17647059 </v>
   <v>       0.00000000       0.00000000       0.23529412 </v>
   <v>       0.14285714       0.00000000       0.23529412 </v>
   <v>       0.28571429       0.00000000       0.23529412 </v>
   <v>       0.42857143       0.00000000       0.23529412 </v>
   <v>       0.14285714       0.14285714       0.23529412 </v>
   <v>       0.28571429       0.14285714       0.23529412 </v>
   <v>       0.42857143       0.14285714       0.23529412 </v>
   <v>      -0.42857143       0.14285714       0.23529412 </v>
   <v>       0.28571429       0.28571429       0.23529412 </v>
   <v>       0.00000000       0.00000000       0.29411765 </v>
   <v>       0.14285714       0.00000000       0.29411765 </v>
   <v>       0.28571429       0.00000000       0.29411765 </v>
   <v>       0.42857143       0.00000000       0.29411765 </v>
   <v>       0.14285714       0.14285714       0.29411765 </v>
   <v>       0.28571429       0.14285714       0.29411765 </v>
   <v>       0.42857143       0.14285714       0.29411765 </v>
   <v>      -0.42857143       0.14285714       0.29411765 </v>
   <v>       0.28571429       0.28571429       0.29411765 </v>
   <v>       0.00000000       0.00000000       0.35294118 </v>
   <v>       0.14285714       0.00000000       0.35294118 </v>
   <v>       0.28571429       0.00000000       0.35294118 </v>
   <v>       0.42857143       0.00000000       0.35294118 </v>
   <v>       0.14285714       0.14285714       0.35294118 </v>
   <v>       0.28571429       0.14285714       0.35294118 </v>
   <v>       0.42857143       0.14285714       0.35294118 </v>
   <v>      -0.42857143       0.14285714       0.35294118 </v>
   <v>       0.28571429       0.28571429       0.35294118 </v>
   <v>       0.00000000       0.00000000       0.41176471 </v>
   <v>       0.14285714       0.00000000       0.41176471 </v>
   <v>       0.28571429       0.00000000       0.41176471 </v>
   <v>       0.42857143       0.00000000       0.41176471 </v>
   <v>       0.14285714       0.14285714       0.41176471 </v>
   <v>       0.28571429       0.14285714       0.41176471 </v>
   <v>       0.42857143       0.14285714       0.41176471 </v>
   <v>      -0.42857143       0.14285714       0.41176471 </v>
   <v>       0.28571429       0.28571429       0.41176471 </v>
   <v>       0.00000000       0.00000000       0.47058824 </v>
   <v>       0.14285714       0.00000000       0.47058824 </v>
   <v>       0.28571429       0.00000000       0.47058824 </v>
   <v>       0.42857143       0.00000000       0.47058824 </v>
   <v>       0.14285714       0.14285714       0.47058824 </v>
   <v>       0.28571429       0.14285714       0.47058824 </v>
   <v>       0.42857143       0.14285714       0.47058824 </v>
   <v>      -0.42857143       0.14285714       0.47058824 </v>
   <v>       0.28571429       0.28571429       0.47058824 </v>
  </varray>
  <varray name="weights" >
   <v>       0.00120048 </v>
   <v>       0.00720288 </v>
   <v>       0.00720288 </v>
   <v>       0.00720288 </v>
   <v>       0.00720288 </v>
   <v>       0.00720288 </v>
   <v>       0.00720288 </v>
   <v>       0.00720288 </v>
   <v>       0.00720288 </v>
   <v>       0.00240096 </v>
   <v>       0.01440576 </v>
   <v>       0.01440576 </v>
   <v>       0.01440576 </v>
   <v>       0.01440576 </v>
   <v>       0.01440576 </v>
   <v>       0.01440576 </v>
   <v>       0.01440576 </v>
   <v>       0.01440576 </v>
   <v>       0.00240096 </v>
   <v>       0.01440576 </v>
   <v>       0.01440576 </v>
   <v>       0.01440576 </v>
   <v>       0.01440576 </v>
   <v>       0.01440576 </v>
   <v>       0.01440576 </v>
   <v>       0.01440576 </v>
   <v>       0.01440576 </v>
   <v>       0.00240096 </v>
   <v>       0.01440576 </v>
   <v>       0.01440576 </v>
   <v>       0.01440576 </v>
   <v>       0.01440576 </v>
   <v>       0.01440576 </v>
   <v>       0.01440576 </v>
   <v>       0.01440576 </v>
   <v>       0.01440576 </v>
   <v>       0.00240096 </v>
   <v>       0.01440576 </v>
   <v>       0.01440576 </v>
   <v>       0.01440576 </v>
   <v>       0.01440576 </v>
   <v>       0.01440576 </v>
   <v>       0.01440576 </v>
   <v>       0.01440576 </v>
   <v>       0.01440576 </v>
   <v>       0.00240096 </v>
   <v>       0.01440576 </v>
   <v>       0.01440576 </v>
   <v>       0.01440576 </v>
   <v>       0.01440576 </v>
   <v>       0.01440576 </v>
   <v>       0.01440576 </v>
   <v>       0.01440576 </v>
   <v>       0.01440576 </v>
   <v>       0.00240096 </v>
   <v>       0.01440576 </v>
   <v>       0.01440576 </v>
   <v>       0.01440576 </v>
   <v>       0.01440576 </v>
   <v>       0.01440576 </v>
   <v>       0.01440576 </v>
   <v>       0.01440576 </v>
   <v>       0.01440576 </v>
   <v>       0.00240096 </v>
   <v>       0.01440576 </v>
   <v>       0.01440576 </v>
   <v>       0.01440576 </v>
   <v>       0.01440576 </v>
   <v>       0.01440576 </v>
   <v>       0.01440576 </v>
   <v>       0.01440576 </v>
   <v>       0.01440576 </v>
   <v>       0.00240096 </v>
   <v>       0.01440576 </v>
   <v>       0.01440576 </v>
   <v>       0.01440576 </v>
   <v>       0.01440576 </v>
   <v>       0.01440576 </v>
   <v>       0.01440576 </v>
   <v>       0.01440576 </v>
   <v>       0.01440576 </v>
  </varray>
 </kpoints>
 <parameters>
  <separator name="general" >
   <i type="string" name="SYSTEM">unknown system</i>
   <i type="logical" name="LCOMPAT"> F  </i>
  </separator>
  <separator name="electronic" >
   <i type="string" name="PREC">accura</i>
   <i name="ENMAX">    400.00000000</i>
   <i name="ENAUG">    627.11200000</i>
   <i name="EDIFF">      0.00010000</i>
   <i type="int" name="IALGO">    68</i>
   <i type="int" name="IWAVPR">    11</i>
   <i type="int" name="NBANDS">    40</i>
   <i name="NELECT">     62.00000000</i>
   <i type="int" name="TURBO">     0</i>
   <i type="int" name="IRESTART">     0</i>
   <i type="int" name="NREBOOT">     0</i>
   <i type="int" name="NMIN">     0</i>
   <i name="EREF">      0.00000000</i>
   <separator name="electronic smearing" >
    <i type="int" name="ISMEAR">     2</i>
    <i name="SIGMA">      0.10000000</i>
    <i name="KSPACING">      0.50000000</i>
    <i type="logical" name="KGAMMA"> T  </i>
   </separator>
   <separator name="electronic projectors" >
    <i type="logical" name="LREAL"> T  </i>
    <v name="ROPT">     -0.00025000     -0.00025000</v>
    <i type="int" name="LMAXPAW">  -100</i>
    <i type="int" name="LMAXMIX">     2</i>
    <i type="logical" name="NLSPLINE"> F  </i>
   </separator>
   <separator name="electronic startup" >
    <i type="int" name="ISTART">     0</i>
    <i type="int" name="ICHARG">     2</i>
    <i type="int" name="INIWAV">     1</i>
   </separator>
   <separator name="electronic spin" >
    <i type="int" name="ISPIN">     1</i>
    <i type="logical" name="LNONCOLLINEAR"> F  </i>
    <v name="MAGMOM">      1.00000000      1.00000000      1.00000000      1.00000000      1.00000000      1.00000000      1.00000000      1.00000000      1.00000000      1.00000000      1.00000000      1.00000000      1.00000000      1.00000000</v>
    <i name="NUPDOWN">     -1.00000000</i>
    <i type="logical" name="LSORBIT"> F  </i>
    <v name="SAXIS">      0.00000000      0.00000000      1.00000000</v>
    <i type="logical" name="LSPIRAL"> F  </i>
    <v name="QSPIRAL">      0.00000000      0.00000000      0.00000000</v>
    <i type="logical" name="LZEROZ"> F  </i>
   </separator>
   <separator name="electronic exchange-correlation" >
    <i type="logical" name="LASPH"> F  </i>
    <i type="logical" name="LMETAGGA"> F  </i>
   </separator>
   <separator name="electronic convergence" >
    <i type="int" name="NELM">    60</i>
    <i type="int" name="NELMDL">    -5</i>
    <i type="int" name="NELMIN">     2</i>
    <i name="ENINI">    400.00000000</i>
    <separator name="electronic convergence detail" >
     <i type="logical" name="LDIAG"> T  </i>
     <i type="logical" name="LSUBROT"> F  </i>
     <i name="WEIMIN">      0.00100000</i>
     <i name="EBREAK">      0.00000063</i>
     <i name="DEPER">      0.30000000</i>
     <i type="int" name="NRMM">     4</i>
     <i name="TIME">      0.40000000</i>
    </separator>
   </separator>
   <separator name="electronic mixer" >
    <i name="AMIX">      0.40000000</i>
    <i name="BMIX">      1.00000000</i>
    <i name="AMIN">      0.10000000</i>
    <i name="AMIX_MAG">      1.60000000</i>
    <i name="BMIX_MAG">      1.00000000</i>
    <separator name="electronic mixer details" >
     <i type="int" name="IMIX">     4</i>
     <i type="logical" name="MIXFIRST"> F  </i>
     <i type="int" name="MAXMIX">   -45</i>
     <i name="WC">    100.00000000</i>
     <i type="int" name="INIMIX">     1</i>
     <i type="int" name="MIXPRE">     1</i>
     <i type="int" name="MREMOVE">     5</i>
    </separator>
   </separator>
   <separator name="electronic dipolcorrection" >
    <i type="logical" name="LDIPOL"> F  </i>
    <i type="logical" name="LMONO"> F  </i>
    <i type="int" name="IDIPOL">     0</i>
    <i name="EPSILON">      1.00000000</i>
    <v name="DIPOL">   -100.00000000   -100.00000000   -100.00000000</v>
    <i name="EFIELD">      0.00000000</i>
   </separator>
  </separator>
  <separator name="grids" >
   <i type="int" name="NGX">    50</i>
   <i type="int" name="NGY">    50</i>
   <i type="int" name="NGZ">    18</i>
   <i type="int" name="NGXF">   100</i>
   <i type="int" name="NGYF">   100</i>
   <i type="int" name="NGZF">    36</i>
   <i type="logical" name="ADDGRID"> F  </i>
  </separator>
  <separator name="ionic" >
   <i type="int" name="NSW">   100</i>
   <i type="int" name="IBRION">     2</i>
   <i type="int" name="MDALGO">     0</i>
   <i type="int" name="ISIF">     2</i>
   <i name="PSTRESS">      0.00000000</i>
   <i name="EDIFFG">      0.00100000</i>
   <i type="int" name="NFREE">     1</i>
   <i name="POTIM">      0.50000000</i>
   <i name="SMASS">     -3.00000000</i>
   <i name="SCALEE">      1.00000000</i>
  </separator>
  <separator name="ionic md" >
   <i name="TEBEG">      0.00010000</i>
   <i name="TEEND">      0.00010000</i>
   <i type="int" name="NBLOCK">     1</i>
   <i type="int" name="KBLOCK">   100</i>
   <i type="int" name="NPACO">   256</i>
   <i name="APACO">     16.00000000</i>
  </separator>
  <separator name="symmetry" >
   <i type="int" name="ISYM">     2</i>
   <i name="SYMPREC">      0.00001000</i>
  </separator>
  <separator name="dos" >
   <i type="int" name="LORBIT">     0</i>
   <v name="RWIGS">     -1.00000000     -1.00000000</v>
   <i type="int" name="NEDOS">   301</i>
   <i name="EMIN">     10.00000000</i>
   <i name="EMAX">    -10.00000000</i>
   <i name="EFERMI">      0.00000000</i>
  </separator>
  <separator name="writing" >
   <i type="int" name="NWRITE">     2</i>
   <i type="logical" name="LWAVE"> F  </i>
   <i type="logical" name="LDOWNSAMPLE"> F  </i>
   <i type="logical" name="LCHARG"> F  </i>
   <i type="logical" name="LPARD"> F  </i>
   <i type="logical" name="LVTOT"> F  </i>
   <i type="logical" name="LVHAR"> F  </i>
   <i type="logical" name="LELF"> F  </i>
   <i type="logical" name="LOPTICS"> F  </i>
   <v name="STM">      0.00000000      0.00000000      0.00000000      0.00000000      0.00000000      0.00000000      0.00000000</v>
  </separator>
  <separator name="performance" >
   <i type="int" name="NPAR">     4</i>
   <i type="int" name="NSIM">     4</i>
   <i type="int" name="NBLK">    -1</i>
   <i type="logical" name="LPLANE"> T  </i>
   <i type="logical" name="LSCALAPACK"> F  </i>
   <i type="logical" name="LSCAAWARE"> F  </i>
   <i type="logical" name="LSCALU"> F  </i>
   <i type="logical" name="LASYNC"> F  </i>
   <i type="logical" name="LORBITALREAL"> F  </i>
  </separator>
  <separator name="miscellaneous" >
   <i type="int" name="IDIOT">     3</i>
   <i type="int" name="ISPECIAL">     0</i>
   <i type="logical" name="LMUSIC"> F  </i>
   <v name="POMASS">     14.00100000     28.08500000</v>
   <v name="DARWINR">      0.00000000      0.00000000</v>
   <v name="DARWINV">      1.00000000      1.00000000</v>
   <i type="logical" name="LCORR"> T  </i>
  </separator>
  <i type="logical" name="GGA_COMPAT"> T  </i>
  <i type="logical" name="LBERRY"> F  </i>
  <i type="int" name="ICORELEVEL">     0</i>
  <i type="logical" name="LDAU"> F  </i>
  <i type="int" name="I_CONSTRAINED_M">     0</i>
  <separator name="electronic exchange-correlation" >
   <i type="string" name="GGA">--</i>
   <i type="int" name="VOSKOWN">     0</i>
   <i type="logical" name="LHFCALC"> F  </i>
   <i type="string" name="PRECFOCK"></i>
   <i type="logical" name="LSYMGRAD"> F  </i>
   <i type="logical" name="LHFONE"> F  </i>
   <i type="logical" name="LRHFCALC"> F  </i>
   <i type="logical" name="LTHOMAS"> F  </i>
   <i type="logical" name="LMODELHF"> F  </i>
   <i name="ENCUT4O">     -1.00000000</i>
   <i type="int" name="EXXOEP">     0</i>
   <i type="int" name="FOURORBIT">     0</i>
   <i name="AEXX">      0.00000000</i>
   <i name="HFALPHA">      0.00000000</i>
   <i name="MCALPHA">      0.00000000</i>
   <i name="ALDAX">      1.00000000</i>
   <i name="AGGAX">      1.00000000</i>
   <i name="ALDAC">      1.00000000</i>
   <i name="AGGAC">      1.00000000</i>
   <i type="int" name="NKREDX">     1</i>
   <i type="int" name="NKREDY">     1</i>
   <i type="int" name="NKREDZ">     1</i>
   <i type="logical" name="SHIFTRED"> F  </i>
   <i type="logical" name="ODDONLY"> F  </i>
   <i type="logical" name="EVENONLY"> F  </i>
   <i type="int" name="LMAXFOCK">     0</i>
   <i type="int" name="NMAXFOCKAE">     0</i>
   <i type="logical" name="LFOCKAEDFT"> F  </i>
   <i name="HFSCREEN">      0.00000000</i>
   <i name="HFSCREENC">      0.00000000</i>
   <i type="int" name="NBANDSGWLOW">     0</i>
  </separator>
  <separator name="vdW DFT" >
   <i type="logical" name="LUSE_VDW"> F  </i>
   <i name="Zab_VDW">     -0.84910000</i>
   <i name="PARAM1">      0.12340000</i>
   <i name="PARAM2">      1.00000000</i>
   <i name="PARAM3">      0.00000000</i>
  </separator>
  <separator name="model GW" >
   <i type="int" name="MODEL_GW">     0</i>
   <i name="MODEL_EPS0">      6.01387212</i>
   <i name="MODEL_ALPHA">      1.00000000</i>
  </separator>
  <separator name="linear response parameters" >
   <i type="logical" name="LEPSILON"> F  </i>
   <i type="logical" name="LRPA"> F  </i>
   <i type="logical" name="LNABLA"> F  </i>
   <i type="logical" name="LVEL"> F  </i>
   <i type="int" name="KINTER">     0</i>
   <i name="CSHIFT">      0.10000000</i>
   <i name="OMEGAMAX">     -1.00000000</i>
   <i name="DEG_THRESHOLD">      0.00200000</i>
   <i name="RTIME">     -0.10000000</i>
   <i name="WPLASMAI">      0.00000000</i>
   <v name="DFIELD">      0.00000000      0.00000000      0.00000000</v>
   <v name="WPLASMA">      0.00000000      0.00000000      0.00000000      0.00000000      0.00000000      0.00000000      0.00000000      0.00000000      0.00000000</v>
  </separator>
  <separator name="orbital magnetization" >
   <i type="logical" name="NUCIND"> F  </i>
   <v name="MAGPOS">      0.00000000      0.00000000      0.00000000</v>
   <i type="logical" name="LNICSALL"> T  </i>
   <i type="logical" name="ORBITALMAG"> F  </i>
   <i type="logical" name="LMAGBLOCH"> F  </i>
   <i type="logical" name="LCHIMAG"> F  </i>
   <i type="logical" name="LGAUGE"> T  </i>
   <i type="int" name="MAGATOM">     0</i>
   <v name="MAGDIPOL">      0.00000000      0.00000000      0.00000000</v>
   <v name="AVECCONST">      0.00000000      0.00000000      0.00000000</v>
  </separator>
  <separator name="response functions" >
   <i type="logical" name="LADDER"> F  </i>
   <i type="logical" name="LRPAFORCE"> F  </i>
   <i type="logical" name="LFXC"> F  </i>
   <i type="logical" name="LHARTREE"> T  </i>
   <i type="int" name="IBSE">     0</i>
   <v type="int" name="KPOINT">    -1     0     0     0</v>
   <i type="logical" name="LTCTE"> F  </i>
   <i type="logical" name="LTETE"> F  </i>
   <i type="logical" name="LTRIPLET"> F  </i>
   <i type="logical" name="LFXCEPS"> F  </i>
   <i type="logical" name="LFXHEG"> F  </i>
   <i type="int" name="NATURALO">     2</i>
   <i type="logical" name="L2ORDER"> F  </i>
   <i type="logical" name="LMP2LT"> F  </i>
   <i type="logical" name="LUSEW"> F  </i>
   <i name="ENCUTGW">     -2.00000000</i>
   <i name="ENCUTGWSOFT">     -2.00000000</i>
   <i name="ENCUTLF">     -1.00000000</i>
   <i type="int" name="LMAXMP2">    -1</i>
   <i name="SCISSOR">      0.00000000</i>
   <i type="int" name="NOMEGA">     0</i>
   <i type="int" name="NOMEGAR">     0</i>
   <i type="int" name="NBANDSGW">    -1</i>
   <i type="int" name="NBANDSO">    -1</i>
   <i type="int" name="NBANDSV">    -1</i>
   <i type="int" name="NELM">     1</i>
   <i type="int" name="NELMHF">     1</i>
   <i type="int" name="DIM">     3</i>
   <i type="int" name="ANTIRES">     0</i>
   <i name="OMEGAMAX">    -30.00000000</i>
   <i name="OMEGAMIN">    -30.00000000</i>
   <i name="OMEGATL">   -200.00000000</i>
   <i type="int" name="OMEGAGRID">   140</i>
   <i name="CSHIFT">     -0.10000000</i>
   <i type="logical" name="SELFENERGY"> F  </i>
   <i type="logical" name="LSPECTRAL"> F  </i>
   <i type="logical" name="LSPECTRALGW"> F  </i>
   <i type="logical" name="LSINGLES"> F  </i>
   <i type="logical" name="LFERMIGW"> F  </i>
   <i type="logical" name="ODDONLYGW"> F  </i>
   <i type="logical" name="EVENONLYGW"> F  </i>
   <i type="int" name="NKREDLFX">     1</i>
   <i type="int" name="NKREDLFY">     1</i>
   <i type="int" name="NKREDLFZ">     1</i>
   <i type="int" name="MAXMEM">  2800</i>
   <i type="int" name="TELESCOPE">     0</i>
   <i type="int" name="TAUPAR">     1</i>
   <i type="int" name="OMEGAPAR">    -1</i>
   <i name="LAMBDA">      1.00000000</i>
  </separator>
  <separator name="External order field" >
   <i name="OFIELD_KAPPA">      0.00000000</i>
   <v name="OFIELD_K">      0.00000000      0.00000000      0.00000000</v>
   <i name="OFIELD_Q6_NEAR">      0.00000000</i>
   <i name="OFIELD_Q6_FAR">      0.00000000</i>
   <i name="OFIELD_A">      0.00000000</i>
  </separator>
 </parameters>
 <atominfo>
  <atoms>      14 </atoms>
  <types>       2 </types>
  <array name="atoms" >
   <dimension dim="1">ion</dimension>
   <field type="string">element</field>
   <field type="int">atomtype</field>
   <set>
    <rc><c>N </c><c>   1</c></rc>
    <rc><c>N </c><c>   1</c></rc>
    <rc><c>N </c><c>   1</c></rc>
    <rc><c>N </c><c>   1</c></rc>
    <rc><c>N </c><c>   1</c></rc>
    <rc><c>N </c><c>   1</c></rc>
    <rc><c>Si</c><c>   2</c></rc>
    <rc><c>Si</c><c>   2</c></rc>
    <rc><c>Si</c><c>   2</c></rc>
    <rc><c>Si</c><c>   2</c></rc>
    <rc><c>Si</c><c>   2</c></rc>
    <rc><c>Si</c><c>   2</c></rc>
    <rc><c>Si</c><c>   2</c></rc>
    <rc><c>Si</c><c>   2</c></rc>
   </set>
  </array>
  <array name="atomtypes" >
   <dimension dim="1">type</dimension>
   <field type="int">atomspertype</field>
   <field type="string">element</field>
   <field>mass</field>
   <field>valence</field>
   <field type="string">pseudopotential</field>
   <set>
    <rc><c>   6</c><c>N </c><c>     14.00100000</c><c>      5.00000000</c><c>  PAW_PBE N 08Apr2002                   </c></rc>
    <rc><c>   8</c><c>Si</c><c>     28.08500000</c><c>      4.00000000</c><c>  PAW_PBE Si 05Jan2001                  </c></rc>
   </set>
  </array>
 </atominfo>
 <structure name="initialpos" >
  <crystal>
   <varray name="basis" >
    <v>       3.86159700      -6.68848219       0.00000000 </v>
    <v>       3.86159699       6.68848219       0.00000000 </v>
    <v>       0.00000000       0.00000000       2.71647965 </v>
   </varray>
   <i name="volume">    140.32368288 </i>
   <varray name="rec_basis" >
    <v>       0.12948011      -0.07475538       0.00000000 </v>
    <v>       0.12948011       0.07475538       0.00000000 </v>
    <v>       0.00000000       0.00000000       0.36812350 </v>
   </varray>
  </crystal>
  <varray name="positions" >
   <v>       0.19708959       0.83151770       0.75000000 </v>
   <v>       0.36557189       0.19708959       0.25000000 </v>
   <v>       0.83151770       0.63442811       0.25000000 </v>
   <v>       0.16848230       0.36557189       0.75000000 </v>
   <v>       0.63442811       0.80291041       0.75000000 </v>
   <v>       0.80291041       0.16848230       0.25000000 </v>
   <v>       0.33333333       0.66666667       0.75000000 </v>
   <v>       0.66666667       0.33333333       0.25000000 </v>
   <v>       0.96358754       0.61246345       0.75000000 </v>
   <v>       0.35112409       0.96358754       0.25000000 </v>
   <v>       0.61246345       0.64887591       0.25000000 </v>
   <v>       0.38753655       0.35112409       0.75000000 </v>
   <v>       0.03641246       0.38753655       0.25000000 </v>
   <v>       0.64887591       0.03641246       0.75000000 </v>
  </varray>
 </structure>
 <calculation>
  <scstep>
   <time name="dav">    2.44    2.44</time>
   <time name="total">    2.47    2.59</time>
   <energy>
    <i name="alphaZ">     86.87435279 </i>
    <i name="ewald">  -2315.57241999 </i>
    <i name="hartreedc">   -495.08593646 </i>
    <i name="XCdc">     56.66915925 </i>
    <i name="pawpsdc">   1934.58678659 </i>
    <i name="pawaedc">  -1800.98643654 </i>
    <i name="eentropy">     -0.00078029 </i>
    <i name="bandstr">    354.61876904 </i>
    <i name="atom">   2411.37598431 </i>
    <i name="e_fr_energy">    232.47947869 </i>
    <i name="e_wo_entrp">    232.48025898 </i>
    <i name="e_0_energy">    232.47967376 </i>
   </energy>
  </scstep>
  <scstep>
   <time name="dav">    3.53    3.54</time>
   <time name="total">    3.54    3.54</time>
   <energy>
    <i name="e_fr_energy">    -83.92934796 </i>
    <i name="e_wo_entrp">    -83.92966461 </i>
    <i name="e_0_energy">    -83.92942712 </i>
   </energy>
  </scstep>
  <scstep>
   <time name="dav">    3.57    3.57</time>
   <time name="total">    3.57    3.57</time>
   <energy>
    <i name="e_fr_energy">   -104.01097367 </i>
    <i name="e_wo_entrp">   -104.01066667 </i>
    <i name="e_0_energy">   -104.01089692 </i>
   </energy>
  </scstep>
  <scstep>
   <time name="dav">    3.65    3.65</time>
   <time name="total">    3.66    3.66</time>
   <energy>
    <i name="e_fr_energy">   -104.44708994 </i>
    <i name="e_wo_entrp">   -104.44703064 </i>
    <i name="e_0_energy">   -104.44707511 </i>
   </energy>
  </scstep>
  <scstep>
   <time name="dav">    3.56    3.64</time>
   <time name="total">    3.71    3.78</time>
   <energy>
    <i name="e_fr_energy">   -104.45619443 </i>
    <i name="e_wo_entrp">   -104.45613295 </i>
    <i name="e_0_energy">   -104.45617906 </i>
   </energy>
  </scstep>
  <scstep>
   <time name="diag">    0.41    0.41</time>
   <time name="diis">    2.07    2.07</time>
   <time name="orth">    0.04    0.04</time>
   <time name="total">    2.69    2.70</time>
   <energy>
    <i name="e_fr_energy">    -94.65567707 </i>
    <i name="e_wo_entrp">    -94.65608209 </i>
    <i name="e_0_energy">    -94.65577833 </i>
   </energy>
  </scstep>
  <scstep>
   <time name="diag">    0.41    0.41</time>
   <time name="diis">    2.10    2.10</time>
   <time name="orth">    0.05    0.05</time>
   <time name="total">    2.72    2.72</time>
   <energy>
    <i name="e_fr_energy">    -94.20158954 </i>
    <i name="e_wo_entrp">    -94.20136888 </i>
    <i name="e_0_energy">    -94.20153438 </i>
   </energy>
  </scstep>
  <scstep>
   <time name="diag">    0.41    0.41</time>
   <time name="diis">    2.11    2.11</time>
   <time name="orth">    0.04    0.04</time>
   <time name="total">    2.73    2.73</time>
   <energy>
    <i name="e_fr_energy">    -94.08927362 </i>
    <i name="e_wo_entrp">    -94.08899171 </i>
    <i name="e_0_energy">    -94.08920315 </i>
   </energy>
  </scstep>
  <scstep>
   <time name="diag">    0.40    0.40</time>
   <time name="diis">    1.95    1.95</time>
   <time name="orth">    0.05    0.05</time>
   <time name="total">    2.56    2.56</time>
   <energy>
    <i name="e_fr_energy">    -94.08755482 </i>
    <i name="e_wo_entrp">    -94.08705805 </i>
    <i name="e_0_energy">    -94.08743063 </i>
   </energy>
  </scstep>
  <scstep>
   <time name="diag">    0.42    0.42</time>
   <time name="diis">    2.11    2.11</time>
   <time name="orth">    0.04    0.04</time>
   <time name="total">    2.73    2.73</time>
   <energy>
    <i name="e_fr_energy">    -94.08553419 </i>
    <i name="e_wo_entrp">    -94.08510673 </i>
    <i name="e_0_energy">    -94.08542733 </i>
   </energy>
  </scstep>
  <scstep>
   <time name="diag">    0.41    0.41</time>
   <time name="diis">    1.77    1.77</time>
   <time name="orth">    0.04    0.04</time>
   <time name="total">    2.39    2.39</time>
   <energy>
    <i name="e_fr_energy">    -94.08670918 </i>
    <i name="e_wo_entrp">    -94.08631610 </i>
    <i name="e_0_energy">    -94.08661091 </i>
   </energy>
  </scstep>
  <scstep>
   <time name="diag">    0.71    0.71</time>
   <time name="diis">    2.09    2.09</time>
   <time name="orth">    0.04    0.04</time>
   <time name="total">    3.06    3.16</time>
   <energy>
    <i name="e_fr_energy">    -94.08637266 </i>
    <i name="e_wo_entrp">    -94.08596073 </i>
    <i name="e_0_energy">    -94.08626968 </i>
   </energy>
  </scstep>
  <scstep>
   <time name="diag">    0.41    0.41</time>
   <time name="diis">    1.42    1.42</time>
   <time name="orth">    0.04    0.04</time>
   <time name="total">    1.89    1.90</time>
   <energy>
    <i name="alphaZ">     86.87435279 </i>
    <i name="ewald">  -2315.57241999 </i>
    <i name="hartreedc">   -593.30626776 </i>
    <i name="XCdc">     64.37461689 </i>
    <i name="pawpsdc">   9809.20147144 </i>
    <i name="pawaedc">  -9677.71852730 </i>
    <i name="eentropy">     -0.00041509 </i>
    <i name="bandstr">    120.68480394 </i>
    <i name="atom">   2411.37598431 </i>
    <i name="e_fr_energy">    -94.08640077 </i>
    <i name="e_wo_entrp">    -94.08598569 </i>
    <i name="e_0_energy">    -94.08629700 </i>
   </energy>
  </scstep>
  <structure>
   <crystal>
    <varray name="basis" >
     <v>       3.86159700      -6.68848219       0.00000000 </v>
     <v>       3.86159699       6.68848219       0.00000000 </v>
     <v>       0.00000000       0.00000000       2.71647965 </v>
    </varray>
    <i name="volume">    140.32368288 </i>
    <varray name="rec_basis" >
     <v>       0.12948011      -0.07475538       0.00000000 </v>
     <v>       0.12948011       0.07475538       0.00000000 </v>
     <v>       0.00000000       0.00000000       0.36812350 </v>
    </varray>
   </crystal>
   <varray name="positions" >
    <v>       0.19708959       0.83151770       0.75000000 </v>
    <v>       0.36557189       0.19708959       0.25000000 </v>
    <v>       0.83151770       0.63442811       0.25000000 </v>
    <v>       0.16848230       0.36557189       0.75000000 </v>
    <v>       0.63442811       0.80291041       0.75000000 </v>
    <v>       0.80291041       0.16848230       0.25000000 </v>
    <v>       0.33333333       0.66666667       0.75000000 </v>
    <v>       0.66666667       0.33333333       0.25000000 </v>
    <v>       0.96358754       0.61246345       0.75000000 </v>
    <v>       0.35112409       0.96358754       0.25000000 </v>
    <v>       0.61246345       0.64887591       0.25000000 </v>
    <v>       0.38753655       0.35112409       0.75000000 </v>
    <v>       0.03641246       0.38753655       0.25000000 </v>
    <v>       0.64887591       0.03641246       0.75000000 </v>
   </varray>
  </structure>
  <varray name="forces" >
   <v>      -0.21832477       0.42049751       0.00000000 </v>
   <v>      -0.47332391       0.02117395       0.00000000 </v>
   <v>       0.25499914       0.39932356       0.00000000 </v>
   <v>      -0.25499914      -0.39932356      -0.00000000 </v>
   <v>       0.47332391      -0.02117395       0.00000000 </v>
   <v>       0.21832477      -0.42049751      -0.00000000 </v>
   <v>      -0.00000000       0.00000000      -0.00000000 </v>
   <v>      -0.00000000       0.00000000      -0.00000000 </v>
   <v>      -0.17781786      -0.45649434       0.00000000 </v>
   <v>       0.30642676      -0.38224195       0.00000000 </v>
   <v>      -0.48424463      -0.07425238      -0.00000000 </v>
   <v>       0.48424463       0.07425238       0.00000000 </v>
   <v>       0.17781786       0.45649434      -0.00000000 </v>
   <v>      -0.30642676       0.38224195      -0.00000000 </v>
  </varray>
  <varray name="stress" >
   <v>     236.95433068      -0.00000003       0.00000000 </v>
   <v>       0.00000003     236.95433068       0.00000000 </v>
   <v>       0.00000000       0.00000000     210.12603565 </v>
  </varray>
  <energy>
   <i name="e_fr_energy">    -94.08640077 </i>
   <i name="e_wo_entrp">    -94.08629700 </i>
   <i name="e_0_energy">     -0.00041509 </i>
  </energy>
  <time name="totalsc">   42.59   42.94</time>
 </calculation>
 <calculation>
  <scstep>
   <time name="dav">    3.31    3.31</time>
   <time name="total">    3.47    3.47</time>
   <energy>
    <i name="alphaZ">     86.87435279 </i>
    <i name="ewald">  -2329.25236044 </i>
    <i name="hartreedc">   -584.48362766 </i>
    <i name="XCdc">     64.15449483 </i>
    <i name="pawpsdc">   9814.65756733 </i>
    <i name="pawaedc">  -9683.17501179 </i>
    <i name="eentropy">     -0.00012666 </i>
    <i name="bandstr">    125.76032436 </i>
    <i name="atom">   2411.37598431 </i>
    <i name="e_fr_energy">    -94.08840294 </i>
    <i name="e_wo_entrp">    -94.08827628 </i>
    <i name="e_0_energy">    -94.08837127 </i>
   </energy>
  </scstep>
  <scstep>
   <time name="diag">    0.40    0.40</time>
   <time name="diis">    2.02    2.02</time>
   <time name="orth">    0.05    0.05</time>
   <time name="total">    2.63    2.63</time>
   <energy>
    <i name="e_fr_energy">    -94.09641827 </i>
    <i name="e_wo_entrp">    -94.09632830 </i>
    <i name="e_0_energy">    -94.09639578 </i>
   </energy>
  </scstep>
  <scstep>
   <time name="diag">    0.42    0.42</time>
   <time name="diis">    2.08    2.08</time>
   <time name="orth">    0.04    0.04</time>
   <time name="total">    2.70    2.71</time>
   <energy>
    <i name="e_fr_energy">    -94.09258871 </i>
    <i name="e_wo_entrp">    -94.09250584 </i>
    <i name="e_0_energy">    -94.09256799 </i>
   </energy>
  </scstep>
  <scstep>
   <time name="diag">    0.41    0.41</time>
   <time name="diis">    2.11    2.11</time>
   <time name="orth">    0.04    0.04</time>
   <time name="total">    2.73    2.74</time>
   <energy>
    <i name="e_fr_energy">    -94.09202884 </i>
    <i name="e_wo_entrp">    -94.09196577 </i>
    <i name="e_0_energy">    -94.09201307 </i>
   </energy>
  </scstep>
  <scstep>
   <time name="diag">    0.41    0.41</time>
   <time name="diis">    1.42    1.42</time>
   <time name="orth">    0.05    0.05</time>
   <time name="total">    1.90    1.92</time>
   <energy>
    <i name="alphaZ">     86.87435279 </i>
    <i name="ewald">  -2329.25236044 </i>
    <i name="hartreedc">   -581.54449328 </i>
    <i name="XCdc">     64.00716043 </i>
    <i name="pawpsdc">   9627.21743080 </i>
    <i name="pawaedc">  -9495.67322624 </i>
    <i name="eentropy">     -0.00005395 </i>
    <i name="bandstr">    122.90314659 </i>
    <i name="atom">   2411.37598431 </i>
    <i name="e_fr_energy">    -94.09205900 </i>
    <i name="e_wo_entrp">    -94.09200505 </i>
    <i name="e_0_energy">    -94.09204551 </i>
   </energy>
  </scstep>
  <structure>
   <crystal>
    <varray name="basis" >
     <v>       3.86159700      -6.68848219       0.00000000 </v>
     <v>       3.86159699       6.68848219       0.00000000 </v>
     <v>       0.00000000       0.00000000       2.71647965 </v>
    </varray>
    <i name="volume">    140.32368288 </i>
    <varray name="rec_basis" >
     <v>       0.12948011      -0.07475538       0.00000000 </v>
     <v>       0.12948011       0.07475538       0.00000000 </v>
     <v>       0.00000000       0.00000000       0.36812350 </v>
    </varray>
   </crystal>
   <varray name="positions" >
    <v>       0.19420935       0.83167043       0.75000000 </v>
    <v>       0.36253893       0.19420935       0.25000000 </v>
    <v>       0.83167043       0.63746107       0.25000000 </v>
    <v>       0.16832957       0.36253893       0.75000000 </v>
    <v>       0.63746107       0.80579065       0.75000000 </v>
    <v>       0.80579065       0.16832957       0.25000000 </v>
    <v>       0.33333333       0.66666667       0.75000000 </v>
    <v>       0.66666667       0.33333333       0.25000000 </v>
    <v>       0.96412311       0.60970642       0.75000000 </v>
    <v>       0.35441669       0.96412311       0.25000000 </v>
    <v>       0.60970642       0.64558331       0.25000000 </v>
    <v>       0.39029358       0.35441669       0.75000000 </v>
    <v>       0.03587689       0.39029358       0.25000000 </v>
    <v>       0.64558331       0.03587689       0.75000000 </v>
   </varray>
  </structure>
  <varray name="forces" >
   <v>       0.29873235      -0.16756517       0.00000000 </v>
   <v>       0.29448187       0.17492722       0.00000000 </v>
   <v>       0.00425049      -0.34249239       0.00000000 </v>
   <v>      -0.00425049       0.34249239      -0.00000000 </v>
   <v>      -0.29448187      -0.17492722       0.00000000 </v>
   <v>      -0.29873235       0.16756517      -0.00000000 </v>
   <v>      -0.00000000       0.00000000      -0.00000000 </v>
   <v>       0.00000000       0.00000000      -0.00000000 </v>
   <v>      -0.03651477       0.64489355      -0.00000000 </v>
   <v>      -0.57675158       0.29082406      -0.00000000 </v>
   <v>       0.54023681       0.35406949       0.00000000 </v>
   <v>      -0.54023681      -0.35406949       0.00000000 </v>
   <v>       0.03651477      -0.64489355       0.00000000 </v>
   <v>       0.57675158      -0.29082406      -0.00000000 </v>
  </varray>
  <varray name="stress" >
   <v>     220.33112051      -0.00000004      -0.00000000 </v>
   <v>       0.00000004     220.33112051       0.00000000 </v>
   <v>      -0.00000000       0.00000000     192.94689360 </v>
  </varray>
  <energy>
   <i name="e_fr_energy">    -94.09205900 </i>
   <i name="e_wo_entrp">    -94.09204551 </i>
   <i name="e_0_energy">     -0.00005395 </i>
  </energy>
  <time name="totalsc">   18.31   18.40</time>
 </calculation>
 <calculation>
  <scstep>
   <time name="dav">    3.82    3.82</time>
   <time name="total">    3.98    3.99</time>
   <energy>
    <i name="alphaZ">     86.87435279 </i>
    <i name="ewald">  -2322.70731475 </i>
    <i name="hartreedc">   -585.69320292 </i>
    <i name="XCdc">     64.10891884 </i>
    <i name="pawpsdc">   9618.62306750 </i>
    <i name="pawaedc">  -9487.07772086 </i>
    <i name="eentropy">     -0.00036122 </i>
    <i name="bandstr">    120.37556862 </i>
    <i name="atom">   2411.37598431 </i>
    <i name="e_fr_energy">    -94.12070770 </i>
    <i name="e_wo_entrp">    -94.12034648 </i>
    <i name="e_0_energy">    -94.12061739 </i>
   </energy>
  </scstep>
  <scstep>
   <time name="diag">    0.41    0.41</time>
   <time name="diis">    2.11    2.11</time>
   <time name="orth">    0.04    0.04</time>
   <time name="total">    2.74    2.74</time>
   <energy>
    <i name="e_fr_energy">    -94.12267724 </i>
    <i name="e_wo_entrp">    -94.12230787 </i>
    <i name="e_0_energy">    -94.12258490 </i>
   </energy>
  </scstep>
  <scstep>
   <time name="diag">    0.41    0.41</time>
   <time name="diis">    2.12    2.12</time>
   <time name="orth">    0.04    0.04</time>
   <time name="total">    2.74    2.74</time>
   <energy>
    <i name="e_fr_energy">    -94.12160153 </i>
    <i name="e_wo_entrp">    -94.12122577 </i>
    <i name="e_0_energy">    -94.12150759 </i>
   </energy>
  </scstep>
  <scstep>
   <time name="diag">    0.40    0.40</time>
   <time name="diis">    1.92    1.93</time>
   <time name="orth">    0.04    0.04</time>
   <time name="total">    2.39    2.40</time>
   <energy>
    <i name="alphaZ">     86.87435279 </i>
    <i name="ewald">  -2322.70731475 </i>
    <i name="hartreedc">   -587.17121380 </i>
    <i name="XCdc">     64.18550321 </i>
    <i name="pawpsdc">   9685.78047760 </i>
    <i name="pawaedc">  -9554.26264087 </i>
    <i name="eentropy">     -0.00038313 </i>
    <i name="bandstr">    121.80372651 </i>
    <i name="atom">   2411.37598431 </i>
    <i name="e_fr_energy">    -94.12150813 </i>
    <i name="e_wo_entrp">    -94.12112500 </i>
    <i name="e_0_energy">    -94.12141235 </i>
   </energy>
  </scstep>
  <structure>
   <crystal>
    <varray name="basis" >
     <v>       3.86159700      -6.68848219       0.00000000 </v>
     <v>       3.86159699       6.68848219       0.00000000 </v>
     <v>       0.00000000       0.00000000       2.71647965 </v>
    </varray>
    <i name="volume">    140.32368288 </i>
    <varray name="rec_basis" >
     <v>       0.12948011      -0.07475538       0.00000000 </v>
     <v>       0.12948011       0.07475538       0.00000000 </v>
     <v>       0.00000000       0.00000000       0.36812350 </v>
    </varray>
   </crystal>
   <varray name="positions" >
    <v>       0.19558313       0.83159758       0.75000000 </v>
    <v>       0.36398555       0.19558313       0.25000000 </v>
    <v>       0.83159758       0.63601445       0.25000000 </v>
    <v>       0.16840242       0.36398555       0.75000000 </v>
    <v>       0.63601445       0.80441687       0.75000000 </v>
    <v>       0.80441687       0.16840242       0.25000000 </v>
    <v>       0.33333333       0.66666667       0.75000000 </v>
    <v>       0.66666667       0.33333333       0.25000000 </v>
    <v>       0.96386766       0.61102143       0.75000000 </v>
    <v>       0.35284623       0.96386766       0.25000000 </v>
    <v>       0.61102143       0.64715377       0.25000000 </v>
    <v>       0.38897857       0.35284623       0.75000000 </v>
    <v>       0.03613234       0.38897857       0.25000000 </v>
    <v>       0.64715377       0.03613234       0.75000000 </v>
   </varray>
  </structure>
  <varray name="forces" >
   <v>       0.05965246       0.10544055      -0.00000000 </v>
   <v>      -0.06148796       0.10438082       0.00000000 </v>
   <v>       0.12114042       0.00105973      -0.00000000 </v>
   <v>      -0.12114042      -0.00105973       0.00000000 </v>
   <v>       0.06148796      -0.10438082       0.00000000 </v>
   <v>      -0.05965246      -0.10544055       0.00000000 </v>
   <v>       0.00000000       0.00000000      -0.00000000 </v>
   <v>       0.00000000       0.00000000      -0.00000000 </v>
   <v>      -0.11200062       0.11645259      -0.00000000 </v>
   <v>      -0.15685121      -0.03876909      -0.00000000 </v>
   <v>       0.04485059       0.15522168       0.00000000 </v>
   <v>      -0.04485059      -0.15522168       0.00000000 </v>
   <v>       0.11200062      -0.11645259       0.00000000 </v>
   <v>       0.15685121       0.03876909      -0.00000000 </v>
  </varray>
  <varray name="stress" >
   <v>     228.20108333       0.00000007       0.00000000 </v>
   <v>      -0.00000007     228.20108333       0.00000000 </v>
   <v>      -0.00000000       0.00000000     199.91832441 </v>
  </varray>
  <energy>
   <i name="e_fr_energy">    -94.12150813 </i>
   <i name="e_wo_entrp">    -94.12141235 </i>
   <i name="e_0_energy">     -0.00038313 </i>
  </energy>
  <time name="totalsc">   16.74   16.82</time>
 </calculation>
 <calculation>
  <scstep>
   <time name="dav">    3.57    3.57</time>
   <time name="total">    3.73    3.74</time>
   <energy>
    <i name="alphaZ">     86.87435279 </i>
    <i name="ewald">  -2325.69576033 </i>
    <i name="hartreedc">   -584.61770044 </i>
    <i name="XCdc">     64.14448608 </i>
    <i name="pawpsdc">   9703.24995616 </i>
    <i name="pawaedc">  -9571.73393128 </i>
    <i name="eentropy">     -0.00052496 </i>
    <i name="bandstr">    122.27795886 </i>
    <i name="atom">   2411.37598431 </i>
    <i name="e_fr_energy">    -94.12517882 </i>
    <i name="e_wo_entrp">    -94.12465386 </i>
    <i name="e_0_energy">    -94.12504758 </i>
   </energy>
  </scstep>
  <scstep>
   <time name="diag">    0.41    0.41</time>
   <time name="diis">    2.08    2.08</time>
   <time name="orth">    0.04    0.04</time>
   <time name="total">    2.69    2.70</time>
   <energy>
    <i name="e_fr_energy">    -94.12650670 </i>
    <i name="e_wo_entrp">    -94.12597853 </i>
    <i name="e_0_energy">    -94.12637466 </i>
   </energy>
  </scstep>
  <scstep>
   <time name="diag">    0.41    0.41</time>
   <time name="diis">    2.01    2.01</time>
   <time name="orth">    0.04    0.04</time>
   <time name="total">    2.63    2.63</time>
   <energy>
    <i name="e_fr_energy">    -94.12622517 </i>
    <i name="e_wo_entrp">    -94.12569856 </i>
    <i name="e_0_energy">    -94.12609352 </i>
   </energy>
  </scstep>
  <scstep>
   <time name="diag">    0.41    0.41</time>
   <time name="diis">    1.43    1.43</time>
   <time name="orth">    0.04    0.04</time>
   <time name="total">    1.91    1.91</time>
   <energy>
    <i name="alphaZ">     86.87435279 </i>
    <i name="ewald">  -2325.69576033 </i>
    <i name="hartreedc">   -584.36768657 </i>
    <i name="XCdc">     64.13397006 </i>
    <i name="pawpsdc">   9695.05037083 </i>
    <i name="pawaedc">  -9563.52921197 </i>
    <i name="eentropy">     -0.00051970 </i>
    <i name="bandstr">    122.03234131 </i>
    <i name="atom">   2411.37598431 </i>
    <i name="e_fr_energy">    -94.12615926 </i>
    <i name="e_wo_entrp">    -94.12563957 </i>
    <i name="e_0_energy">    -94.12602934 </i>
   </energy>
  </scstep>
  <structure>
   <crystal>
    <varray name="basis" >
     <v>       3.86159700      -6.68848219       0.00000000 </v>
     <v>       3.86159699       6.68848219       0.00000000 </v>
     <v>       0.00000000       0.00000000       2.71647965 </v>
    </varray>
    <i name="volume">    140.32368288 </i>
    <varray name="rec_basis" >
     <v>       0.12948011      -0.07475538       0.00000000 </v>
     <v>       0.12948011       0.07475538       0.00000000 </v>
     <v>       0.00000000       0.00000000       0.36812350 </v>
    </varray>
   </crystal>
   <varray name="positions" >
    <v>       0.19533663       0.83229134       0.75000000 </v>
    <v>       0.36304529       0.19533663       0.25000000 </v>
    <v>       0.83229134       0.63695471       0.25000000 </v>
    <v>       0.16770866       0.36304529       0.75000000 </v>
    <v>       0.63695471       0.80466337       0.75000000 </v>
    <v>       0.80466337       0.16770866       0.25000000 </v>
    <v>       0.33333333       0.66666667       0.75000000 </v>
    <v>       0.66666667       0.33333333       0.25000000 </v>
    <v>       0.96289943       0.61053913       0.75000000 </v>
    <v>       0.35236030       0.96289943       0.25000000 </v>
    <v>       0.61053913       0.64763970       0.25000000 </v>
    <v>       0.38946087       0.35236030       0.75000000 </v>
    <v>       0.03710057       0.38946087       0.25000000 </v>
    <v>       0.64763970       0.03710057       0.75000000 </v>
   </varray>
  </structure>
  <varray name="forces" >
   <v>      -0.11445906       0.04596065       0.00000000 </v>
   <v>      -0.09703262      -0.07614412       0.00000000 </v>
   <v>      -0.01742643       0.12210478       0.00000000 </v>
   <v>       0.01742643      -0.12210478      -0.00000000 </v>
   <v>       0.09703262       0.07614412      -0.00000000 </v>
   <v>       0.11445906      -0.04596065      -0.00000000 </v>
   <v>      -0.00000000      -0.00000000      -0.00000000 </v>
   <v>      -0.00000000      -0.00000000       0.00000000 </v>
   <v>       0.08879271       0.06568146       0.00000000 </v>
   <v>      -0.01248545       0.10973747      -0.00000000 </v>
   <v>       0.10127817      -0.04405602      -0.00000000 </v>
   <v>      -0.10127817       0.04405602       0.00000000 </v>
   <v>      -0.08879271      -0.06568146      -0.00000000 </v>
   <v>       0.01248545      -0.10973747       0.00000000 </v>
  </varray>
  <varray name="stress" >
   <v>     222.52613694      -0.00000014       0.00000000 </v>
   <v>       0.00000014     222.52613694       0.00000000 </v>
   <v>       0.00000000       0.00000000     206.30353759 </v>
  </varray>
  <energy>
   <i name="e_fr_energy">    -94.12615926 </i>
   <i name="e_wo_entrp">    -94.12602934 </i>
   <i name="e_0_energy">     -0.00051970 </i>
  </energy>
  <time name="totalsc">   15.75   15.83</time>
 </calculation>
 <calculation>
  <scstep>
   <time name="dav">    3.82    3.83</time>
   <time name="total">    4.00    4.02</time>
   <energy>
    <i name="alphaZ">     86.87435279 </i>
    <i name="ewald">  -2325.40565925 </i>
    <i name="hartreedc">   -584.61658053 </i>
    <i name="XCdc">     64.13788336 </i>
    <i name="pawpsdc">   9693.59590603 </i>
    <i name="pawaedc">  -9562.07421267 </i>
    <i name="eentropy">     -0.00050675 </i>
    <i name="bandstr">    121.98660360 </i>
    <i name="atom">   2411.37598431 </i>
    <i name="e_fr_energy">    -94.12622912 </i>
    <i name="e_wo_entrp">    -94.12572236 </i>
    <i name="e_0_energy">    -94.12610243 </i>
   </energy>
  </scstep>
  <scstep>
   <time name="diag">    0.41    0.42</time>
   <time name="diis">    1.39    1.39</time>
   <time name="orth">    0.04    0.04</time>
   <time name="total">    1.87    1.87</time>
   <energy>
    <i name="alphaZ">     86.87435279 </i>
    <i name="ewald">  -2325.40565925 </i>
    <i name="hartreedc">   -584.63808919 </i>
    <i name="XCdc">     64.13900836 </i>
    <i name="pawpsdc">   9693.59444099 </i>
    <i name="pawaedc">  -9562.07275267 </i>
    <i name="eentropy">     -0.00050686 </i>
    <i name="bandstr">    122.00698217 </i>
    <i name="atom">   2411.37598431 </i>
    <i name="e_fr_energy">    -94.12623935 </i>
    <i name="e_wo_entrp">    -94.12573250 </i>
    <i name="e_0_energy">    -94.12611264 </i>
   </energy>
  </scstep>
  <structure>
   <crystal>
    <varray name="basis" >
     <v>       3.86159700      -6.68848219       0.00000000 </v>
     <v>       3.86159699       6.68848219       0.00000000 </v>
     <v>       0.00000000       0.00000000       2.71647965 </v>
    </varray>
    <i name="volume">    140.32368288 </i>
    <varray name="rec_basis" >
     <v>       0.12948011      -0.07475538       0.00000000 </v>
     <v>       0.12948011       0.07475538       0.00000000 </v>
     <v>       0.00000000       0.00000000       0.36812350 </v>
    </varray>
   </crystal>
   <varray name="positions" >
    <v>       0.19536079       0.83222335       0.75000000 </v>
    <v>       0.36313743       0.19536079       0.25000000 </v>
    <v>       0.83222335       0.63686257       0.25000000 </v>
    <v>       0.16777665       0.36313743       0.75000000 </v>
    <v>       0.63686257       0.80463921       0.75000000 </v>
    <v>       0.80463921       0.16777665       0.25000000 </v>
    <v>       0.33333333       0.66666667       0.75000000 </v>
    <v>       0.66666667       0.33333333       0.25000000 </v>
    <v>       0.96299432       0.61058640       0.75000000 </v>
    <v>       0.35240792       0.96299432       0.25000000 </v>
    <v>       0.61058640       0.64759208       0.25000000 </v>
    <v>       0.38941360       0.35240792       0.75000000 </v>
    <v>       0.03700568       0.38941360       0.25000000 </v>
    <v>       0.64759208       0.03700568       0.75000000 </v>
   </varray>
  </structure>
  <varray name="forces" >
   <v>      -0.10136569       0.04775029      -0.00000000 </v>
   <v>      -0.09203580      -0.06391012      -0.00000000 </v>
   <v>      -0.00932988       0.11166040       0.00000000 </v>
   <v>       0.00932988      -0.11166040       0.00000000 </v>
   <v>       0.09203580       0.06391012       0.00000000 </v>
   <v>       0.10136569      -0.04775029       0.00000000 </v>
   <v>      -0.00000000      -0.00000000       0.00000000 </v>
   <v>      -0.00000000      -0.00000000       0.00000000 </v>
   <v>       0.06917250       0.07054909      -0.00000000 </v>
   <v>      -0.02651105       0.09517968       0.00000000 </v>
   <v>       0.09568355      -0.02463060       0.00000000 </v>
   <v>      -0.09568355       0.02463060      -0.00000000 </v>
   <v>      -0.06917250      -0.07054909      -0.00000000 </v>
   <v>       0.02651105      -0.09517968      -0.00000000 </v>
  </varray>
  <varray name="stress" >
   <v>     223.02879218       0.00000003       0.00000000 </v>
   <v>      -0.00000003     223.02879218       0.00000000 </v>
   <v>      -0.00000000       0.00000000     206.03332434 </v>
  </varray>
  <energy>
   <i name="e_fr_energy">    -94.12623935 </i>
   <i name="e_wo_entrp">    -94.12611264 </i>
   <i name="e_0_energy">     -0.00050686 </i>
  </energy>
  <time name="totalsc">   10.77   11.31</time>
 </calculation>
 <calculation>
  <scstep>
   <time name="dav">    2.92    2.92</time>
   <time name="total">    3.09    3.09</time>
   <energy>
    <i name="alphaZ">     86.87435279 </i>
    <i name="ewald">  -2328.10719792 </i>
    <i name="hartreedc">   -582.05885822 </i>
    <i name="XCdc">     64.10562534 </i>
    <i name="pawpsdc">   9693.89872448 </i>
    <i name="pawaedc">  -9562.37722432 </i>
    <i name="eentropy">     -0.00063565 </i>
    <i name="bandstr">    122.16087192 </i>
    <i name="atom">   2411.37598431 </i>
    <i name="e_fr_energy">    -94.12835728 </i>
    <i name="e_wo_entrp">    -94.12772163 </i>
    <i name="e_0_energy">    -94.12819837 </i>
   </energy>
  </scstep>
  <scstep>
   <time name="diag">    0.42    0.42</time>
   <time name="diis">    2.14    2.14</time>
   <time name="orth">    0.04    0.04</time>
   <time name="total">    2.77    2.78</time>
   <energy>
    <i name="e_fr_energy">    -94.12985512 </i>
    <i name="e_wo_entrp">    -94.12922213 </i>
    <i name="e_0_energy">    -94.12969688 </i>
   </energy>
  </scstep>
  <scstep>
   <time name="diag">    0.41    0.41</time>
   <time name="diis">    2.07    2.08</time>
   <time name="orth">    0.04    0.04</time>
   <time name="total">    2.70    2.70</time>
   <energy>
    <i name="e_fr_energy">    -94.12967148 </i>
    <i name="e_wo_entrp">    -94.12904678 </i>
    <i name="e_0_energy">    -94.12951531 </i>
   </energy>
  </scstep>
  <scstep>
   <time name="diag">    0.42    0.42</time>
   <time name="diis">    1.36    1.36</time>
   <time name="orth">    0.04    0.04</time>
   <time name="total">    1.95    2.06</time>
   <energy>
    <i name="alphaZ">     86.87435279 </i>
    <i name="ewald">  -2328.10719792 </i>
    <i name="hartreedc">   -582.12241232 </i>
    <i name="XCdc">     64.11314164 </i>
    <i name="pawpsdc">   9686.60929323 </i>
    <i name="pawaedc">  -9555.08754057 </i>
    <i name="eentropy">     -0.00061191 </i>
    <i name="bandstr">    122.21537189 </i>
    <i name="atom">   2411.37598431 </i>
    <i name="e_fr_energy">    -94.12961887 </i>
    <i name="e_wo_entrp">    -94.12900696 </i>
    <i name="e_0_energy">    -94.12946589 </i>
   </energy>
  </scstep>
  <structure>
   <crystal>
    <varray name="basis" >
     <v>       3.86159700      -6.68848219       0.00000000 </v>
     <v>       3.86159699       6.68848219       0.00000000 </v>
     <v>       0.00000000       0.00000000       2.71647965 </v>
    </varray>
    <i name="volume">    140.32368288 </i>
    <varray name="rec_basis" >
     <v>       0.12948011      -0.07475538       0.00000000 </v>
     <v>       0.12948011       0.07475538       0.00000000 </v>
     <v>       0.00000000       0.00000000       0.36812350 </v>
    </varray>
   </crystal>
   <varray name="positions" >
    <v>       0.19451104       0.83219581       0.75000000 </v>
    <v>       0.36231523       0.19451104       0.25000000 </v>
    <v>       0.83219581       0.63768477       0.25000000 </v>
    <v>       0.16780419       0.36231523       0.75000000 </v>
    <v>       0.63768477       0.80548896       0.75000000 </v>
    <v>       0.80548896       0.16780419       0.25000000 </v>
    <v>       0.33333333       0.66666667       0.75000000 </v>
    <v>       0.66666667       0.33333333       0.25000000 </v>
    <v>       0.96261976       0.61093019       0.75000000 </v>
    <v>       0.35168957       0.96261976       0.25000000 </v>
    <v>       0.61093019       0.64831043       0.25000000 </v>
    <v>       0.38906981       0.35168957       0.75000000 </v>
    <v>       0.03738024       0.38906981       0.25000000 </v>
    <v>       0.64831043       0.03738024       0.75000000 </v>
   </varray>
  </structure>
  <varray name="forces" >
   <v>      -0.03237096       0.01297536      -0.00000000 </v>
   <v>      -0.02742247      -0.02154639      -0.00000000 </v>
   <v>      -0.00494849       0.03452175      -0.00000000 </v>
   <v>       0.00494849      -0.03452175      -0.00000000 </v>
   <v>       0.02742247       0.02154639      -0.00000000 </v>
   <v>       0.03237096      -0.01297536       0.00000000 </v>
   <v>      -0.00000000       0.00000000       0.00000000 </v>
   <v>      -0.00000000      -0.00000000       0.00000000 </v>
   <v>       0.02115866       0.00938435      -0.00000000 </v>
   <v>       0.00245224       0.02301612       0.00000000 </v>
   <v>       0.01870642      -0.01363176       0.00000000 </v>
   <v>      -0.01870642       0.01363176       0.00000000 </v>
   <v>      -0.02115866      -0.00938435       0.00000000 </v>
   <v>      -0.00245224      -0.02301612      -0.00000000 </v>
  </varray>
  <varray name="stress" >
   <v>     222.20509111      -0.00000015      -0.00000000 </v>
   <v>       0.00000015     222.20509111       0.00000000 </v>
   <v>       0.00000000       0.00000000     204.97676376 </v>
  </varray>
  <energy>
   <i name="e_fr_energy">    -94.12961887 </i>
   <i name="e_wo_entrp">    -94.12946589 </i>
   <i name="e_0_energy">     -0.00061191 </i>
  </energy>
  <time name="totalsc">   15.34   15.69</time>
 </calculation>
 <calculation>
  <scstep>
   <time name="dav">    3.23    3.23</time>
   <time name="total">    3.52    3.65</time>
   <energy>
    <i name="alphaZ">     86.87435279 </i>
    <i name="ewald">  -2328.93446985 </i>
    <i name="hartreedc">   -581.32690674 </i>
    <i name="XCdc">     64.10243894 </i>
    <i name="pawpsdc">   9688.91885443 </i>
    <i name="pawaedc">  -9557.39661328 </i>
    <i name="eentropy">     -0.00065453 </i>
    <i name="bandstr">    122.25736990 </i>
    <i name="atom">   2411.37598431 </i>
    <i name="e_fr_energy">    -94.12964404 </i>
    <i name="e_wo_entrp">    -94.12898951 </i>
    <i name="e_0_energy">    -94.12948041 </i>
   </energy>
  </scstep>
  <scstep>
   <time name="diag">    0.75    0.75</time>
   <time name="diis">    2.05    2.05</time>
   <time name="orth">    0.04    0.04</time>
   <time name="total">    3.01    3.01</time>
   <energy>
    <i name="e_fr_energy">    -94.12978938 </i>
    <i name="e_wo_entrp">    -94.12913568 </i>
    <i name="e_0_energy">    -94.12962596 </i>
   </energy>
  </scstep>
  <scstep>
   <time name="diag">    0.41    0.41</time>
   <time name="diis">    1.33    1.33</time>
   <time name="orth">    0.04    0.04</time>
   <time name="total">    1.81    1.81</time>
   <energy>
    <i name="alphaZ">     86.87435279 </i>
    <i name="ewald">  -2328.93446985 </i>
    <i name="hartreedc">   -581.36075655 </i>
    <i name="XCdc">     64.10521288 </i>
    <i name="pawpsdc">   9685.90372502 </i>
    <i name="pawaedc">  -9554.38162870 </i>
    <i name="eentropy">     -0.00065090 </i>
    <i name="bandstr">    122.28845992 </i>
    <i name="atom">   2411.37598431 </i>
    <i name="e_fr_energy">    -94.12977110 </i>
    <i name="e_wo_entrp">    -94.12912019 </i>
    <i name="e_0_energy">    -94.12960837 </i>
   </energy>
  </scstep>
  <structure>
   <crystal>
    <varray name="basis" >
     <v>       3.86159700      -6.68848219       0.00000000 </v>
     <v>       3.86159699       6.68848219       0.00000000 </v>
     <v>       0.00000000       0.00000000       2.71647965 </v>
    </varray>
    <i name="volume">    140.32368288 </i>
    <varray name="rec_basis" >
     <v>       0.12948011      -0.07475538       0.00000000 </v>
     <v>       0.12948011       0.07475538       0.00000000 </v>
     <v>       0.00000000       0.00000000       0.36812350 </v>
    </varray>
   </crystal>
   <varray name="positions" >
    <v>       0.19424462       0.83218717       0.75000000 </v>
    <v>       0.36205745       0.19424462       0.25000000 </v>
    <v>       0.83218717       0.63794255       0.25000000 </v>
    <v>       0.16781283       0.36205745       0.75000000 </v>
    <v>       0.63794255       0.80575538       0.75000000 </v>
    <v>       0.80575538       0.16781283       0.25000000 </v>
    <v>       0.33333333       0.66666667       0.75000000 </v>
    <v>       0.66666667       0.33333333       0.25000000 </v>
    <v>       0.96250232       0.61103798       0.75000000 </v>
    <v>       0.35146434       0.96250232       0.25000000 </v>
    <v>       0.61103798       0.64853566       0.25000000 </v>
    <v>       0.38896202       0.35146434       0.75000000 </v>
    <v>       0.03749768       0.38896202       0.25000000 </v>
    <v>       0.64853566       0.03749768       0.75000000 </v>
   </varray>
  </structure>
  <varray name="forces" >
   <v>      -0.00899328       0.00061442      -0.00000000 </v>
   <v>      -0.00502874      -0.00748120       0.00000000 </v>
   <v>      -0.00396454       0.00809562      -0.00000000 </v>
   <v>       0.00396454      -0.00809562       0.00000000 </v>
   <v>       0.00502874       0.00748120      -0.00000000 </v>
   <v>       0.00899328      -0.00061442       0.00000000 </v>
   <v>      -0.00000000      -0.00000000      -0.00000000 </v>
   <v>      -0.00000000      -0.00000000      -0.00000000 </v>
   <v>       0.00552755      -0.01024756      -0.00000000 </v>
   <v>       0.01163843      -0.00033678       0.00000000 </v>
   <v>      -0.00611087      -0.00991078       0.00000000 </v>
   <v>       0.00611087       0.00991078      -0.00000000 </v>
   <v>      -0.00552755       0.01024756       0.00000000 </v>
   <v>      -0.01163843       0.00033678      -0.00000000 </v>
  </varray>
  <varray name="stress" >
   <v>     221.97062876      -0.00000004       0.00000000 </v>
   <v>       0.00000004     221.97062876       0.00000000 </v>
   <v>       0.00000000       0.00000000     204.78233332 </v>
  </varray>
  <energy>
   <i name="e_fr_energy">    -94.12977110 </i>
   <i name="e_wo_entrp">    -94.12960837 </i>
   <i name="e_0_energy">     -0.00065090 </i>
  </energy>
  <time name="totalsc">   12.83   12.99</time>
  <eigenvalues>
   <array>
    <dimension dim="1">band</dimension>
    <dimension dim="2">kpoint</dimension>
    <dimension dim="3">spin</dimension>
    <field>eigene</field>
    <field>occ</field>
    <set>
     <set comment="spin 1">
      <set comment="kpoint 1">
       <r>   -9.8131    1.0000 </r>
       <r>   -8.5092    1.0000 </r>
       <r>   -8.5092    1.0000 </r>
       <r>   -7.8398    1.0000 </r>
       <r>   -7.8398    1.0000 </r>
       <r>   -7.6752    1.0000 </r>
       <r>   -1.3588    1.0000 </r>
       <r>   -1.3588    1.0000 </r>
       <r>   -1.2675    1.0000 </r>
       <r>   -0.4448    1.0000 </r>
       <r>    0.8983    1.0000 </r>
       <r>    1.4730    1.0000 </r>
       <r>    1.4730    1.0000 </r>
       <r>    3.3848    1.0000 </r>
       <r>    3.3848    1.0000 </r>
       <r>    4.5647    1.0000 </r>
       <r>    4.7199    1.0000 </r>
       <r>    4.7199    1.0000 </r>
       <r>    5.2959    1.0000 </r>
       <r>    5.5421    1.0000 </r>
       <r>    6.1132    1.0000 </r>
       <r>    6.1132    1.0000 </r>
       <r>    6.6639    1.0000 </r>
       <r>    6.6639    1.0000 </r>
       <r>    6.8556    1.0000 </r>
       <r>    7.9011    1.0000 </r>
       <r>    7.9830    1.0000 </r>
       <r>    7.9830    1.0000 </r>
       <r>   10.0139    1.0000 </r>
       <r>   10.1759    1.0000 </r>
       <r>   10.1759    1.0000 </r>
       <r>   14.5809    0.0000 </r>
       <r>   14.6938    0.0000 </r>
       <r>   14.6938    0.0000 </r>
       <r>   15.2217    0.0000 </r>
       <r>   15.2217    0.0000 </r>
       <r>   15.9304    0.0000 </r>
       <r>   16.1513    0.0000 </r>
       <r>   16.5155    0.0000 </r>
       <r>   16.5167    0.0000 </r>
      </set>
      <set comment="kpoint 2">
       <r>   -9.7707    1.0000 </r>
       <r>   -8.6079    1.0000 </r>
       <r>   -8.5526    1.0000 </r>
       <r>   -8.0115    1.0000 </r>
       <r>   -7.7725    1.0000 </r>
       <r>   -7.4316    1.0000 </r>
       <r>   -1.6604    1.0000 </r>
       <r>   -1.3535    1.0000 </r>
       <r>   -1.2016    1.0000 </r>
       <r>   -0.1458    1.0000 </r>
       <r>    0.7512    1.0000 </r>
       <r>    1.3700    1.0000 </r>
       <r>    1.5998    1.0000 </r>
       <r>    3.2927    1.0000 </r>
       <r>    3.4566    1.0000 </r>
       <r>    4.4513    1.0000 </r>
       <r>    4.6341    1.0000 </r>
       <r>    4.8775    1.0000 </r>
       <r>    5.5662    1.0000 </r>
       <r>    5.5692    1.0000 </r>
       <r>    6.0821    1.0000 </r>
       <r>    6.1065    1.0000 </r>
       <r>    6.6206    1.0000 </r>
       <r>    6.6783    1.0000 </r>
       <r>    6.9113    1.0000 </r>
       <r>    7.7373    1.0000 </r>
       <r>    7.7851    1.0000 </r>
       <r>    8.0267    1.0000 </r>
       <r>    9.9571    1.0000 </r>
       <r>   10.3430    1.0000 </r>
       <r>   10.3942    1.0000 </r>
       <r>   14.2128    0.0000 </r>
       <r>   14.5501    0.0000 </r>
       <r>   14.7194    0.0000 </r>
       <r>   15.1162    0.0000 </r>
       <r>   15.2852    0.0000 </r>
       <r>   15.9602    0.0000 </r>
       <r>   16.1975    0.0000 </r>
       <r>   16.3341    0.0000 </r>
       <r>   16.4605    0.0000 </r>
      </set>
      <set comment="kpoint 3">
       <r>   -9.6462    1.0000 </r>
       <r>   -8.8654    1.0000 </r>
       <r>   -8.6306    1.0000 </r>
       <r>   -8.1120    1.0000 </r>
       <r>   -7.6389    1.0000 </r>
       <r>   -7.1644    1.0000 </r>
       <r>   -2.0771    1.0000 </r>
       <r>   -1.3422    1.0000 </r>
       <r>   -1.0157    1.0000 </r>
       <r>    0.1383    1.0000 </r>
       <r>    0.4975    1.0000 </r>
       <r>    1.1534    1.0000 </r>
       <r>    2.0099    1.0000 </r>
       <r>    3.1117    1.0000 </r>
       <r>    3.4502    1.0000 </r>
       <r>    4.3089    1.0000 </r>
       <r>    4.6230    1.0000 </r>
       <r>    5.1404    1.0000 </r>
       <r>    5.6311    1.0000 </r>
       <r>    5.9945    1.0000 </r>
       <r>    5.9973    1.0000 </r>
       <r>    6.0868    1.0000 </r>
       <r>    6.5646    1.0000 </r>
       <r>    6.7065    1.0000 </r>
       <r>    6.9930    1.0000 </r>
       <r>    7.2487    1.0000 </r>
       <r>    7.4267    1.0000 </r>
       <r>    8.3573    1.0000 </r>
       <r>    9.7759    1.0000 </r>
       <r>   10.6381    1.0000 </r>
       <r>   10.8795    0.9986 </r>
       <r>   13.3075    0.0000 </r>
       <r>   14.2913    0.0000 </r>
       <r>   14.7953    0.0000 </r>
       <r>   15.0673    0.0000 </r>
       <r>   15.4034    0.0000 </r>
       <r>   15.9527    0.0000 </r>
       <r>   16.0395    0.0000 </r>
       <r>   16.1406    0.0000 </r>
       <r>   16.3367    0.0000 </r>
      </set>
      <set comment="kpoint 4">
       <r>   -9.4523    1.0000 </r>
       <r>   -9.1562    1.0000 </r>
       <r>   -8.6816    1.0000 </r>
       <r>   -8.1425    1.0000 </r>
       <r>   -7.5409    1.0000 </r>
       <r>   -7.0104    1.0000 </r>
       <r>   -2.3228    1.0000 </r>
       <r>   -1.3326    1.0000 </r>
       <r>   -0.7738    1.0000 </r>
       <r>   -0.0766    1.0000 </r>
       <r>    0.5401    1.0000 </r>
       <r>    0.9916    1.0000 </r>
       <r>    2.6330    1.0000 </r>
       <r>    2.9861    1.0000 </r>
       <r>    3.2163    1.0000 </r>
       <r>    3.9314    1.0000 </r>
       <r>    4.9652    1.0000 </r>
       <r>    5.3418    1.0000 </r>
       <r>    5.7284    1.0000 </r>
       <r>    5.8805    1.0000 </r>
       <r>    6.0750    1.0000 </r>
       <r>    6.1712    1.0000 </r>
       <r>    6.5372    1.0000 </r>
       <r>    6.7268    1.0000 </r>
       <r>    6.8405    1.0000 </r>
       <r>    7.0419    1.0000 </r>
       <r>    7.2573    1.0000 </r>
       <r>    8.7586    1.0000 </r>
       <r>    9.5058    1.0000 </r>
       <r>   10.8110    0.9999 </r>
       <r>   11.5013    0.0000 </r>
       <r>   12.3620    0.0000 </r>
       <r>   14.1155    0.0000 </r>
       <r>   14.9273    0.0000 </r>
       <r>   15.1024    0.0000 </r>
       <r>   15.3475    0.0000 </r>
       <r>   15.8228    0.0000 </r>
       <r>   16.0637    0.0000 </r>
       <r>   16.1401    0.0000 </r>
       <r>   16.1891    0.0000 </r>
      </set>
      <set comment="kpoint 5">
       <r>   -9.6872    1.0000 </r>
       <r>   -8.7220    1.0000 </r>
       <r>   -8.6987    1.0000 </r>
       <r>   -8.0510    1.0000 </r>
       <r>   -7.7023    1.0000 </r>
       <r>   -7.2215    1.0000 </r>
       <r>   -1.9908    1.0000 </r>
       <r>   -1.3143    1.0000 </r>
       <r>   -1.0720    1.0000 </r>
       <r>    0.0529    1.0000 </r>
       <r>    0.5278    1.0000 </r>
       <r>    1.3362    1.0000 </r>
       <r>    1.7979    1.0000 </r>
       <r>    3.0919    1.0000 </r>
       <r>    3.6096    1.0000 </r>
       <r>    4.3286    1.0000 </r>
       <r>    4.5153    1.0000 </r>
       <r>    5.1166    1.0000 </r>
       <r>    5.6098    1.0000 </r>
       <r>    5.8906    1.0000 </r>
       <r>    6.0333    1.0000 </r>
       <r>    6.0791    1.0000 </r>
       <r>    6.5857    1.0000 </r>
       <r>    6.6913    1.0000 </r>
       <r>    6.9734    1.0000 </r>
       <r>    7.3816    1.0000 </r>
       <r>    7.5259    1.0000 </r>
       <r>    8.2494    1.0000 </r>
       <r>    9.8402    1.0000 </r>
       <r>   10.5901    1.0000 </r>
       <r>   10.7061    1.0000 </r>
       <r>   13.6428    0.0000 </r>
       <r>   14.1767    0.0000 </r>
       <r>   14.8074    0.0000 </r>
       <r>   15.0600    0.0000 </r>
       <r>   15.4200    0.0000 </r>
       <r>   16.0147    0.0000 </r>
       <r>   16.0818    0.0000 </r>
       <r>   16.2578    0.0000 </r>
       <r>   16.3627    0.0000 </r>
      </set>
      <set comment="kpoint 6">
       <r>   -9.5258    1.0000 </r>
       <r>   -8.9922    1.0000 </r>
       <r>   -8.7940    1.0000 </r>
       <r>   -8.0325    1.0000 </r>
       <r>   -7.6250    1.0000 </r>
       <r>   -7.0314    1.0000 </r>
       <r>   -2.2985    1.0000 </r>
       <r>   -1.2315    1.0000 </r>
       <r>   -0.8382    1.0000 </r>
       <r>   -0.0636    1.0000 </r>
       <r>    0.2517    1.0000 </r>
       <r>    1.4495    1.0000 </r>
       <r>    2.2273    1.0000 </r>
       <r>    2.8621    1.0000 </r>
       <r>    3.6402    1.0000 </r>
       <r>    4.0447    1.0000 </r>
       <r>    4.5941    1.0000 </r>
       <r>    5.3831    1.0000 </r>
       <r>    5.6924    1.0000 </r>
       <r>    5.9440    1.0000 </r>
       <r>    6.0432    1.0000 </r>
       <r>    6.1329    1.0000 </r>
       <r>    6.5674    1.0000 </r>
       <r>    6.7034    1.0000 </r>
       <r>    7.0336    1.0000 </r>
       <r>    7.1216    1.0000 </r>
       <r>    7.1673    1.0000 </r>
       <r>    8.6238    1.0000 </r>
       <r>    9.6109    1.0000 </r>
       <r>   10.8858    0.9983 </r>
       <r>   11.1432    0.4832 </r>
       <r>   12.7818    0.0000 </r>
       <r>   13.8158    0.0000 </r>
       <r>   14.8988    0.0000 </r>
       <r>   15.0842    0.0000 </r>
       <r>   15.5961    0.0000 </r>
       <r>   15.7483    0.0000 </r>
       <r>   16.1101    0.0000 </r>
       <r>   16.2168    0.0000 </r>
       <r>   16.2503    0.0000 </r>
      </set>
      <set comment="kpoint 7">
       <r>   -9.3434    1.0000 </r>
       <r>   -9.2251    1.0000 </r>
       <r>   -8.8239    1.0000 </r>
       <r>   -8.0232    1.0000 </r>
       <r>   -7.5886    1.0000 </r>
       <r>   -6.9598    1.0000 </r>
       <r>   -2.4149    1.0000 </r>
       <r>   -1.1805    1.0000 </r>
       <r>   -0.6595    1.0000 </r>
       <r>   -0.2340    1.0000 </r>
       <r>    0.1128    1.0000 </r>
       <r>    1.4970    1.0000 </r>
       <r>    2.6330    1.0000 </r>
       <r>    2.7941    1.0000 </r>
       <r>    3.3856    1.0000 </r>
       <r>    3.8866    1.0000 </r>
       <r>    4.7792    1.0000 </r>
       <r>    5.4807    1.0000 </r>
       <r>    5.7706    1.0000 </r>
       <r>    5.8597    1.0000 </r>
       <r>    6.0308    1.0000 </r>
       <r>    6.1636    1.0000 </r>
       <r>    6.5631    1.0000 </r>
       <r>    6.7081    1.0000 </r>
       <r>    6.8666    1.0000 </r>
       <r>    7.0559    1.0000 </r>
       <r>    7.2005    1.0000 </r>
       <r>    8.9103    1.0000 </r>
       <r>    9.3964    1.0000 </r>
       <r>   10.9483    0.9953 </r>
       <r>   11.7074    0.0000 </r>
       <r>   12.0452    0.0000 </r>
       <r>   13.7286    0.0000 </r>
       <r>   14.9307    0.0000 </r>
       <r>   15.2283    0.0000 </r>
       <r>   15.3443    0.0000 </r>
       <r>   15.8130    0.0000 </r>
       <r>   16.1693    0.0000 </r>
       <r>   16.1736    0.0000 </r>
       <r>   16.2275    0.0000 </r>
      </set>
      <set comment="kpoint 8">
       <r>   -9.5258    1.0000 </r>
       <r>   -8.9923    1.0000 </r>
       <r>   -8.7940    1.0000 </r>
       <r>   -8.0324    1.0000 </r>
       <r>   -7.6250    1.0000 </r>
       <r>   -7.0314    1.0000 </r>
       <r>   -2.2985    1.0000 </r>
       <r>   -1.2284    1.0000 </r>
       <r>   -0.8457    1.0000 </r>
       <r>   -0.0497    1.0000 </r>
       <r>    0.2431    1.0000 </r>
       <r>    1.4451    1.0000 </r>
       <r>    2.2171    1.0000 </r>
       <r>    2.9023    1.0000 </r>
       <r>    3.6406    1.0000 </r>
       <r>    3.9667    1.0000 </r>
       <r>    4.6449    1.0000 </r>
       <r>    5.4069    1.0000 </r>
       <r>    5.6928    1.0000 </r>
       <r>    5.9437    1.0000 </r>
       <r>    6.0439    1.0000 </r>
       <r>    6.1231    1.0000 </r>
       <r>    6.5669    1.0000 </r>
       <r>    6.7033    1.0000 </r>
       <r>    6.9793    1.0000 </r>
       <r>    7.0334    1.0000 </r>
       <r>    7.2974    1.0000 </r>
       <r>    8.6288    1.0000 </r>
       <r>    9.6071    1.0000 </r>
       <r>   10.8314    0.9998 </r>
       <r>   11.2120   -0.0219 </r>
       <r>   12.7328    0.0000 </r>
       <r>   13.8673    0.0000 </r>
       <r>   14.9669    0.0000 </r>
       <r>   15.0173    0.0000 </r>
       <r>   15.4871    0.0000 </r>
       <r>   15.8506    0.0000 </r>
       <r>   16.1057    0.0000 </r>
       <r>   16.2037    0.0000 </r>
       <r>   16.2633    0.0000 </r>
      </set>
      <set comment="kpoint 9">
       <r>   -9.3364    1.0000 </r>
       <r>   -9.0984    1.0000 </r>
       <r>   -9.0210    1.0000 </r>
       <r>   -7.8725    1.0000 </r>
       <r>   -7.6944    1.0000 </r>
       <r>   -6.9325    1.0000 </r>
       <r>   -2.4681    1.0000 </r>
       <r>   -0.9470    1.0000 </r>
       <r>   -0.5994    1.0000 </r>
       <r>   -0.4140    1.0000 </r>
       <r>   -0.1551    1.0000 </r>
       <r>    2.0550    1.0000 </r>
       <r>    2.3080    1.0000 </r>
       <r>    2.6401    1.0000 </r>
       <r>    3.5487    1.0000 </r>
       <r>    4.0677    1.0000 </r>
       <r>    4.4571    1.0000 </r>
       <r>    5.5198    1.0000 </r>
       <r>    5.7745    1.0000 </r>
       <r>    5.9092    1.0000 </r>
       <r>    5.9606    1.0000 </r>
       <r>    6.1722    1.0000 </r>
       <r>    6.6088    1.0000 </r>
       <r>    6.6715    1.0000 </r>
       <r>    7.0151    1.0000 </r>
       <r>    7.0648    1.0000 </r>
       <r>    7.1040    1.0000 </r>
       <r>    8.9757    1.0000 </r>
       <r>    9.3584    1.0000 </r>
       <r>   11.1398    0.5197 </r>
       <r>   11.5141    0.0000 </r>
       <r>   12.1164    0.0000 </r>
       <r>   13.4331    0.0000 </r>
       <r>   14.8666    0.0000 </r>
       <r>   15.2396    0.0000 </r>
       <r>   15.4837    0.0000 </r>
       <r>   15.6656    0.0000 </r>
       <r>   16.1769    0.0000 </r>
       <r>   16.2118    0.0000 </r>
       <r>   16.3182    0.0000 </r>
      </set>
      <set comment="kpoint 10">
       <r>   -9.7625    1.0000 </r>
       <r>   -8.4652    1.0000 </r>
       <r>   -8.4652    1.0000 </r>
       <r>   -7.7984    1.0000 </r>
       <r>   -7.7984    1.0000 </r>
       <r>   -7.6380    1.0000 </r>
       <r>   -1.3174    1.0000 </r>
       <r>   -1.3174    1.0000 </r>
       <r>   -1.2102    1.0000 </r>
       <r>   -0.3933    1.0000 </r>
       <r>    0.9238    1.0000 </r>
       <r>    1.5050    1.0000 </r>
       <r>    1.5050    1.0000 </r>
       <r>    3.4303    1.0000 </r>
       <r>    3.4303    1.0000 </r>
       <r>    4.5769    1.0000 </r>
       <r>    4.7287    1.0000 </r>
       <r>    4.7287    1.0000 </r>
       <r>    5.2776    1.0000 </r>
       <r>    5.2867    1.0000 </r>
       <r>    5.8685    1.0000 </r>
       <r>    5.8685    1.0000 </r>
       <r>    6.4110    1.0000 </r>
       <r>    6.4110    1.0000 </r>
       <r>    6.5284    1.0000 </r>
       <r>    8.0008    1.0000 </r>
       <r>    8.0008    1.0000 </r>
       <r>    8.0821    1.0000 </r>
       <r>    9.9570    1.0000 </r>
       <r>   10.2745    1.0000 </r>
       <r>   10.2745    1.0000 </r>
       <r>   14.4816    0.0000 </r>
       <r>   14.8052    0.0000 </r>
       <r>   14.8052    0.0000 </r>
       <r>   14.9160    0.0000 </r>
       <r>   14.9160    0.0000 </r>
       <r>   15.6155    0.0000 </r>
       <r>   15.8497    0.0000 </r>
       <r>   16.0358    0.0000 </r>
       <r>   16.0358    0.0000 </r>
      </set>
      <set comment="kpoint 11">
       <r>   -9.7203    1.0000 </r>
       <r>   -8.5632    1.0000 </r>
       <r>   -8.5081    1.0000 </r>
       <r>   -7.9703    1.0000 </r>
       <r>   -7.7320    1.0000 </r>
       <r>   -7.3952    1.0000 </r>
       <r>   -1.6134    1.0000 </r>
       <r>   -1.3112    1.0000 </r>
       <r>   -1.1447    1.0000 </r>
       <r>   -0.1000    1.0000 </r>
       <r>    0.7816    1.0000 </r>
       <r>    1.4025    1.0000 </r>
       <r>    1.6301    1.0000 </r>
       <r>    3.3380    1.0000 </r>
       <r>    3.4901    1.0000 </r>
[...]
       <r>   12.7297    0.0000 </r>
       <r>   13.7341    0.0000 </r>
       <r>   14.1714    0.0000 </r>
       <r>   14.6623    0.0000 </r>
       <r>   14.7430    0.0000 </r>
      </set>
      <set comment="kpoint 80">
       <r>   -7.1556    1.0000 </r>
       <r>   -6.9966    1.0000 </r>
       <r>   -6.6707    1.0000 </r>
       <r>   -6.5686    1.0000 </r>
       <r>   -6.4530    1.0000 </r>
       <r>   -6.4222    1.0000 </r>
       <r>   -0.8908    1.0000 </r>
       <r>   -0.7462    1.0000 </r>
       <r>   -0.0397    1.0000 </r>
       <r>    0.1742    1.0000 </r>
       <r>    0.5006    1.0000 </r>
       <r>    0.7976    1.0000 </r>
       <r>    1.4872    1.0000 </r>
       <r>    2.0031    1.0000 </r>
       <r>    2.3181    1.0000 </r>
       <r>    2.4692    1.0000 </r>
       <r>    2.6720    1.0000 </r>
       <r>    2.7610    1.0000 </r>
       <r>    3.4099    1.0000 </r>
       <r>    3.6580    1.0000 </r>
       <r>    5.0454    1.0000 </r>
       <r>    5.1896    1.0000 </r>
       <r>    5.3134    1.0000 </r>
       <r>    5.5677    1.0000 </r>
       <r>    6.5362    1.0000 </r>
       <r>    6.7529    1.0000 </r>
       <r>    7.1963    1.0000 </r>
       <r>    7.3533    1.0000 </r>
       <r>    7.8712    1.0000 </r>
       <r>    8.2057    1.0000 </r>
       <r>    9.7772    1.0000 </r>
       <r>   10.0139    1.0000 </r>
       <r>   11.9539    0.0000 </r>
       <r>   12.1732    0.0000 </r>
       <r>   12.4784    0.0000 </r>
       <r>   12.9130    0.0000 </r>
       <r>   13.5999    0.0000 </r>
       <r>   14.1016    0.0000 </r>
       <r>   14.6669    0.0000 </r>
       <r>   14.7814    0.0000 </r>
      </set>
      <set comment="kpoint 81">
       <r>   -7.0995    1.0000 </r>
       <r>   -7.0376    1.0000 </r>
       <r>   -6.7110    1.0000 </r>
       <r>   -6.5294    1.0000 </r>
       <r>   -6.4808    1.0000 </r>
       <r>   -6.4144    1.0000 </r>
       <r>   -0.9101    1.0000 </r>
       <r>   -0.8520    1.0000 </r>
       <r>    0.1865    1.0000 </r>
       <r>    0.3183    1.0000 </r>
       <r>    0.4500    1.0000 </r>
       <r>    0.8102    1.0000 </r>
       <r>    1.4436    1.0000 </r>
       <r>    1.9016    1.0000 </r>
       <r>    2.3792    1.0000 </r>
       <r>    2.4366    1.0000 </r>
       <r>    2.6080    1.0000 </r>
       <r>    2.6348    1.0000 </r>
       <r>    3.4938    1.0000 </r>
       <r>    3.6078    1.0000 </r>
       <r>    5.0668    1.0000 </r>
       <r>    5.1335    1.0000 </r>
       <r>    5.2172    1.0000 </r>
       <r>    5.5964    1.0000 </r>
       <r>    6.6290    1.0000 </r>
       <r>    6.7174    1.0000 </r>
       <r>    7.1353    1.0000 </r>
       <r>    7.2168    1.0000 </r>
       <r>    8.1240    1.0000 </r>
       <r>    8.4768    1.0000 </r>
       <r>    9.8821    1.0000 </r>
       <r>    9.9175    1.0000 </r>
       <r>   12.0002    0.0000 </r>
       <r>   12.0811    0.0000 </r>
       <r>   12.2814    0.0000 </r>
       <r>   12.6391    0.0000 </r>
       <r>   13.9229    0.0000 </r>
       <r>   14.2087    0.0000 </r>
       <r>   14.6169    0.0000 </r>
       <r>   14.6631    0.0000 </r>
      </set>
     </set>
    </set>
   </array>
  </eigenvalues>
  <separator name="orbital magnetization" >
   <v name="MAGDIPOLOUT">      0.00000000      0.00000000      0.00000000</v>
  </separator>
  <dos>
   <i name="efermi">     11.14164938 </i>
   <total>
    <array>
     <dimension dim="1">gridpoints</dimension>
     <dimension dim="2">spin</dimension>
     <field>energy</field>
     <field>total</field>
     <field>integrated</field>
     <set>
      <set comment="spin 1">
       <r>   -11.1369     0.0000     0.0000 </r>
       <r>   -11.0398     0.0000     0.0000 </r>
       <r>   -10.9427     0.0000     0.0000 </r>
       <r>   -10.8457     0.0000     0.0000 </r>
       <r>   -10.7486     0.0000     0.0000 </r>
       <r>   -10.6515     0.0000     0.0000 </r>
       <r>   -10.5544     0.0000     0.0000 </r>
       <r>   -10.4573     0.0000     0.0000 </r>
       <r>   -10.3603     0.0000     0.0000 </r>
       <r>   -10.2632     0.0000     0.0000 </r>
       <r>   -10.1661     0.0000     0.0000 </r>
       <r>   -10.0690     0.0001     0.0000 </r>
       <r>    -9.9720     0.0014     0.0001 </r>
       <r>    -9.8749    -0.0109    -0.0009 </r>
       <r>    -9.7778     0.1033     0.0091 </r>
       <r>    -9.6807     0.5122     0.0588 </r>
       <r>    -9.5836     0.7975     0.1363 </r>
       <r>    -9.4866     1.0765     0.2408 </r>
       <r>    -9.3895     1.1435     0.3518 </r>
       <r>    -9.2924     1.4802     0.4955 </r>
       <r>    -9.1953     1.4470     0.6360 </r>
       <r>    -9.0982     1.4912     0.7807 </r>
       <r>    -9.0012     1.8459     0.9599 </r>
       <r>    -8.9041     2.2994     1.1831 </r>
       <r>    -8.8070     2.1588     1.3927 </r>
       <r>    -8.7099     2.7735     1.6619 </r>
       <r>    -8.6128     3.1447     1.9672 </r>
       <r>    -8.5158     3.4902     2.3061 </r>
       <r>    -8.4187     2.5761     2.5561 </r>
       <r>    -8.3216     2.5658     2.8052 </r>
       <r>    -8.2245     2.1163     3.0107 </r>
       <r>    -8.1275     1.9415     3.1992 </r>
       <r>    -8.0304     3.3596     3.5253 </r>
       <r>    -7.9333     4.3157     3.9443 </r>
       <r>    -7.8362     3.4856     4.2826 </r>
       <r>    -7.7391     2.7132     4.5460 </r>
       <r>    -7.6421     4.6656     4.9990 </r>
       <r>    -7.5450     5.0359     5.4878 </r>
       <r>    -7.4479     4.9571     5.9691 </r>
       <r>    -7.3508     3.9935     6.3568 </r>
       <r>    -7.2537     3.8703     6.7325 </r>
       <r>    -7.1567     5.5805     7.2742 </r>
       <r>    -7.0596     4.9984     7.7595 </r>
       <r>    -6.9625     6.0360     8.3454 </r>
       <r>    -6.8654     6.5124     8.9776 </r>
       <r>    -6.7684     4.3259     9.3976 </r>
       <r>    -6.6713     4.2717     9.8123 </r>
       <r>    -6.5742     5.4872    10.3450 </r>
       <r>    -6.4771     5.6230    10.8908 </r>
       <r>    -6.3800     6.9611    11.5666 </r>
       <r>    -6.2830     3.0514    11.8628 </r>
       <r>    -6.1859     1.4966    12.0081 </r>
       <r>    -6.0888    -0.0923    11.9992 </r>
       <r>    -5.9917     0.0067    11.9998 </r>
       <r>    -5.8946     0.0020    12.0000 </r>
       <r>    -5.7976     0.0000    12.0000 </r>
       <r>    -5.7005     0.0000    12.0000 </r>
       <r>    -5.6034     0.0000    12.0000 </r>
       <r>    -5.5063     0.0000    12.0000 </r>
       <r>    -5.4093     0.0000    12.0000 </r>
       <r>    -5.3122     0.0000    12.0000 </r>
       <r>    -5.2151     0.0000    12.0000 </r>
       <r>    -5.1180     0.0000    12.0000 </r>
       <r>    -5.0209     0.0000    12.0000 </r>
       <r>    -4.9239     0.0000    12.0000 </r>
       <r>    -4.8268     0.0000    12.0000 </r>
       <r>    -4.7297     0.0000    12.0000 </r>
       <r>    -4.6326     0.0000    12.0000 </r>
       <r>    -4.5355     0.0000    12.0000 </r>
       <r>    -4.4385     0.0000    12.0000 </r>
       <r>    -4.3414     0.0000    12.0000 </r>
       <r>    -4.2443     0.0000    12.0000 </r>
       <r>    -4.1472     0.0000    12.0000 </r>
       <r>    -4.0501     0.0000    12.0000 </r>
       <r>    -3.9531     0.0000    12.0000 </r>
       <r>    -3.8560     0.0000    12.0000 </r>
       <r>    -3.7589     0.0000    12.0000 </r>
       <r>    -3.6618     0.0000    12.0000 </r>
       <r>    -3.5648     0.0000    12.0000 </r>
       <r>    -3.4677     0.0000    12.0000 </r>
       <r>    -3.3706     0.0000    12.0000 </r>
       <r>    -3.2735     0.0000    12.0000 </r>
       <r>    -3.1764     0.0000    12.0000 </r>
       <r>    -3.0794     0.0000    12.0000 </r>
       <r>    -2.9823     0.0000    12.0000 </r>
       <r>    -2.8852     0.0000    12.0000 </r>
       <r>    -2.7881     0.0000    12.0000 </r>
       <r>    -2.6910     0.0010    12.0001 </r>
       <r>    -2.5940    -0.0032    11.9998 </r>
       <r>    -2.4969     0.0121    12.0010 </r>
       <r>    -2.3998     0.4313    12.0428 </r>
       <r>    -2.3027     0.7680    12.1174 </r>
       <r>    -2.2057     1.3080    12.2444 </r>
       <r>    -2.1086     0.6338    12.3059 </r>
       <r>    -2.0115     1.0031    12.4033 </r>
       <r>    -1.9144     0.8676    12.4875 </r>
       <r>    -1.8173     1.1091    12.5952 </r>
       <r>    -1.7203     0.5519    12.6487 </r>
       <r>    -1.6232     0.4781    12.6952 </r>
       <r>    -1.5261     1.1505    12.8068 </r>
       <r>    -1.4290     1.0439    12.9082 </r>
       <r>    -1.3319     0.6955    12.9757 </r>
       <r>    -1.2349     2.1892    13.1882 </r>
       <r>    -1.1378     2.8027    13.4603 </r>
       <r>    -1.0407     2.2479    13.6785 </r>
       <r>    -0.9436     3.1509    13.9844 </r>
       <r>    -0.8465     3.5610    14.3301 </r>
       <r>    -0.7495     5.3123    14.8458 </r>
       <r>    -0.6524     3.9601    15.2303 </r>
       <r>    -0.5553     6.3624    15.8479 </r>
       <r>    -0.4582     4.6665    16.3010 </r>
       <r>    -0.3612     3.7286    16.6629 </r>
       <r>    -0.2641     2.2173    16.8782 </r>
       <r>    -0.1670     3.2775    17.1964 </r>
       <r>    -0.0699     3.4199    17.5284 </r>
       <r>     0.0272     4.4099    17.9565 </r>
       <r>     0.1242     4.2887    18.3728 </r>
       <r>     0.2213     4.7182    18.8308 </r>
       <r>     0.3184     5.0393    19.3200 </r>
       <r>     0.4155     3.5393    19.6636 </r>
       <r>     0.5126     3.6746    20.0204 </r>
       <r>     0.6096     5.1179    20.5172 </r>
       <r>     0.7067     4.0612    20.9115 </r>
       <r>     0.8038     4.1474    21.3141 </r>
       <r>     0.9009     5.3665    21.8351 </r>
       <r>     0.9979     3.0010    22.1264 </r>
       <r>     1.0950     2.1381    22.3339 </r>
       <r>     1.1921     3.0930    22.6342 </r>
       <r>     1.2892     3.8852    23.0114 </r>
       <r>     1.3863     3.8402    23.3842 </r>
       <r>     1.4833     5.1604    23.8852 </r>
       <r>     1.5804     4.0369    24.2770 </r>
       <r>     1.6775     4.6684    24.7302 </r>
       <r>     1.7746     2.7730    24.9994 </r>
       <r>     1.8717     2.6487    25.2566 </r>
       <r>     1.9687     3.1928    25.5665 </r>
       <r>     2.0658     4.3438    25.9882 </r>
       <r>     2.1629     4.2605    26.4018 </r>
       <r>     2.2600     4.0400    26.7940 </r>
       <r>     2.3571     5.4929    27.3273 </r>
       <r>     2.4541     4.5431    27.7683 </r>
       <r>     2.5512     4.3950    28.1950 </r>
       <r>     2.6483     5.8599    28.7638 </r>
       <r>     2.7454     7.8779    29.5286 </r>
       <r>     2.8424     6.1494    30.1256 </r>
       <r>     2.9395     4.6893    30.5808 </r>
       <r>     3.0366     3.9210    30.9615 </r>
       <r>     3.1337     3.9214    31.3421 </r>
       <r>     3.2308     3.7771    31.7088 </r>
       <r>     3.3278     3.5739    32.0558 </r>
       <r>     3.4249     6.6275    32.6991 </r>
       <r>     3.5220     6.6940    33.3490 </r>
       <r>     3.6191     6.2872    33.9593 </r>
       <r>     3.7162     6.2305    34.5642 </r>
       <r>     3.8132     3.1675    34.8717 </r>
       <r>     3.9103     3.7884    35.2395 </r>
       <r>     4.0074     5.7882    35.8014 </r>
       <r>     4.1045     5.5695    36.3421 </r>
       <r>     4.2015     3.3406    36.6664 </r>
       <r>     4.2986     4.4918    37.1024 </r>
       <r>     4.3957     4.0589    37.4964 </r>
       <r>     4.4928     5.4376    38.0243 </r>
       <r>     4.5899     4.8217    38.4924 </r>
       <r>     4.6869     4.6251    38.9414 </r>
       <r>     4.7840     4.1466    39.3440 </r>
       <r>     4.8811     5.1448    39.8434 </r>
       <r>     4.9782     5.2626    40.3543 </r>
       <r>     5.0753     5.5618    40.8942 </r>
       <r>     5.1723     5.5782    41.4357 </r>
       <r>     5.2694     7.7243    42.1856 </r>
       <r>     5.3665     7.3936    42.9034 </r>
       <r>     5.4636     6.3382    43.5187 </r>
       <r>     5.5607     7.6468    44.2610 </r>
       <r>     5.6577     7.2123    44.9612 </r>
       <r>     5.7548     5.8179    45.5260 </r>
       <r>     5.8519     6.2509    46.1328 </r>
       <r>     5.9490     5.3681    46.6539 </r>
       <r>     6.0460     3.4256    46.9865 </r>
       <r>     6.1431     1.8242    47.1636 </r>
       <r>     6.2402     1.9757    47.3554 </r>
       <r>     6.3373     1.4840    47.4995 </r>
       <r>     6.4344     2.2102    47.7140 </r>
       <r>     6.5314     3.8363    48.0864 </r>
       <r>     6.6285     3.9612    48.4710 </r>
       <r>     6.7256     5.2832    48.9839 </r>
       <r>     6.8227     4.3548    49.4066 </r>
       <r>     6.9198     4.5831    49.8515 </r>
       <r>     7.0168     5.2277    50.3590 </r>
       <r>     7.1139     5.7824    50.9204 </r>
       <r>     7.2110     7.3628    51.6352 </r>
       <r>     7.3081     7.4566    52.3590 </r>
       <r>     7.4051     6.6298    53.0026 </r>
       <r>     7.5022     5.8067    53.5663 </r>
       <r>     7.5993     5.0889    54.0604 </r>
       <r>     7.6964     3.7051    54.4201 </r>
       <r>     7.7935     3.8304    54.7919 </r>
       <r>     7.8905     3.9734    55.1776 </r>
       <r>     7.9876     2.6488    55.4348 </r>
       <r>     8.0847     1.8612    55.6155 </r>
       <r>     8.1818     1.7845    55.7887 </r>
       <r>     8.2789     1.1918    55.9044 </r>
       <r>     8.3759     0.9328    55.9950 </r>
       <r>     8.4730     1.5982    56.1501 </r>
       <r>     8.5701     1.7285    56.3179 </r>
       <r>     8.6672     2.5761    56.5680 </r>
       <r>     8.7642     3.1263    56.8715 </r>
       <r>     8.8613     3.3993    57.2015 </r>
       <r>     8.9584     2.8946    57.4825 </r>
       <r>     9.0555     1.7957    57.6568 </r>
       <r>     9.1526     0.9353    57.7476 </r>
       <r>     9.2496     2.7352    58.0132 </r>
       <r>     9.3467     2.7335    58.2785 </r>
       <r>     9.4438     1.3560    58.4102 </r>
       <r>     9.5409     1.5533    58.5610 </r>
       <r>     9.6380     1.7049    58.7265 </r>
       <r>     9.7350     0.9608    58.8197 </r>
       <r>     9.8321     1.9119    59.0053 </r>
       <r>     9.9292     3.8579    59.3799 </r>
       <r>    10.0263     2.9835    59.6695 </r>
       <r>    10.1234     1.2852    59.7943 </r>
       <r>    10.2204     0.7868    59.8706 </r>
       <r>    10.3175     0.7504    59.9435 </r>
       <r>    10.4146     2.0452    60.1420 </r>
       <r>    10.5117     2.4917    60.3839 </r>
       <r>    10.6087     2.3202    60.6092 </r>
       <r>    10.7058     2.1480    60.8177 </r>
       <r>    10.8029     3.6563    61.1726 </r>
       <r>    10.9000     4.0838    61.5691 </r>
       <r>    10.9971     2.2518    61.7877 </r>
       <r>    11.0941     1.2885    61.9128 </r>
       <r>    11.1912     1.7619    62.0838 </r>
       <r>    11.2883     1.2041    62.2007 </r>
       <r>    11.3854     1.4572    62.3422 </r>
       <r>    11.4825     1.4084    62.4789 </r>
       <r>    11.5795     1.7148    62.6454 </r>
       <r>    11.6766     2.2833    62.8670 </r>
       <r>    11.7737     1.8254    63.0442 </r>
       <r>    11.8708     2.1243    63.2505 </r>
       <r>    11.9678     4.9570    63.7317 </r>
       <r>    12.0649     3.9289    64.1131 </r>
       <r>    12.1620     4.8465    64.5836 </r>
       <r>    12.2591     4.5496    65.0253 </r>
       <r>    12.3562     4.6254    65.4743 </r>
       <r>    12.4532     2.8982    65.7556 </r>
       <r>    12.5503     3.1251    66.0590 </r>
       <r>    12.6474     2.5867    66.3101 </r>
       <r>    12.7445     4.4148    66.7387 </r>
       <r>    12.8416     4.3430    67.1603 </r>
       <r>    12.9386     3.3794    67.4884 </r>
       <r>    13.0357     2.8464    67.7647 </r>
       <r>    13.1328     2.2422    67.9824 </r>
       <r>    13.2299     3.8498    68.3561 </r>
       <r>    13.3270     1.6283    68.5142 </r>
       <r>    13.4240     1.9827    68.7067 </r>
       <r>    13.5211     3.4458    69.0412 </r>
       <r>    13.6182     3.8054    69.4106 </r>
       <r>    13.7153     1.5610    69.5621 </r>
       <r>    13.8123     3.4004    69.8922 </r>
       <r>    13.9094     4.7351    70.3519 </r>
       <r>    14.0065     3.8796    70.7285 </r>
       <r>    14.1036     2.8929    71.0094 </r>
       <r>    14.2007     4.0241    71.4000 </r>
       <r>    14.2977     3.4526    71.7352 </r>
       <r>    14.3948     3.5260    72.0775 </r>
       <r>    14.4919     3.4200    72.4095 </r>
       <r>    14.5890     4.0696    72.8046 </r>
       <r>    14.6861     8.3555    73.6157 </r>
       <r>    14.7831     5.5606    74.1556 </r>
       <r>    14.8802     5.0254    74.6434 </r>
       <r>    14.9773     5.8900    75.2152 </r>
       <r>    15.0744     3.6396    75.5685 </r>
       <r>    15.1714     3.7417    75.9318 </r>
       <r>    15.2685     2.9307    76.2163 </r>
       <r>    15.3656     2.7801    76.4862 </r>
       <r>    15.4627     3.1007    76.7872 </r>
       <r>    15.5598     3.0175    77.0801 </r>
       <r>    15.6568     2.0846    77.2825 </r>
       <r>    15.7539     3.6432    77.6362 </r>
       <r>    15.8510     3.1221    77.9393 </r>
       <r>    15.9481     2.8438    78.2153 </r>
       <r>    16.0452     4.5549    78.6575 </r>
       <r>    16.1422     5.1214    79.1547 </r>
       <r>    16.2393     2.9961    79.4455 </r>
       <r>    16.3364     2.1100    79.6504 </r>
       <r>    16.4335     2.7213    79.9146 </r>
       <r>    16.5306     0.8946    80.0014 </r>
       <r>    16.6276    -0.0644    79.9952 </r>
       <r>    16.7247     0.0485    79.9999 </r>
       <r>    16.8218     0.0015    80.0000 </r>
       <r>    16.9189    -0.0003    80.0000 </r>
       <r>    17.0159     0.0001    80.0000 </r>
       <r>    17.1130     0.0000    80.0000 </r>
       <r>    17.2101     0.0000    80.0000 </r>
       <r>    17.3072     0.0000    80.0000 </r>
       <r>    17.4043     0.0000    80.0000 </r>
       <r>    17.5013     0.0000    80.0000 </r>
       <r>    17.5984     0.0000    80.0000 </r>
       <r>    17.6955     0.0000    80.0000 </r>
       <r>    17.7926     0.0000    80.0000 </r>
       <r>    17.8897     0.0000    80.0000 </r>
       <r>    17.9867     0.0000    80.0000 </r>
      </set>
     </set>
    </array>
   </total>
  </dos>
 </calculation>
 <structure name="finalpos" >
  <crystal>
   <varray name="basis" >
    <v>       3.86159700      -6.68848219       0.00000000 </v>
    <v>       3.86159699       6.68848219       0.00000000 </v>
    <v>       0.00000000       0.00000000       2.71647965 </v>
   </varray>
   <i name="volume">    140.32368288 </i>
   <varray name="rec_basis" >
    <v>       0.12948011      -0.07475538       0.00000000 </v>
    <v>       0.12948011       0.07475538       0.00000000 </v>
    <v>       0.00000000       0.00000000       0.36812350 </v>
   </varray>
  </crystal>
  <varray name="positions" >
   <v>       0.19424462       0.83218717       0.75000000 </v>
   <v>       0.36205745       0.19424462       0.25000000 </v>
   <v>       0.83218717       0.63794255       0.25000000 </v>
   <v>       0.16781283       0.36205745       0.75000000 </v>
   <v>       0.63794255       0.80575538       0.75000000 </v>
   <v>       0.80575538       0.16781283       0.25000000 </v>
   <v>       0.33333333       0.66666667       0.75000000 </v>
   <v>       0.66666667       0.33333333       0.25000000 </v>
   <v>       0.96250232       0.61103798       0.75000000 </v>
   <v>       0.35146434       0.96250232       0.25000000 </v>
   <v>       0.61103798       0.64853566       0.25000000 </v>
   <v>       0.38896202       0.35146434       0.75000000 </v>
   <v>       0.03749768       0.38896202       0.25000000 </v>
   <v>       0.64853566       0.03749768       0.75000000 </v>
  </varray>
 </structure>
</modeling>
