unknown system                          
           1
     3.861597   -6.688482    0.000000
     3.861597    6.688482    0.000000
     0.000000    0.000000    2.716480
   Si   N 
   6   8
Direct configuration=     1
   0.19708959  0.83151770  0.75000000
   0.36557189  0.19708959  0.25000000
   0.83151770  0.63442811  0.25000000
   0.16848230  0.36557189  0.75000000
   0.63442811  0.80291041  0.75000000
   0.80291041  0.16848230  0.25000000
   0.33333333  0.66666667  0.75000000
   0.66666667  0.33333333  0.25000000
   0.96358754  0.61246345  0.75000000
   0.35112409  0.96358754  0.25000000
   0.61246345  0.64887591  0.25000000
   0.38753655  0.35112409  0.75000000
   0.03641246  0.38753655  0.25000000
   0.64887591  0.03641246  0.75000000
Direct configuration=     2
   0.19420935  0.83167043  0.75000000
   0.36253893  0.19420935  0.25000000
   0.83167043  0.63746107  0.25000000
   0.16832957  0.36253893  0.75000000
   0.63746107  0.80579065  0.75000000
   0.80579065  0.16832957  0.25000000
   0.33333333  0.66666667  0.75000000
   0.66666667  0.33333333  0.25000000
   0.96412311  0.60970642  0.75000000
   0.35441669  0.96412311  0.25000000
   0.60970642  0.64558331  0.25000000
   0.39029358  0.35441669  0.75000000
   0.03587689  0.39029358  0.25000000
   0.64558331  0.03587689  0.75000000
Direct configuration=     3
   0.19558313  0.83159758  0.75000000
   0.36398555  0.19558313  0.25000000
   0.83159758  0.63601445  0.25000000
   0.16840242  0.36398555  0.75000000
   0.63601445  0.80441687  0.75000000
   0.80441687  0.16840242  0.25000000
   0.33333333  0.66666667  0.75000000
   0.66666667  0.33333333  0.25000000
   0.96386766  0.61102143  0.75000000
   0.35284623  0.96386766  0.25000000
   0.61102143  0.64715377  0.25000000
   0.38897857  0.35284623  0.75000000
   0.03613234  0.38897857  0.25000000
   0.64715377  0.03613234  0.75000000
Direct configuration=     4
   0.19533663  0.83229134  0.75000000
   0.36304529  0.19533663  0.25000000
   0.83229134  0.63695471  0.25000000
   0.16770866  0.36304529  0.75000000
   0.63695471  0.80466337  0.75000000
   0.80466337  0.16770866  0.25000000
   0.33333333  0.66666667  0.75000000
   0.66666667  0.33333333  0.25000000
   0.96289943  0.61053913  0.75000000
   0.35236030  0.96289943  0.25000000
   0.61053913  0.64763970  0.25000000
   0.38946087  0.35236030  0.75000000
   0.03710057  0.38946087  0.25000000
   0.64763970  0.03710057  0.75000000
Direct configuration=     5
   0.19536079  0.83222335  0.75000000
   0.36313743  0.19536079  0.25000000
   0.83222335  0.63686257  0.25000000
   0.16777665  0.36313743  0.75000000
   0.63686257  0.80463921  0.75000000
   0.80463921  0.16777665  0.25000000
   0.33333333  0.66666667  0.75000000
   0.66666667  0.33333333  0.25000000
   0.96299432  0.61058640  0.75000000
   0.35240792  0.96299432  0.25000000
   0.61058640  0.64759208  0.25000000
   0.38941360  0.35240792  0.75000000
   0.03700568  0.38941360  0.25000000
   0.64759208  0.03700568  0.75000000
Direct configuration=     6
   0.19451104  0.83219581  0.75000000
   0.36231523  0.19451104  0.25000000
   0.83219581  0.63768477  0.25000000
   0.16780419  0.36231523  0.75000000
   0.63768477  0.80548896  0.75000000
   0.80548896  0.16780419  0.25000000
   0.33333333  0.66666667  0.75000000
   0.66666667  0.33333333  0.25000000
   0.96261976  0.61093019  0.75000000
   0.35168957  0.96261976  0.25000000
   0.61093019  0.64831043  0.25000000
   0.38906981  0.35168957  0.75000000
   0.03738024  0.38906981  0.25000000
   0.64831043  0.03738024  0.75000000
Direct configuration=     7
   0.19424462  0.83218717  0.75000000
   0.36205745  0.19424462  0.25000000
   0.83218717  0.63794255  0.25000000
   0.16781283  0.36205745  0.75000000
   0.63794255  0.80575538  0.75000000
   0.80575538  0.16781283  0.25000000
   0.33333333  0.66666667  0.75000000
   0.66666667  0.33333333  0.25000000
   0.96250232  0.61103798  0.75000000
   0.35146434  0.96250232  0.25000000
   0.61103798  0.64853566  0.25000000
   0.38896202  0.35146434  0.75000000
   0.03749768  0.38896202  0.25000000
   0.64853566  0.03749768  0.75000000
