  56  56   0   0
  0.9385344E+01  0.8070109E-09  0.8070109E-09  0.8070109E-09  0.5000000E-15
  1.000000000000000E-004
  CAR 
 unknown system                          
     18.15213464    -10.07040495  301     12.56883051      1.00000000
    -10.070  0.0000E+00  0.0000E+00
     -9.976  0.0000E+00  0.0000E+00
     -9.882  0.0000E+00  0.0000E+00
     -9.788  0.0000E+00  0.0000E+00
     -9.694  0.0000E+00  0.0000E+00
     -9.600  0.1522E-29  0.1432E-30
     -9.506  0.1873E-23  0.1762E-24
     -9.412  0.3727E-18  0.3506E-19
     -9.318  0.1189E-13  0.1118E-14
     -9.224  0.5974E-10  0.5621E-11
     -9.130  0.4649E-07  0.4380E-08
     -9.036  0.5281E-05  0.5012E-06
     -8.942  0.5238E-04  0.5429E-05
     -8.847 -0.4171E-03 -0.3381E-04
     -8.753  0.3717E-02  0.3159E-03
     -8.659  0.1688E-01  0.1903E-02
     -8.565  0.2938E-01  0.4667E-02
     -8.471  0.3224E-01  0.7700E-02
     -8.377  0.4108E-01  0.1156E-01
     -8.283  0.4903E-01  0.1618E-01
     -8.189  0.5457E-01  0.2131E-01
     -8.095  0.4507E-01  0.2555E-01
     -8.001  0.7738E-01  0.3283E-01
     -7.907  0.7668E-01  0.4004E-01
     -7.813  0.4858E-01  0.4461E-01
     -7.719  0.9894E-01  0.5392E-01
     -7.624  0.1006E+00  0.6339E-01
     -7.530  0.8013E-01  0.7092E-01
     -7.436  0.1135E+00  0.8160E-01
     -7.342  0.1285E+00  0.9368E-01
     -7.248  0.1402E+00  0.1069E+00
     -7.154  0.1600E+00  0.1219E+00
     -7.060  0.1790E+00  0.1388E+00
     -6.966  0.2171E+00  0.1592E+00
     -6.872  0.2888E+00  0.1864E+00
     -6.778  0.3152E+00  0.2160E+00
     -6.684  0.2532E+00  0.2398E+00
     -6.590  0.1643E+00  0.2553E+00
     -6.496  0.8861E-01  0.2636E+00
     -6.401  0.4128E-01  0.2675E+00
     -6.307  0.1224E+00  0.2790E+00
     -6.213  0.7545E-01  0.2861E+00
     -6.119  0.5118E-01  0.2909E+00
     -6.025  0.6575E-01  0.2971E+00
     -5.931  0.1044E+00  0.3069E+00
     -5.837  0.3411E-01  0.3101E+00
     -5.743  0.2865E-01  0.3128E+00
     -5.649  0.3739E-01  0.3164E+00
     -5.555  0.2748E-02  0.3166E+00
     -5.461  0.1082E+00  0.3268E+00
     -5.367  0.8412E+00  0.4059E+00
     -5.273  0.7778E+00  0.4791E+00
     -5.178  0.1535E-01  0.4805E+00
     -5.084 -0.7848E-02  0.4798E+00
     -4.990  0.1974E-02  0.4800E+00
     -4.896  0.4557E-04  0.4800E+00
     -4.802  0.1174E-06  0.4800E+00
     -4.708  0.4418E-10  0.4800E+00
     -4.614  0.2611E-14  0.4800E+00
     -4.520  0.0000E+00  0.4800E+00
     -4.426  0.0000E+00  0.4800E+00
     -4.332  0.0000E+00  0.4800E+00
     -4.238  0.0000E+00  0.4800E+00
     -4.144  0.0000E+00  0.4800E+00
     -4.050  0.0000E+00  0.4800E+00
     -3.956  0.0000E+00  0.4800E+00
     -3.861  0.0000E+00  0.4800E+00
     -3.767  0.0000E+00  0.4800E+00
     -3.673  0.0000E+00  0.4800E+00
     -3.579  0.0000E+00  0.4800E+00
     -3.485  0.0000E+00  0.4800E+00
     -3.391  0.0000E+00  0.4800E+00
     -3.297  0.0000E+00  0.4800E+00
     -3.203  0.0000E+00  0.4800E+00
     -3.109  0.0000E+00  0.4800E+00
     -3.015  0.0000E+00  0.4800E+00
     -2.921  0.0000E+00  0.4800E+00
     -2.827  0.0000E+00  0.4800E+00
     -2.733  0.0000E+00  0.4800E+00
     -2.638  0.0000E+00  0.4800E+00
     -2.544  0.0000E+00  0.4800E+00
     -2.450  0.0000E+00  0.4800E+00
     -2.356  0.0000E+00  0.4800E+00
     -2.262  0.0000E+00  0.4800E+00
     -2.168  0.0000E+00  0.4800E+00
     -2.074  0.0000E+00  0.4800E+00
     -1.980  0.0000E+00  0.4800E+00
     -1.886  0.0000E+00  0.4800E+00
     -1.792  0.0000E+00  0.4800E+00
     -1.698  0.0000E+00  0.4800E+00
     -1.604  0.0000E+00  0.4800E+00
     -1.510  0.0000E+00  0.4800E+00
     -1.415  0.0000E+00  0.4800E+00
     -1.321  0.0000E+00  0.4800E+00
     -1.227  0.0000E+00  0.4800E+00
     -1.133  0.0000E+00  0.4800E+00
     -1.039  0.0000E+00  0.4800E+00
     -0.945  0.2818E-32  0.4800E+00
     -0.851  0.7277E-26  0.4800E+00
     -0.757  0.3035E-20  0.4800E+00
     -0.663  0.2009E-15  0.4800E+00
     -0.569  0.2039E-11  0.4800E+00
     -0.475  0.2983E-08  0.4800E+00
     -0.381  0.5460E-06  0.4800E+00
     -0.287  0.8685E-05  0.4800E+00
     -0.193  0.5713E-04  0.4800E+00
     -0.098 -0.9126E-04  0.4800E+00
     -0.004  0.4099E-02  0.4804E+00
      0.090  0.3509E-01  0.4837E+00
      0.184  0.8007E-01  0.4912E+00
      0.278  0.1054E+00  0.5011E+00
      0.372  0.2523E+00  0.5249E+00
      0.466  0.2937E+00  0.5525E+00
      0.560  0.3180E+00  0.5824E+00
      0.654  0.3421E+00  0.6146E+00
      0.748  0.2585E+00  0.6389E+00
      0.842  0.2765E+00  0.6649E+00
      0.936  0.2315E+00  0.6867E+00
      1.030  0.2677E+00  0.7119E+00
      1.125  0.1710E+00  0.7280E+00
      1.219  0.1283E+00  0.7400E+00
      1.313  0.2308E+00  0.7617E+00
      1.407  0.1701E+00  0.7777E+00
      1.501  0.2035E+00  0.7969E+00
      1.595  0.1678E+00  0.8127E+00
      1.689  0.1384E+00  0.8257E+00
      1.783  0.4894E-01  0.8303E+00
      1.877  0.4112E-01  0.8342E+00
      1.971  0.1584E+00  0.8491E+00
      2.065  0.1801E+00  0.8660E+00
      2.159  0.1014E+00  0.8756E+00
      2.253  0.1582E+00  0.8904E+00
      2.348  0.2590E+00  0.9148E+00
      2.442  0.1748E+00  0.9312E+00
      2.536  0.2131E+00  0.9513E+00
      2.630  0.2627E+00  0.9760E+00
      2.724  0.1746E+00  0.9924E+00
      2.818  0.1821E+00  0.1010E+01
      2.912  0.1897E+00  0.1027E+01
      3.006  0.9459E-01  0.1036E+01
      3.100  0.1089E+00  0.1047E+01
      3.194  0.1845E+00  0.1064E+01
      3.288  0.1556E+00  0.1079E+01
      3.382  0.1286E+00  0.1091E+01
      3.476  0.1705E+00  0.1107E+01
      3.570  0.1029E+00  0.1116E+01
      3.665  0.1298E+00  0.1129E+01
      3.759  0.2787E+00  0.1155E+01
      3.853  0.3198E+00  0.1185E+01
      3.947  0.2452E+00  0.1208E+01
      4.041  0.3243E+00  0.1238E+01
      4.135  0.3871E+00  0.1275E+01
      4.229  0.1664E+00  0.1291E+01
      4.323  0.3213E+00  0.1321E+01
      4.417  0.2268E+00  0.1342E+01
      4.511  0.3411E+00  0.1374E+01
      4.605  0.3558E+00  0.1408E+01
      4.699  0.2554E+00  0.1432E+01
      4.793  0.2784E+00  0.1458E+01
      4.888  0.2498E+00  0.1481E+01
      4.982  0.2414E+00  0.1504E+01
      5.076  0.3043E+00  0.1533E+01
      5.170  0.3957E+00  0.1570E+01
      5.264  0.4070E+00  0.1608E+01
      5.358  0.2318E+00  0.1630E+01
      5.452  0.1502E+00  0.1644E+01
      5.546  0.9135E-01  0.1653E+01
      5.640  0.2526E+00  0.1677E+01
      5.734  0.1383E+00  0.1690E+01
      5.828  0.6166E-01  0.1695E+01
      5.922  0.1557E+00  0.1710E+01
      6.016  0.8596E-01  0.1718E+01
      6.111  0.1126E+00  0.1729E+01
      6.205  0.1186E+00  0.1740E+01
      6.299  0.1370E+00  0.1753E+01
      6.393  0.1143E+00  0.1763E+01
      6.487  0.9956E-01  0.1773E+01
      6.581  0.4319E-01  0.1777E+01
      6.675  0.1355E+00  0.1790E+01
      6.769  0.1240E+00  0.1801E+01
      6.863  0.8521E-01  0.1809E+01
      6.957  0.1686E+00  0.1825E+01
      7.051  0.2673E+00  0.1850E+01
      7.145  0.2615E+00  0.1875E+01
      7.239  0.2264E+00  0.1896E+01
      7.333  0.1141E+00  0.1907E+01
      7.428  0.8977E-01  0.1915E+01
      7.522  0.3757E-01  0.1919E+01
      7.616  0.1247E-01  0.1920E+01
      7.710 -0.9981E-03  0.1920E+01
      7.804  0.4413E-04  0.1920E+01
      7.898  0.4959E-03  0.1920E+01
      7.992  0.6091E-03  0.1920E+01
      8.086 -0.2497E-04  0.1920E+01
      8.180 -0.3167E-03  0.1920E+01
      8.274  0.2594E-02  0.1920E+01
      8.368  0.3822E-02  0.1921E+01
      8.462 -0.3709E-03  0.1921E+01
      8.556  0.9271E-02  0.1922E+01
      8.651  0.2790E-02  0.1922E+01
      8.745  0.4463E-02  0.1922E+01
      8.839  0.5693E-02  0.1923E+01
      8.933  0.4936E-02  0.1923E+01
      9.027  0.2043E-01  0.1925E+01
      9.121  0.4079E-01  0.1929E+01
      9.215  0.2964E-01  0.1932E+01
      9.309  0.5696E-01  0.1937E+01
      9.403  0.4809E-01  0.1942E+01
      9.497  0.4863E-01  0.1946E+01
      9.591  0.1449E+00  0.1960E+01
      9.685  0.1247E+00  0.1972E+01
      9.779  0.9207E-01  0.1980E+01
      9.874  0.4878E-01  0.1985E+01
      9.968  0.7315E-01  0.1992E+01
     10.062  0.1259E+00  0.2004E+01
     10.156  0.7851E-01  0.2011E+01
     10.250  0.6941E-01  0.2017E+01
     10.344  0.1844E+00  0.2035E+01
     10.438  0.1786E+00  0.2052E+01
     10.532  0.4313E-01  0.2056E+01
     10.626  0.6587E-01  0.2062E+01
     10.720  0.2393E+00  0.2084E+01
     10.814  0.2475E+00  0.2108E+01
     10.908  0.2181E+00  0.2128E+01
     11.002  0.2760E+00  0.2154E+01
     11.096  0.2894E+00  0.2181E+01
     11.191  0.2076E+00  0.2201E+01
     11.285  0.1706E+00  0.2217E+01
     11.379  0.2138E+00  0.2237E+01
     11.473  0.1515E+00  0.2251E+01
     11.567  0.6205E-01  0.2257E+01
     11.661  0.7652E-01  0.2264E+01
     11.755  0.1622E+00  0.2280E+01
     11.849  0.2026E+00  0.2299E+01
     11.943  0.1660E+00  0.2314E+01
     12.037  0.1985E+00  0.2333E+01
     12.131  0.1275E+00  0.2345E+01
     12.225  0.2867E+00  0.2372E+01
     12.319  0.3230E+00  0.2402E+01
     12.414  0.3075E+00  0.2431E+01
     12.508  0.3691E+00  0.2466E+01
     12.602  0.1800E+00  0.2483E+01
     12.696  0.4154E-01  0.2487E+01
     12.790  0.5845E-01  0.2492E+01
     12.884  0.1391E+00  0.2505E+01
     12.978  0.7432E-01  0.2512E+01
     13.072  0.8115E-01  0.2520E+01
     13.166  0.1964E+00  0.2539E+01
     13.260  0.2842E+00  0.2565E+01
     13.354  0.1891E+00  0.2583E+01
     13.448  0.2385E+00  0.2605E+01
     13.542  0.2431E+00  0.2628E+01
     13.637  0.2170E+00  0.2649E+01
     13.731  0.2549E+00  0.2673E+01
     13.825  0.2873E+00  0.2700E+01
     13.919  0.1542E+00  0.2714E+01
     14.013  0.1364E+00  0.2727E+01
     14.107  0.3312E+00  0.2758E+01
     14.201  0.2069E+00  0.2778E+01
     14.295  0.3155E+00  0.2807E+01
     14.389  0.3403E+00  0.2839E+01
     14.483  0.2412E+00  0.2862E+01
     14.577  0.2037E+00  0.2881E+01
     14.671  0.1657E+00  0.2897E+01
     14.765  0.2220E+00  0.2918E+01
     14.860  0.2328E+00  0.2940E+01
     14.954  0.1982E+00  0.2958E+01
     15.048  0.1753E+00  0.2975E+01
     15.142  0.2008E+00  0.2994E+01
     15.236  0.2429E+00  0.3017E+01
     15.330  0.2135E+00  0.3037E+01
     15.424  0.1875E+00  0.3054E+01
     15.518  0.1729E+00  0.3071E+01
     15.612  0.1054E+00  0.3080E+01
     15.706  0.8711E-01  0.3089E+01
     15.800  0.6410E-01  0.3095E+01
     15.894  0.8542E-01  0.3103E+01
     15.988  0.8766E-01  0.3111E+01
     16.082  0.1226E-01  0.3112E+01
     16.177  0.4047E-02  0.3112E+01
     16.271  0.1421E-01  0.3114E+01
     16.365  0.1514E-01  0.3115E+01
     16.459  0.3217E-01  0.3118E+01
     16.553  0.1137E-01  0.3119E+01
     16.647  0.7427E-03  0.3119E+01
     16.741  0.4566E-02  0.3120E+01
     16.835  0.4785E-03  0.3120E+01
     16.929  0.1496E-02  0.3120E+01
     17.023  0.4918E-06  0.3120E+01
     17.117 -0.1204E-04  0.3120E+01
     17.211  0.3473E-05  0.3120E+01
     17.305  0.4663E-07  0.3120E+01
     17.400  0.6756E-10  0.3120E+01
     17.494  0.1373E-13  0.3120E+01
     17.588  0.4371E-18  0.3120E+01
     17.682  0.0000E+00  0.3120E+01
     17.776  0.0000E+00  0.3120E+01
     17.870  0.0000E+00  0.3120E+01
     17.964  0.0000E+00  0.3120E+01
     18.058  0.0000E+00  0.3120E+01
     18.152  0.0000E+00  0.3120E+01
