   56   56  100    1
  0.9385344E+01  0.8070109E-09  0.8070109E-09  0.8070109E-09  0.5000000E-15
  1.000000000000000E-004
  CAR 
 unknown system                          
    248     20    156
 
  0.3742002E-15  0.3742002E-15  0.3742002E-15  0.4629630E-02
    1       -8.787562   1.000000
    2       -7.415360   1.000000
    3       -7.415360   1.000000
    4       -7.415360   1.000000
    5       -7.415355   1.000000
    6       -7.415355   1.000000
    7       -7.415355   1.000000
    8       -6.750852   1.000000
    9       -6.750852   1.000000
   10       -6.750852   1.000000
   11       -6.750842   1.000000
   12       -6.750842   1.000000
   13       -6.750842   1.000000
   14       -6.749510   1.000000
   15       -6.507905   1.000000
   16       -5.500110   1.000000
   17       -5.500110   1.000000
   18       -5.500110   1.000000
   19       -5.500110   1.000000
   20       -5.500110   1.000000
   21       -5.500110   1.000000
   22       -5.308367   1.000000
   23       -5.308367   1.000000
   24       -5.308367   1.000000
   25       -0.093992   1.000000
   26        0.225113   1.000000
   27        0.225113   1.000000
   28        0.225113   1.000000
   29        0.839003   1.000000
   30        0.839003   1.000000
   31        0.839003   1.000000
   32        0.839003   1.000000
   33        0.839003   1.000000
   34        0.839003   1.000000
   35        1.310204   1.000000
   36        1.310204   1.000000
   37        1.310204   1.000000
   38        1.310207   1.000000
   39        1.310207   1.000000
   40        1.310207   1.000000
   41        2.110513   1.000000
   42        2.110513   1.000000
   43        2.110513   1.000000
   44        2.422655   1.000000
   45        2.422655   1.000000
   46        2.566053   1.000000
   47        2.566053   1.000000
   48        2.566053   1.000000
   49        2.566057   1.000000
   50        2.566057   1.000000
   51        2.566057   1.000000
   52        3.164547   1.000000
   53        3.164547   1.000000
   54        3.164547   1.000000
   55        3.164547   1.000000
   56        3.164547   1.000000
   57        3.164547   1.000000
   58        3.982098   1.000000
   59        3.982098   1.000000
   60        3.982098   1.000000
   61        3.982099   1.000000
   62        3.982099   1.000000
   63        3.982099   1.000000
   64        4.253875   1.000000
   65        4.253875   1.000000
   66        4.253875   1.000000
   67        4.253875   1.000000
   68        4.253875   1.000000
   69        4.253875   1.000000
   70        4.340007   1.000000
   71        4.340007   1.000000
   72        4.340007   1.000000
   73        4.340009   1.000000
   74        4.340009   1.000000
   75        4.340009   1.000000
   76        4.717838   1.000000
   77        4.717838   1.000000
   78        4.717838   1.000000
   79        5.074211   1.000000
   80        5.074211   1.000000
   81        5.074211   1.000000
   82        5.074211   1.000000
   83        5.074211   1.000000
   84        5.074211   1.000000
   85        6.327671   1.000000
   86        6.327671   1.000000
   87        6.327671   1.000000
   88        7.048869   1.000000
   89        7.048869   1.000000
   90        7.048869   1.000000
   91        7.048869   1.000000
   92        7.048869   1.000000
   93        7.048869   1.000000
   94        7.569768   1.000000
   95        7.569768   1.000000
   96        7.569768   1.000000
   97        7.904303   1.000000
   98       10.597075   1.000000
   99       10.597075   1.000000
  100       10.597075   1.000000
  101       10.597076   1.000000
  102       10.597076   1.000000
  103       10.597076   1.000000
  104       11.029104   1.000000
  105       11.029104   1.000000
  106       11.029104   1.000000
  107       11.308265   1.000000
  108       11.308265   1.000000
  109       11.308265   1.000000
  110       11.308265   1.000000
  111       11.308265   1.000000
  112       11.308265   1.000000
  113       11.608354   1.000000
  114       11.608354   1.000000
  115       11.608354   1.000000
  116       11.718959   1.000000
  117       11.718959   1.000000
  118       11.718959   1.000000
  119       11.718969   1.000000
  120       11.718969   1.000000
  121       11.718969   1.000000
  122       12.041229   1.000000
  123       12.041229   1.000000
  124       12.041229   1.000000
  125       12.041229   1.000000
  126       12.041229   1.000000
  127       12.041229   1.000000
  128       13.432154   0.000000
  129       13.432154   0.000000
  130       13.432154   0.000000
  131       13.432159   0.000000
  132       13.432159   0.000000
  133       13.432159   0.000000
  134       13.544329   0.000000
  135       13.632971   0.000000
  136       13.632971   0.000000
  137       14.240615   0.000000
  138       14.240615   0.000000
  139       14.240615   0.000000
  140       14.240625   0.000000
  141       14.240625   0.000000
  142       14.240625   0.000000
  143       14.334589   0.000000
  144       14.334589   0.000000
  145       14.334589   0.000000
  146       14.334589   0.000000
  147       14.334589   0.000000
  148       14.334589   0.000000
  149       14.876844   0.000000
  150       14.876844   0.000000
  151       15.495517   0.000000
  152       15.495518   0.000000
  153       15.495519   0.000000
  154       16.521112   0.000000
  155       16.854669   0.000000
  156       16.869292   0.000000
 
  0.1666667E+00  0.3742002E-15  0.3742002E-15  0.2777778E-01
    1       -8.743717   1.000000
    2       -7.779323   1.000000
    3       -7.387600   1.000000
    4       -7.387600   1.000000
    5       -7.387595   1.000000
    6       -7.387595   1.000000
    7       -7.117330   1.000000
    8       -6.807666   1.000000
    9       -6.807666   1.000000
   10       -6.807656   1.000000
   11       -6.807656   1.000000
   12       -6.766921   1.000000
   13       -6.765916   1.000000
   14       -6.605930   1.000000
   15       -6.528816   1.000000
   16       -5.487702   1.000000
   17       -5.487702   1.000000
   18       -5.462328   1.000000
   19       -5.462328   1.000000
   20       -5.462328   1.000000
   21       -5.462328   1.000000
   22       -5.382620   1.000000
   23       -5.321754   1.000000
   24       -5.321754   1.000000
   25        0.006274   1.000000
   26        0.250837   1.000000
   27        0.250837   1.000000
   28        0.317217   1.000000
   29        0.774344   1.000000
   30        0.774344   1.000000
   31        0.827704   1.000000
   32        0.827704   1.000000
   33        0.827705   1.000000
   34        0.827705   1.000000
   35        1.097651   1.000000
   36        1.304267   1.000000
   37        1.304267   1.000000
   38        1.304270   1.000000
   39        1.304270   1.000000
   40        1.464771   1.000000
   41        1.651939   1.000000
   42        1.990290   1.000000
   43        2.200408   1.000000
   44        2.200408   1.000000
   45        2.469243   1.000000
   46        2.541149   1.000000
   47        2.541149   1.000000
   48        2.541153   1.000000
   49        2.541153   1.000000
   50        2.846555   1.000000
   51        3.015492   1.000000
   52        3.054810   1.000000
   53        3.054810   1.000000
   54        3.054810   1.000000
   55        3.054810   1.000000
   56        3.211911   1.000000
   57        3.211911   1.000000
   58        3.531722   1.000000
   59        3.952187   1.000000
   60        3.952187   1.000000
   61        3.952187   1.000000
   62        3.952187   1.000000
   63        4.104848   1.000000
   64        4.104848   1.000000
   65        4.206633   1.000000
   66        4.206633   1.000000
   67        4.206633   1.000000
   68        4.206633   1.000000
   69        4.480477   1.000000
   70        4.487512   1.000000
   71        4.519988   1.000000
   72        4.609167   1.000000
   73        4.675084   1.000000
   74        4.675084   1.000000
   75        4.683761   1.000000
   76        4.683761   1.000000
   77        4.683762   1.000000
   78        4.683762   1.000000
   79        5.087639   1.000000
   80        5.087639   1.000000
   81        5.087640   1.000000
   82        5.087640   1.000000
   83        5.224228   1.000000
   84        5.224228   1.000000
   85        6.222482   1.000000
   86        6.223829   1.000000
   87        6.223829   1.000000
   88        6.918178   1.000000
   89        6.918178   1.000000
   90        6.918178   1.000000
   91        6.918178   1.000000
   92        7.068698   1.000000
   93        7.068698   1.000000
   94        7.219945   1.000000
   95        7.510552   1.000000
   96        7.510552   1.000000
   97        8.285074   1.000000
   98        9.932315   1.000000
   99       10.673450   1.000000
  100       10.673450   1.000000
  101       10.673451   1.000000
  102       10.673451   1.000000
  103       10.755929   1.000000
  104       10.936058   1.000000
  105       11.055006   1.000000
  106       11.055006   1.000000
  107       11.055010   1.000000
  108       11.055010   1.000000
  109       11.258046   1.000000
  110       11.258046   1.000000
  111       11.289833   1.000000
  112       11.289833   1.000000
  113       11.402904   1.000000
  114       11.525579   1.000000
  115       11.525579   1.000000
  116       11.525582   1.000000
  117       11.525582   1.000000
  118       11.583223   1.000000
  119       11.583223   1.000000
  120       11.853718   1.000000
  121       12.031587   1.000000
  122       12.243801   0.999914
  123       12.243801   0.999914
  124       12.496985   1.025651
  125       12.496985   1.025651
  126       12.496989   1.025640
  127       12.496989   1.025640
  128       13.237475   0.000000
  129       13.237475   0.000000
  130       13.237477   0.000000
  131       13.237477   0.000000
  132       13.382582   0.000000
  133       13.558874   0.000000
  134       13.606231   0.000000
  135       13.713146   0.000000
  136       13.735753   0.000000
  137       13.837747   0.000000
  138       14.220538   0.000000
  139       14.220544   0.000000
  140       14.248901   0.000000
  141       14.248902   0.000000
  142       14.248908   0.000000
  143       14.248908   0.000000
  144       14.546805   0.000000
  145       14.546806   0.000000
  146       14.546807   0.000000
  147       14.546816   0.000000
  148       14.720218   0.000000
  149       14.778706   0.000000
  150       14.967176   0.000000
  151       15.344726   0.000000
  152       15.480730   0.000000
  153       15.480734   0.000000
  154       16.466490   0.000000
  155       16.476456   0.000000
  156       16.672853   0.000000
 
  0.3333333E+00  0.3742002E-15  0.3742002E-15  0.2777778E-01
    1       -8.614428   1.000000
    2       -8.120292   1.000000
    3       -7.313398   1.000000
    4       -7.313398   1.000000
    5       -7.313394   1.000000
    6       -7.313394   1.000000
    7       -6.964775   1.000000
    8       -6.934380   1.000000
    9       -6.934380   1.000000
   10       -6.934370   1.000000
   11       -6.934370   1.000000
   12       -6.811801   1.000000
   13       -6.725873   1.000000
   14       -6.584627   1.000000
   15       -6.285277   1.000000
   16       -5.595060   1.000000
   17       -5.453897   1.000000
   18       -5.453897   1.000000
   19       -5.392203   1.000000
   20       -5.392203   1.000000
   21       -5.392203   1.000000
   22       -5.392203   1.000000
   23       -5.358115   1.000000
   24       -5.358115   1.000000
   25        0.293740   1.000000
   26        0.329055   1.000000
   27        0.329055   1.000000
   28        0.577694   1.000000
   29        0.622915   1.000000
   30        0.622915   1.000000
   31        0.801644   1.000000
   32        0.801644   1.000000
   33        0.801645   1.000000
   34        0.801645   1.000000
   35        0.961903   1.000000
   36        1.245970   1.000000
   37        1.294246   1.000000
   38        1.294246   1.000000
   39        1.294247   1.000000
   40        1.294247   1.000000
   41        1.327115   1.000000
   42        1.361005   1.000000
   43        2.449388   1.000000
   44        2.449388   1.000000
   45        2.490830   1.000000
   46        2.490830   1.000000
   47        2.490834   1.000000
   48        2.490834   1.000000
   49        2.607360   1.000000
   50        2.923835   1.000000
   51        2.923835   1.000000
   52        2.923835   1.000000
   53        2.923835   1.000000
   54        3.068578   1.000000
   55        3.136251   1.000000
   56        3.136251   1.000000
   57        3.144440   1.000000
   58        3.732971   1.000000
   59        3.732971   1.000000
   60        3.732971   1.000000
   61        3.732971   1.000000
   62        3.779365   1.000000
   63        4.041754   1.000000
   64        4.041754   1.000000
   65        4.049537   1.000000
   66        4.528182   1.000000
   67        4.528182   1.000000
   68        4.563438   1.000000
   69        4.563438   1.000000
   70        4.563439   1.000000
   71        4.563439   1.000000
   72        4.742746   1.000000
   73        4.960454   1.000000
   74        4.960454   1.000000
   75        4.960458   1.000000
   76        4.960458   1.000000
   77        4.998559   1.000000
   78        5.114876   1.000000
   79        5.202981   1.000000
   80        5.202981   1.000000
   81        5.202986   1.000000
   82        5.202986   1.000000
   83        5.471891   1.000000
   84        5.471891   1.000000
   85        5.927613   1.000000
   86        5.977912   1.000000
   87        5.977912   1.000000
   88        6.605688   1.000000
   89        6.605688   1.000000
   90        6.605689   1.000000
   91        6.605689   1.000000
   92        6.616552   1.000000
   93        7.133225   1.000000
   94        7.133225   1.000000
   95        7.379813   1.000000
   96        7.379813   1.000000
   97        8.908287   1.000000
   98        9.567951   1.000000
   99       10.253381   1.000000
  100       10.370073   1.000000
  101       10.639035   1.000000
  102       10.639035   1.000000
  103       10.639042   1.000000
  104       10.639042   1.000000
  105       10.910366   1.000000
  106       10.910366   1.000000
  107       10.910366   1.000000
  108       10.910366   1.000000
  109       11.304967   1.000000
  110       11.304967   1.000000
  111       11.401231   1.000000
  112       11.441064   1.000000
  113       11.441064   1.000000
  114       11.441065   1.000000
  115       11.441065   1.000000
  116       11.478959   1.000000
  117       11.478959   1.000000
  118       11.799786   1.000000
  119       11.849778   1.000000
  120       11.849778   1.000000
  121       12.542508   0.763998
  122       12.542508   0.763998
  123       12.542515   0.763934
  124       12.542515   0.763934
  125       12.610149   0.115921
  126       12.610149   0.115922
  127       12.890581   0.000102
  128       13.351837   0.000000
  129       13.351837   0.000000
  130       13.351840   0.000000
  131       13.351840   0.000000
  132       13.394925   0.000000
  133       13.537433   0.000000
  134       13.717622   0.000000
  135       13.764520   0.000000
  136       13.818933   0.000000
  137       14.008193   0.000000
  138       14.008193   0.000000
  139       14.048340   0.000000
  140       14.308250   0.000000
  141       14.308250   0.000000
  142       14.308250   0.000000
  143       14.308250   0.000000
  144       14.388399   0.000000
  145       14.856292   0.000000
  146       14.915245   0.000000
  147       14.915246   0.000000
  148       14.915250   0.000000
  149       14.915252   0.000000
  150       15.113347   0.000000
  151       15.119231   0.000000
  152       15.119233   0.000000
  153       15.389626   0.000000
  154       15.920830   0.000000
  155       15.921901   0.000000
  156       16.284554   0.000000
 
  0.5000000E+00  0.3742002E-15  0.3742002E-15  0.1388889E-01
    1       -8.403883   1.000000
    2       -8.403883   1.000000
    3       -7.252582   1.000000
    4       -7.252582   1.000000
    5       -7.252580   1.000000
    6       -7.252580   1.000000
    7       -7.019078   1.000000
    8       -7.019078   1.000000
    9       -7.019067   1.000000
   10       -7.019067   1.000000
   11       -6.878308   1.000000
   12       -6.878308   1.000000
   13       -6.657826   1.000000
   14       -6.657826   1.000000
   15       -5.914388   1.000000
   16       -5.914388   1.000000
   17       -5.406752   1.000000
   18       -5.406752   1.000000
   19       -5.406752   1.000000
   20       -5.406752   1.000000
   21       -5.359171   1.000000
   22       -5.359171   1.000000
   23       -5.359171   1.000000
   24       -5.359171   1.000000
   25        0.458476   1.000000
   26        0.458476   1.000000
   27        0.458476   1.000000
   28        0.458476   1.000000
   29        0.725974   1.000000
   30        0.725974   1.000000
   31        0.786882   1.000000
   32        0.786882   1.000000
   33        0.786884   1.000000
   34        0.786884   1.000000
   35        0.954139   1.000000
   36        0.954139   1.000000
   37        1.049869   1.000000
   38        1.049869   1.000000
   39        1.291145   1.000000
   40        1.291145   1.000000
   41        1.291146   1.000000
   42        1.291146   1.000000
   43        2.466041   1.000000
   44        2.466041   1.000000
   45        2.466045   1.000000
   46        2.466045   1.000000
   47        2.802390   1.000000
   48        2.802390   1.000000
   49        2.802390   1.000000
   50        2.802390   1.000000
   51        2.833194   1.000000
   52        2.833194   1.000000
   53        2.881507   1.000000
   54        2.881507   1.000000
   55        2.881507   1.000000
   56        2.881507   1.000000
   57        3.510928   1.000000
   58        3.510928   1.000000
   59        3.652059   1.000000
   60        3.652059   1.000000
   61        3.652059   1.000000
   62        3.652059   1.000000
   63        4.274051   1.000000
   64        4.274051   1.000000
   65        4.274051   1.000000
   66        4.274051   1.000000
   67        4.433939   1.000000
   68        4.433939   1.000000
   69        4.796371   1.000000
   70        4.796371   1.000000
   71        4.796371   1.000000
   72        4.796371   1.000000
   73        4.911630   1.000000
   74        4.911630   1.000000
   75        4.911634   1.000000
   76        4.911634   1.000000
   77        5.408759   1.000000
   78        5.408759   1.000000
   79        5.408765   1.000000
   80        5.408765   1.000000
   81        5.497869   1.000000
   82        5.497869   1.000000
   83        5.715349   1.000000
   84        5.715349   1.000000
   85        5.715349   1.000000
   86        5.715349   1.000000
   87        5.881631   1.000000
   88        5.881631   1.000000
   89        6.389539   1.000000
   90        6.389539   1.000000
   91        6.389540   1.000000
   92        6.389540   1.000000
   93        7.242430   1.000000
   94        7.242430   1.000000
   95        7.242430   1.000000
   96        7.242430   1.000000
   97        9.594951   1.000000
   98        9.594951   1.000000
   99        9.764935   1.000000
  100        9.764935   1.000000
  101       10.502488   1.000000
  102       10.502488   1.000000
  103       10.502496   1.000000
  104       10.502496   1.000000
  105       11.029408   1.000000
  106       11.029408   1.000000
  107       11.029409   1.000000
  108       11.029409   1.000000
  109       11.381406   1.000000
  110       11.381406   1.000000
  111       11.381406   1.000000
  112       11.381406   1.000000
  113       11.417466   1.000000
  114       11.417466   1.000000
  115       11.417466   1.000000
  116       11.417466   1.000000
  117       11.594420   1.000000
  118       11.594420   1.000000
  119       12.331192   0.997073
  120       12.331192   0.997073
  121       12.331198   0.997072
  122       12.331198   0.997072
  123       12.461456   1.047779
  124       12.461456   1.047779
  125       12.461456   1.047779
  126       12.461456   1.047779
  127       13.453981   0.000000
  128       13.453981   0.000000
  129       13.627473   0.000000
  130       13.627474   0.000000
  131       13.627480   0.000000
  132       13.627480   0.000000
  133       13.730542   0.000000
  134       13.730546   0.000000
  135       13.774926   0.000000
  136       13.774926   0.000000
  137       14.047219   0.000000
  138       14.047219   0.000000
  139       14.295962   0.000000
  140       14.295963   0.000000
  141       14.295967   0.000000
  142       14.295970   0.000000
  143       14.324979   0.000000
  144       14.324980   0.000000
  145       14.324981   0.000000
  146       14.324982   0.000000
  147       14.940573   0.000000
  148       14.940599   0.000000
  149       15.173026   0.000000
  150       15.173048   0.000000
  151       15.173056   0.000000
  152       15.173074   0.000000
  153       15.940144   0.000000
  154       15.967689   0.000000
  155       15.995712   0.000000
  156       15.997911   0.000000
 
  0.1666667E+00  0.1666667E+00  0.3742002E-15  0.5555556E-01
    1       -8.700445   1.000000
    2       -7.744005   1.000000
    3       -7.744005   1.000000
    4       -7.362008   1.000000
    5       -7.360787   1.000000
    6       -7.112140   1.000000
    7       -7.112140   1.000000
    8       -7.003766   1.000000
    9       -6.823641   1.000000
   10       -6.823641   1.000000
   11       -6.783260   1.000000
   12       -6.693833   1.000000
   13       -6.648789   1.000000
   14       -6.648789   1.000000
   15       -6.553337   1.000000
   16       -5.481935   1.000000
   17       -5.467383   1.000000
   18       -5.455566   1.000000
   19       -5.455566   1.000000
   20       -5.448931   1.000000
   21       -5.448931   1.000000
   22       -5.391999   1.000000
   23       -5.329435   1.000000
   24       -5.315212   1.000000
   25        0.027273   1.000000
   26        0.328811   1.000000
   27        0.346614   1.000000
   28        0.352598   1.000000
   29        0.696612   1.000000
   30        0.696612   1.000000
   31        0.782661   1.000000
   32        0.819803   1.000000
   33        0.819803   1.000000
   34        0.916170   1.000000
   35        1.030313   1.000000
   36        1.114207   1.000000
   37        1.114207   1.000000
   38        1.446000   1.000000
   39        1.446000   1.000000
   40        1.510050   1.000000
   41        1.529790   1.000000
   42        2.005128   1.000000
   43        2.015681   1.000000
   44        2.015681   1.000000
   45        2.290202   1.000000
   46        2.508396   1.000000
   47        2.551962   1.000000
   48        2.587828   1.000000
   49        2.763924   1.000000
   50        2.763924   1.000000
   51        2.906157   1.000000
   52        3.018012   1.000000
   53        3.018012   1.000000
   54        3.176325   1.000000
   55        3.179160   1.000000
   56        3.179160   1.000000
   57        3.374845   1.000000
   58        3.751893   1.000000
   59        3.863220   1.000000
   60        3.863220   1.000000
   61        3.882372   1.000000
   62        3.882372   1.000000
   63        4.081382   1.000000
   64        4.081382   1.000000
   65        4.142731   1.000000
   66        4.187123   1.000000
   67        4.278934   1.000000
   68        4.309748   1.000000
   69        4.485519   1.000000
   70        4.485519   1.000000
   71        4.642033   1.000000
   72        4.671668   1.000000
   73        4.686852   1.000000
   74        4.686852   1.000000
   75        4.694866   1.000000
   76        4.792607   1.000000
   77        4.792607   1.000000
   78        4.998818   1.000000
   79        5.094251   1.000000
   80        5.099400   1.000000
   81        5.201959   1.000000
   82        5.201959   1.000000
   83        5.322008   1.000000
   84        5.322008   1.000000
   85        5.970090   1.000000
   86        6.122925   1.000000
   87        6.284437   1.000000
   88        6.597339   1.000000
   89        6.933779   1.000000
   90        6.933779   1.000000
   91        6.956949   1.000000
   92        6.956949   1.000000
   93        6.960264   1.000000
   94        7.045651   1.000000
   95        7.439920   1.000000
   96        7.510404   1.000000
   97        8.529375   1.000000
   98       10.030603   1.000000
   99       10.030603   1.000000
  100       10.609627   1.000000
  101       10.618294   1.000000
  102       10.711318   1.000000
  103       10.711318   1.000000
  104       10.896438   1.000000
  105       10.896438   1.000000
  106       10.897059   1.000000
  107       10.927900   1.000000
  108       11.023015   1.000000
  109       11.101483   1.000000
  110       11.260588   1.000000
  111       11.260588   1.000000
  112       11.337814   1.000000
  113       11.378430   1.000000
  114       11.426864   1.000000
  115       11.552160   1.000000
  116       11.630488   1.000000
  117       11.808672   1.000000
  118       11.808672   1.000000
  119       11.977706   1.000000
  120       11.977706   1.000000
  121       12.105732   1.000000
  122       12.271146   0.999668
  123       12.451649   1.040305
  124       12.451649   1.040305
  125       12.637720  -0.017925
  126       12.637720  -0.017925
  127       12.694979  -0.031950
  128       12.917621   0.000023
  129       13.189419   0.000000
  130       13.189419   0.000000
  131       13.344169   0.000000
  132       13.344169   0.000000
  133       13.632917   0.000000
  134       13.679559   0.000000
  135       13.779533   0.000000
  136       13.837093   0.000000
  137       13.887707   0.000000
  138       13.907447   0.000000
  139       13.907447   0.000000
  140       14.269439   0.000000
  141       14.269443   0.000000
  142       14.445571   0.000000
  143       14.445573   0.000000
  144       14.547839   0.000000
  145       14.616925   0.000000
  146       14.636692   0.000000
  147       14.641473   0.000000
  148       14.887502   0.000000
  149       14.926448   0.000000
  150       14.926450   0.000000
  151       15.246549   0.000000
  152       15.429268   0.000000
  153       15.461869   0.000000
  154       16.230728   0.000000
  155       16.354338   0.000000
  156       16.423987   0.000000
 
  0.3333333E+00  0.1666667E+00  0.3742002E-15  0.1111111E+00
    1       -8.571956   1.000000
    2       -8.081345   1.000000
    3       -7.640890   1.000000
    4       -7.331076   1.000000
    5       -7.286136   1.000000
    6       -7.177550   1.000000
    7       -7.120917   1.000000
    8       -6.980710   1.000000
    9       -6.958064   1.000000
   10       -6.830935   1.000000
   11       -6.777475   1.000000
   12       -6.718707   1.000000
   13       -6.685602   1.000000
   14       -6.618087   1.000000
   15       -6.319315   1.000000
   16       -5.667069   1.000000
   17       -5.438445   1.000000
   18       -5.428541   1.000000
   19       -5.420284   1.000000
   20       -5.402555   1.000000
   21       -5.371458   1.000000
   22       -5.351658   1.000000
   23       -5.340959   1.000000
   24       -5.329882   1.000000
   25        0.123462   1.000000
   26        0.412187   1.000000
   27        0.506896   1.000000
   28        0.583611   1.000000
   29        0.594309   1.000000
   30        0.597659   1.000000
   31        0.673238   1.000000
   32        0.691785   1.000000
   33        0.934626   1.000000
   34        0.949108   1.000000
   35        0.969438   1.000000
   36        1.038636   1.000000
   37        1.088403   1.000000
   38        1.183205   1.000000
   39        1.331202   1.000000
   40        1.398553   1.000000
   41        1.459695   1.000000
   42        1.523658   1.000000
   43        2.096915   1.000000
   44        2.175007   1.000000
   45        2.328734   1.000000
   46        2.393590   1.000000
   47        2.539891   1.000000
   48        2.549568   1.000000
   49        2.656508   1.000000
   50        2.836661   1.000000
   51        2.876170   1.000000
   52        2.922738   1.000000
   53        3.063291   1.000000
   54        3.129389   1.000000
   55        3.196743   1.000000
   56        3.228641   1.000000
   57        3.632670   1.000000
   58        3.722335   1.000000
   59        3.802942   1.000000
   60        3.807368   1.000000
   61        3.831488   1.000000
   62        3.937388   1.000000
   63        3.985305   1.000000
   64        3.994926   1.000000
   65        4.094208   1.000000
   66        4.425405   1.000000
   67        4.461445   1.000000
   68        4.476501   1.000000
   69        4.521459   1.000000
   70        4.523566   1.000000
   71        4.588291   1.000000
   72        4.757183   1.000000
   73        4.889448   1.000000
   74        4.894298   1.000000
   75        5.012448   1.000000
   76        5.026357   1.000000
   77        5.072803   1.000000
   78        5.108226   1.000000
   79        5.134885   1.000000
   80        5.227732   1.000000
   81        5.234498   1.000000
   82        5.403878   1.000000
   83        5.587992   1.000000
   84        5.597729   1.000000
   85        5.693053   1.000000
   86        5.879440   1.000000
   87        6.112898   1.000000
   88        6.275110   1.000000
   89        6.509979   1.000000
   90        6.612587   1.000000
   91        6.712737   1.000000
   92        6.923550   1.000000
   93        7.009299   1.000000
   94        7.052433   1.000000
   95        7.290043   1.000000
   96        7.384898   1.000000
   97        9.071316   1.000000
   98        9.635268   1.000000
   99       10.080625   1.000000
  100       10.134148   1.000000
  101       10.296325   1.000000
  102       10.380080   1.000000
  103       10.659757   1.000000
  104       10.686702   1.000000
  105       10.692709   1.000000
  106       10.869612   1.000000
  107       10.911667   1.000000
  108       11.082243   1.000000
  109       11.090106   1.000000
  110       11.100507   1.000000
  111       11.242797   1.000000