       N       E                     dE             d eps       ncg     rms          rms(c)
DAV:   1     0.900164580634E+03    0.90016E+03   -0.10226E+05  6240   0.119E+03
DAV:   2    -0.251694204749E+03   -0.11519E+04   -0.11076E+04  7840   0.251E+02
DAV:   3    -0.345058914605E+03   -0.93365E+02   -0.89276E+02  7696   0.676E+01
DAV:   4    -0.347997454224E+03   -0.29385E+01   -0.28383E+01  7752   0.106E+01
DAV:   5    -0.348080377538E+03   -0.82923E-01   -0.82147E-01  7632   0.154E+00    0.444E+01
RMM:   6    -0.317390942482E+03    0.30689E+02   -0.14332E+02  6241   0.215E+01    0.205E+01
RMM:   7    -0.317037833184E+03    0.35311E+00   -0.48115E+00  6514   0.329E+00    0.112E+01
RMM:   8    -0.316893178726E+03    0.14465E+00   -0.13482E+00  6257   0.244E+00    0.175E+00
RMM:   9    -0.316827727517E+03    0.65451E-01   -0.12908E-01  6434   0.607E-01    0.600E-01
RMM:  10    -0.316823937189E+03    0.37903E-02   -0.78280E-02  6571   0.441E-01    0.251E-01
RMM:  11    -0.316823880934E+03    0.56255E-04   -0.54722E-03  6412   0.138E-01    0.803E-02
RMM:  12    -0.316823845047E+03    0.35887E-04   -0.17621E-03  6297   0.616E-02    0.357E-02
RMM:  13    -0.316823789767E+03    0.55280E-04   -0.20184E-04  4002   0.215E-02
   1 F= -.31682379E+03 E0= -.31682620E+03  d E =-.316824E+03
       N       E                     dE             d eps       ncg     rms          rms(c)
DAV:   1    -0.316797413109E+03    0.26432E-01   -0.97177E-01  6912   0.287E+00    0.556E-01
RMM:   2    -0.316805703614E+03   -0.82905E-02   -0.12675E-01  6248   0.923E-01    0.529E-01
RMM:   3    -0.316803908800E+03    0.17948E-02   -0.70846E-03  6490   0.153E-01    0.366E-01
RMM:   4    -0.316803694069E+03    0.21473E-03   -0.11787E-03  6383   0.676E-02    0.168E-01
RMM:   5    -0.316803688941E+03    0.51278E-05   -0.54066E-04  5202   0.496E-02
   2 F= -.31680369E+03 E0= -.31680673E+03  d E =0.201008E-01
       N       E                     dE             d eps       ncg     rms          rms(c)
DAV:   1    -0.316836202801E+03   -0.32509E-01   -0.35747E-01  6856   0.173E+00    0.340E-01
RMM:   2    -0.316838796473E+03   -0.25937E-02   -0.44040E-02  6242   0.550E-01    0.326E-01
RMM:   3    -0.316838135451E+03    0.66102E-03   -0.25357E-03  6399   0.935E-02    0.219E-01
RMM:   4    -0.316838073911E+03    0.61540E-04   -0.24273E-04  3859   0.333E-02
   3 F= -.31683807E+03 E0= -.31684082E+03  d E =-.142841E-01
