 vasp.5.4.4.18Apr17-6-g9f103f2a35 (build Nov 01 2019 12:17:22) complex          
  
 executed on             LinuxIFC date 2023.05.19  18:21:59
 running on   16 total cores
 distrk:  each k-point on   16 cores,    1 groups
 distr:  one band on NCORES_PER_BAND=   4 cores,    4 groups


--------------------------------------------------------------------------------------------------------


 INCAR:
 POTCAR:    PAW_PBE N 08Apr2002                   
 POTCAR:    PAW_PBE Si 05Jan2001                  
 POTCAR:    PAW_PBE N 08Apr2002                   
   VRHFIN =N: s2p3                                                              
   LEXCH  = PE                                                                  
   EATOM  =   264.5486 eV,   19.4438 Ry                                         
                                                                                
   TITEL  = PAW_PBE N 08Apr2002                                                 
   LULTRA =        F    use ultrasoft PP ?                                      
   IUNSCR =        1    unscreen: 0-lin 1-nonlin 2-no                           
   RPACOR =    1.200    partial core radius                                     
   POMASS =   14.001; ZVAL   =    5.000    mass and valenz                      
   RCORE  =    1.500    outmost cutoff radius                                   
   RWIGS  =    1.400; RWIGS  =    0.741    wigner-seitz radius (au A)           
   ENMAX  =  400.000; ENMIN  =  300.000 eV                                      
   ICORE  =        2    local potential                                         
   LCOR   =        T    correct aug charges                                     
   LPAW   =        T    paw PP                                                  
   EAUG   =  627.112                                                            
   DEXC   =    0.000                                                            
   RMAX   =    1.529    core radius for proj-oper                               
   RAUG   =    1.300    factor for augmentation sphere                          
   RDEP   =    1.514    radius for radial grids                                 
   RDEPT  =    1.338    core radius for aug-charge                              
                                                                                
   Atomic configuration                                                         
    4 entries                                                                   
     n  l   j            E        occ.                                          
     1  0  0.50      -384.7179   2.0000                                         
     2  0  0.50       -18.5828   2.0000                                         
     2  1  0.50        -7.0898   3.0000                                         
     3  2  1.50        -6.8029   0.0000                                         
   Description                                                                  
     l       E           TYP  RCUT    TYP  RCUT                                 
     0    -18.5828119     23  1.200                                             
     0    -13.5018863     23  1.200                                             
     1     -7.0897853     23  1.500                                             
     1      9.5240782     23  1.500                                             
     2     -6.8029130      7  1.500                                             
  local pseudopotential read in
  partial core-charges read in
  partial kinetic energy density read in
  atomic valenz-charges read in
  non local Contribution for L=           0  read in
    real space projection operators read in
  non local Contribution for L=           0  read in
    real space projection operators read in
  non local Contribution for L=           1  read in
    real space projection operators read in
  non local Contribution for L=           1  read in
    real space projection operators read in
    PAW grid and wavefunctions read in
 
   number of l-projection  operators is LMAX  =           4
   number of lm-projection operators is LMMAX =           8
 
 POTCAR:    PAW_PBE Si 05Jan2001                  
   VRHFIN =Si: s2p2                                                             
   LEXCH  = PE                                                                  
   EATOM  =   103.0669 eV,    7.5752 Ry                                         
                                                                                
   TITEL  = PAW_PBE Si 05Jan2001                                                
   LULTRA =        F    use ultrasoft PP ?                                      
   IUNSCR =        1    unscreen: 0-lin 1-nonlin 2-no                           
   RPACOR =    1.500    partial core radius                                     
   POMASS =   28.085; ZVAL   =    4.000    mass and valenz                      
   RCORE  =    1.900    outmost cutoff radius                                   
   RWIGS  =    2.480; RWIGS  =    1.312    wigner-seitz radius (au A)           
   ENMAX  =  245.345; ENMIN  =  184.009 eV                                      
   ICORE  =        2    local potential                                         
   LCOR   =        T    correct aug charges                                     
   LPAW   =        T    paw PP                                                  
   EAUG   =  322.069                                                            
   DEXC   =    0.000                                                            
   RMAX   =    1.950    core radius for proj-oper                               
   RAUG   =    1.300    factor for augmentation sphere                          
   RDEP   =    1.993    radius for radial grids                                 
   RDEPT  =    1.837    core radius for aug-charge                              
                                                                                
   Atomic configuration                                                         
    6 entries                                                                   
     n  l   j            E        occ.                                          
     1  0  0.50     -1785.8828   2.0000                                         
     2  0  0.50      -139.4969   2.0000                                         
     2  1  1.50       -95.5546   6.0000                                         
     3  0  0.50       -10.8127   2.0000                                         
     3  1  0.50        -4.0811   2.0000                                         
     3  2  1.50        -4.0817   0.0000                                         
   Description                                                                  
     l       E           TYP  RCUT    TYP  RCUT                                 
     0    -10.8127223     23  1.900                                             
     0     -7.6451159     23  1.900                                             
     1     -4.0811372     23  1.900                                             
     1      2.4879257     23  1.900                                             
     2     -4.0817478      7  1.900                                             
  local pseudopotential read in
  partial core-charges read in
  partial kinetic energy density read in
  atomic valenz-charges read in
  non local Contribution for L=           0  read in
    real space projection operators read in
  non local Contribution for L=           0  read in
    real space projection operators read in
  non local Contribution for L=           1  read in
    real space projection operators read in
  non local Contribution for L=           1  read in
    real space projection operators read in
    PAW grid and wavefunctions read in
 
   number of l-projection  operators is LMAX  =           4
   number of lm-projection operators is LMMAX =           8
 
 Optimization of the real space projectors (new method)

 maximal supplied QI-value         = 25.13
 optimisation between [QCUT,QGAM] = [ 10.05, 20.36] = [ 28.30,116.06] Ry 
 Optimized for a Real-space Cutoff    1.70 Angstroem

   l    n(q)    QCUT    max X(q) W(low)/X(q) W(high)/X(q)  e(spline) 
   0     10    10.053    79.467    0.61E-04    0.98E-04    0.61E-06
   0     10    10.053    66.151    0.60E-04    0.98E-04    0.61E-06
   1     10    10.053     8.350    0.17E-03    0.71E-03    0.45E-05
   1     10    10.053     5.531    0.18E-03    0.77E-03    0.49E-05
 Optimization of the real space projectors (new method)

 maximal supplied QI-value         = 19.84
 optimisation between [QCUT,QGAM] = [ 10.12, 20.44] = [ 28.68,116.96] Ry 
 Optimized for a Real-space Cutoff    1.38 Angstroem

   l    n(q)    QCUT    max X(q) W(low)/X(q) W(high)/X(q)  e(spline) 
   0      8    10.119   159.560    0.58E-04    0.11E-03    0.54E-07
   0      8    10.119   115.863    0.56E-04    0.11E-03    0.54E-07
   1      8    10.119    88.339    0.22E-03    0.17E-03    0.19E-06
   1      8    10.119    48.592    0.22E-03    0.17E-03    0.18E-06
  PAW_PBE N 08Apr2002                   :
 energy of atom  1       EATOM= -264.5486
 kinetic energy error for atom=    0.0736 (will be added to EATOM!!)
  PAW_PBE Si 05Jan2001                  :
 energy of atom  2       EATOM= -103.0669
 kinetic energy error for atom=    0.0012 (will be added to EATOM!!)
 
 
 POSCAR: Si24 N32                                
  positions in direct lattice
  No initial velocities read in
 exchange correlation table for  LEXCH =        8
   RHO(1)=    0.500       N(1)  =     2000
   RHO(2)=  100.500       N(2)  =     4000
 


--------------------------------------------------------------------------------------------------------


 ion  position               nearest neighbor table
   1  0.875  0.875  0.125-  26 2.03  28 2.03  47 2.03  49 2.03  54 2.03  56 2.03
   2  0.375  0.125  0.375-  25 2.03  27 2.03  29 2.03  31 2.03  32 2.03  42 2.03
   3  0.625  0.875  0.375-  27 2.03  31 2.03  44 2.03  49 2.03  53 2.03  54 2.03
   4  0.125  0.125  0.125-  26 2.03  28 2.03  29 2.03  30 2.03  32 2.03  43 2.03
   5  0.250  0.750  0.250-  28 1.73  50 1.73  51 1.73  31 1.73
   6  0.000  0.000  0.500-  29 1.73  38 1.73  48 1.73  49 1.73
   7  0.875  0.375  0.625-  34 2.03  36 2.03  41 2.03  46 2.03  48 2.03  55 2.03
   8  0.375  0.625  0.875-  33 2.03  35 2.03  37 2.03  39 2.03  40 2.03  50 2.03
   9  0.625  0.375  0.875-  35 2.03  39 2.03  41 2.03  45 2.03  46 2.03  52 2.03
  10  0.125  0.625  0.625-  34 2.03  36 2.03  37 2.03  38 2.03  40 2.03  51 2.03
  11  0.250  0.250  0.750-  36 1.73  42 1.73  43 1.73  39 1.73
  12  0.000  0.500  0.000-  30 1.73  37 1.73  56 1.73  41 1.73
  13  0.375  0.875  0.625-  31 2.03  33 2.03  38 2.03  40 2.03  42 2.03  44 2.03
  14  0.875  0.125  0.875-  26 2.03  41 2.03  43 2.03  45 2.03  47 2.03  48 2.03
  15  0.125  0.875  0.875-  28 2.03  33 2.03  37 2.03  38 2.03  43 2.03  47 2.03
  16  0.625  0.125  0.625-  27 2.03  42 2.03  44 2.03  45 2.03  46 2.03  48 2.03
  17  0.750  0.750  0.750-  34 1.73  35 1.73  44 1.73  47 1.73
  18  0.500  0.000  0.000-  32 1.73  45 1.73  54 1.73  33 1.73
  19  0.375  0.375  0.125-  25 2.03  30 2.03  32 2.03  39 2.03  50 2.03  52 2.03
  20  0.875  0.625  0.375-  34 2.03  49 2.03  51 2.03  53 2.03  55 2.03  56 2.03
  21  0.125  0.375  0.375-  25 2.03  29 2.03  30 2.03  36 2.03  51 2.03  55 2.03
  22  0.625  0.625  0.125-  35 2.03  50 2.03  52 2.03  53 2.03  54 2.03  56 2.03
  23  0.750  0.250  0.250-  26 1.73  27 1.73  52 1.73  55 1.73
  24  0.500  0.500  0.500-  40 1.73  46 1.73  53 1.73  25 1.73
  25  0.376  0.376  0.376-  24 1.73  19 2.03  21 2.03   2 2.03  40 2.82  46 2.82  53 2.82  51 2.85
                            27 2.85  50 2.85  42 2.85  52 2.85  36 2.85  30 2.88  32 2.88  29 2.88
  26  0.874  0.126  0.126-  23 1.73   4 2.03  14 2.03   1 2.03  27 2.82  52 2.82  55 2.82  45 2.85
                            49 2.85  29 2.85  41 2.85  54 2.85  30 2.85  43 2.88  28 2.88  47 2.88
  27  0.626  0.126  0.374-  23 1.73   3 2.03  16 2.03   2 2.03  26 2.82  52 2.82  55 2.82  25 2.85
                            49 2.85  32 2.85  46 2.85  54 2.85  48 2.85  42 2.88  44 2.88  31 2.88
  28  0.126  0.874  0.126-   5 1.73   4 2.03   1 2.03  15 2.03  50 2.82  51 2.82  31 2.82  37 2.85
                            49 2.85  29 2.85  33 2.85  32 2.85  56 2.85  26 2.88  43 2.88  47 2.88
  29  0.124  0.124  0.376-   6 1.73   4 2.03   2 2.03  21 2.03  38 2.82  48 2.82  49 2.82  31 2.85
                            55 2.85  42 2.85  26 2.85  36 2.85  28 2.85  30 2.88  32 2.88  25 2.88
  30  0.124  0.376  0.124-  12 1.73   4 2.03  19 2.03  21 2.03  37 2.82  56 2.82  41 2.82  43 2.85
                            51 2.85  55 2.85  39 2.85  50 2.85  26 2.85  29 2.88  32 2.88  25 2.88
  31  0.374  0.874  0.374-   5 1.73   3 2.03   2 2.03  13 2.03  28 2.82  50 2.82  51 2.82  29 2.85
                            53 2.85  32 2.85  38 2.85  40 2.85  54 2.85  42 2.88  44 2.88  27 2.88
  32  0.376  0.124  0.124-  18 1.73   4 2.03   2 2.03  19 2.03  45 2.82  54 2.82  33 2.82  39 2.85
                            43 2.85  31 2.85  27 2.85  52 2.85  28 2.85  30 2.88  29 2.88  25 2.88
  33  0.376  0.876  0.876-  18 1.73  13 2.03  15 2.03   8 2.03  32 2.82  45 2.82  54 2.82  35 2.85
                            43 2.85  44 2.85  42 2.85  50 2.85  28 2.85  38 2.88  40 2.88  37 2.88
  34  0.874  0.626  0.626-  17 1.73  10 2.03   7 2.03  20 2.03  35 2.82  44 2.82  47 2.82  37 2.85
                            41 2.85  49 2.85  53 2.85  46 2.85  38 2.85  51 2.88  36 2.88  55 2.88
  35  0.626  0.626  0.874-  17 1.73   9 2.03   8 2.03  22 2.03  34 2.82  44 2.82  47 2.82  33 2.85
                            41 2.85  46 2.85  40 2.85  54 2.85  56 2.85  50 2.88  52 2.88  39 2.88
  36  0.126  0.374  0.626-  11 1.73  10 2.03   7 2.03  21 2.03  42 2.82  43 2.82  39 2.82  25 2.85
                            41 2.85  29 2.85  37 2.85  40 2.85  48 2.85  34 2.88  51 2.88  55 2.88
  37  0.124  0.624  0.876-  12 1.73  10 2.03   8 2.03  15 2.03  30 2.82  56 2.82  41 2.82  47 2.85
                            39 2.85  34 2.85  36 2.85  50 2.85  28 2.85  38 2.88  40 2.88  33 2.88
  38  0.124  0.876  0.624-   6 1.73  10 2.03  13 2.03  15 2.03  29 2.82  48 2.82  49 2.82  47 2.85
                            31 2.85  43 2.85  51 2.85  42 2.85  34 2.85  37 2.88  40 2.88  33 2.88
  39  0.374  0.374  0.874-  11 1.73   9 2.03   8 2.03  19 2.03  36 2.82  42 2.82  43 2.82  37 2.85
                            45 2.85  30 2.85  32 2.85  40 2.85  46 2.85  50 2.88  52 2.88  35 2.88
  40  0.376  0.624  0.624-  24 1.73  10 2.03  13 2.03   8 2.03  46 2.82  53 2.82  25 2.82  39 2.85
                            31 2.85  51 2.85  35 2.85  44 2.85  36 2.85  38 2.88  37 2.88  33 2.88
  41  0.876  0.376  0.876-  12 1.73   9 2.03   7 2.03  14 2.03  30 2.82  37 2.82  56 2.82  43 2.85
                            35 2.85  34 2.85  26 2.85  52 2.85  36 2.85  46 2.88  48 2.88  45 2.88
  42  0.374  0.126  0.626-  11 1.73   2 2.03  13 2.03  16 2.03  36 2.82  43 2.82  39 2.82  25 2.85
                            29 2.85  33 2.85  45 2.85  38 2.85  46 2.85  27 2.88  44 2.88  31 2.88
  43  0.126  0.126  0.874-  11 1.73   4 2.03  14 2.03  15 2.03  36 2.82  42 2.82  39 2.82  41 2.85
                            33 2.85  30 2.85  32 2.85  38 2.85  48 2.85  28 2.88  26 2.88  47 2.88
  44  0.626  0.874  0.626-  17 1.73  13 2.03  16 2.03   3 2.03  34 2.82  35 2.82  47 2.82  45 2.85
                            33 2.85  49 2.85  53 2.85  40 2.85  48 2.85  42 2.88  27 2.88  31 2.88
  45  0.624  0.124  0.876-  18 1.73  14 2.03  16 2.03   9 2.03  32 2.82  54 2.82  33 2.82  47 2.85
                            39 2.85  44 2.85  26 2.85  52 2.85  42 2.85  46 2.88  48 2.88  41 2.88
  46  0.624  0.376  0.624-  24 1.73   9 2.03  16 2.03   7 2.03  40 2.82  53 2.82  25 2.82  39 2.85
                            27 2.85  35 2.85  55 2.85  34 2.85  42 2.85  45 2.88  48 2.88  41 2.88
  47  0.874  0.874  0.874-  17 1.73  14 2.03  15 2.03   1 2.03  34 2.82  35 2.82  44 2.82  37 2.85
                            45 2.85  38 2.85  48 2.85  54 2.85  56 2.85  28 2.88  26 2.88  43 2.88
  48  0.876  0.124  0.624-   6 1.73   7 2.03  14 2.03  16 2.03  29 2.82  38 2.82  49 2.82  43 2.85
                            47 2.85  27 2.85  55 2.85  44 2.85  36 2.85  46 2.88  45 2.88  41 2.88
  49  0.876  0.876  0.376-   6 1.73   3 2.03   1 2.03  20 2.03  29 2.82  38 2.82  48 2.82  27 2.85
                            51 2.85  28 2.85  44 2.85  26 2.85  34 2.85  54 2.88  56 2.88  53 2.88
  50  0.374  0.626  0.126-   5 1.73   8 2.03  19 2.03  22 2.03  28 2.82  51 2.82  31 2.82  33 2.85
                            37 2.85  25 2.85  53 2.85  30 2.85  54 2.85  35 2.88  52 2.88  39 2.88
  51  0.126  0.626  0.374-   5 1.73  10 2.03  20 2.03  21 2.03  28 2.82  50 2.82  31 2.82  49 2.85
                            25 2.85  40 2.85  30 2.85  38 2.85  56 2.85  36 2.88  34 2.88  55 2.88
  52  0.626  0.374  0.126-  23 1.73  19 2.03  22 2.03   9 2.03  26 2.82  27 2.82  55 2.82  41 2.85
                            45 2.85  53 2.85  25 2.85  32 2.85  56 2.85  50 2.88  35 2.88  39 2.88
  53  0.624  0.624  0.376-  24 1.73  20 2.03  22 2.03   3 2.03  40 2.82  46 2.82  25 2.82  31 2.85
                            55 2.85  34 2.85  50 2.85  52 2.85  44 2.85  54 2.88  56 2.88  49 2.88
  54  0.624  0.876  0.124-  18 1.73   3 2.03   1 2.03  22 2.03  32 2.82  45 2.82  33 2.82  31 2.85
                            35 2.85  27 2.85  47 2.85  26 2.85  50 2.85  53 2.88  56 2.88  49 2.88
  55  0.874  0.374  0.374-  23 1.73  20 2.03  21 2.03   7 2.03  26 2.82  27 2.82  52 2.82  29 2.85
                            53 2.85  48 2.85  30 2.85  46 2.85  56 2.85  36 2.88  34 2.88  51 2.88
  56  0.876  0.624  0.124-  12 1.73   1 2.03  20 2.03  22 2.03  30 2.82  37 2.82  41 2.82  35 2.85
                            47 2.85  51 2.85  55 2.85  52 2.85  28 2.85  54 2.88  53 2.88  49 2.88
 
  LATTYP: Found a simple cubic cell.
 ALAT       =     8.0701092122
  
  Lattice vectors:
  
 A1 = (   8.0701092122,   0.0000000000,   0.0000000000)
 A2 = (   0.0000000000,   8.0701092122,   0.0000000000)
 A3 = (   0.0000000000,   0.0000000000,   8.0701092122)


Analysis of symmetry for initial positions (statically):
=====================================================================
 Subroutine PRICEL returns following result:
 
  LATTYP: Found a face centered cubic cell.
 ALAT       =     8.0701092122
  
  Lattice vectors:
  
 A1 = (   4.0350546061,   4.0350546061,   0.0000000000)
 A2 = (   4.0350546061,   0.0000000000,  -4.0350546061)
 A3 = (   0.0000000000,   4.0350546061,  -4.0350546061)
 
   4 primitive cells build up your supercell.
 

 Routine SETGRP: Setting up the symmetry group for a 
 simple cubic supercell.


 Subroutine GETGRP returns: Found 48 space group operations
 (whereof 24 operations were pure point group operations)
 out of a pool of 48 trial point group operations.


The static configuration has the point symmetry T_d .
 The point group associated with its full space group is O_h .


Analysis of symmetry for dynamics (positions and initial velocities):
=====================================================================
 Subroutine PRICEL returns following result:
 
  LATTYP: Found a face centered cubic cell.
 ALAT       =     8.0701092122
  
  Lattice vectors:
  
 A1 = (   4.0350546061,   4.0350546061,   0.0000000000)
 A2 = (   4.0350546061,   0.0000000000,  -4.0350546061)
 A3 = (   0.0000000000,   4.0350546061,  -4.0350546061)
 
   4 primitive cells build up your supercell.
 

 Routine SETGRP: Setting up the symmetry group for a 
 simple cubic supercell.


 Subroutine GETGRP returns: Found 48 space group operations
 (whereof 24 operations were pure point group operations)
 out of a pool of 48 trial point group operations.


The dynamic configuration has the point symmetry T_d .
 The point group associated with its full space group is O_h .


 Subroutine INISYM returns: Found 48 space group operations
 (whereof 24 operations are pure point group operations),
 and found     4 'primitive' translations

 
 
 KPOINTS: Automatic mesh                          

Automatic generation of k-mesh.
 generate k-points for:    6    6    6
Space group operators:
 irot       det(A)        alpha          n_x          n_y          n_z        tau_x        tau_y        tau_z
    1     1.000000     0.000000     1.000000     0.000000     0.000000     0.000000     0.000000    -0.000000
    2     1.000000   120.000000    -0.577350    -0.577350    -0.577350     0.000000     0.000000    -0.000000
    3     1.000000   120.000000     0.577350     0.577350     0.577350     0.000000     0.000000    -0.000000
    4    -1.000000    90.000000     0.000000    -0.000000    -1.000000     0.000000     0.000000    -0.000000
    5    -1.000000   180.000000     0.000000    -0.707107    -0.707107     0.000000     0.000000    -0.000000
    6    -1.000000    90.000000     0.000000     1.000000     0.000000     0.000000     0.000000    -0.000000
    7     1.000000   180.000000    -0.000000    -0.000000     1.000000     0.000000     0.000000    -0.000000
    8     1.000000   120.000000    -0.577350     0.577350     0.577350     0.000000     0.000000    -0.000000
    9     1.000000   120.000000    -0.577350     0.577350    -0.577350     0.000000     0.000000    -0.000000
   10    -1.000000    90.000000    -0.000000    -0.000000     1.000000     0.000000     0.000000    -0.000000
   11    -1.000000    90.000000    -1.000000     0.000000    -0.000000     0.000000     0.000000    -0.000000
   12    -1.000000   180.000000    -0.707107     0.000000    -0.707107     0.000000     0.000000    -0.000000
   13     1.000000   120.000000     0.577350    -0.577350     0.577350     0.000000     0.000000    -0.000000
   14     1.000000   120.000000    -0.577350    -0.577350     0.577350     0.000000     0.000000    -0.000000
   15     1.000000   180.000000     1.000000     0.000000     0.000000     0.000000     0.000000    -0.000000
   16    -1.000000    90.000000    -0.000000    -1.000000     0.000000     0.000000     0.000000    -0.000000
   17    -1.000000   180.000000     0.707107     0.707107     0.000000     0.000000     0.000000    -0.000000
   18    -1.000000    90.000000     1.000000    -0.000000    -0.000000     0.000000     0.000000    -0.000000
   19     1.000000   120.000000     0.577350    -0.577350    -0.577350     0.000000     0.000000    -0.000000
   20     1.000000   180.000000    -0.000000     1.000000     0.000000     0.000000     0.000000    -0.000000
   21     1.000000   120.000000     0.577350     0.577350    -0.577350     0.000000     0.000000    -0.000000
   22    -1.000000   180.000000    -0.000000    -0.707107     0.707107     0.000000     0.000000    -0.000000
   23    -1.000000   180.000000     0.707107    -0.707107     0.000000     0.000000     0.000000    -0.000000
   24    -1.000000   180.000000     0.707107     0.000000    -0.707107     0.000000     0.000000    -0.000000
   25    -1.000000     0.000000     1.000000     0.000000     0.000000     0.750000     0.750000    -0.750000
   26    -1.000000   120.000000    -0.577350    -0.577350    -0.577350     0.750000     0.750000    -0.750000
   27    -1.000000   120.000000     0.577350     0.577350     0.577350     0.750000     0.750000    -0.750000
   28     1.000000    90.000000     0.000000    -0.000000    -1.000000     0.750000     0.750000    -0.750000
   29     1.000000   180.000000     0.000000    -0.707107    -0.707107     0.750000     0.750000    -0.750000
   30     1.000000    90.000000     0.000000     1.000000     0.000000     0.750000     0.750000    -0.750000
   31    -1.000000   180.000000    -0.000000    -0.000000     1.000000     0.750000     0.750000    -0.750000
   32    -1.000000   120.000000    -0.577350     0.577350     0.577350     0.750000     0.750000    -0.750000
   33    -1.000000   120.000000    -0.577350     0.577350    -0.577350     0.750000     0.750000    -0.750000
   34     1.000000    90.000000    -0.000000    -0.000000     1.000000     0.750000     0.750000    -0.750000
   35     1.000000    90.000000    -1.000000     0.000000    -0.000000     0.750000     0.750000    -0.750000
   36     1.000000   180.000000    -0.707107     0.000000    -0.707107     0.750000     0.750000    -0.750000
   37    -1.000000   120.000000     0.577350    -0.577350     0.577350     0.750000     0.750000    -0.750000
   38    -1.000000   120.000000    -0.577350    -0.577350     0.577350     0.750000     0.750000    -0.750000
   39    -1.000000   180.000000     1.000000     0.000000     0.000000     0.750000     0.750000    -0.750000
   40     1.000000    90.000000    -0.000000    -1.000000     0.000000     0.750000     0.750000    -0.750000
   41     1.000000   180.000000     0.707107     0.707107     0.000000     0.750000     0.750000    -0.750000
   42     1.000000    90.000000     1.000000    -0.000000    -0.000000     0.750000     0.750000    -0.750000
   43    -1.000000   120.000000     0.577350    -0.577350    -0.577350     0.750000     0.750000    -0.750000
   44    -1.000000   180.000000    -0.000000     1.000000     0.000000     0.750000     0.750000    -0.750000
   45    -1.000000   120.000000     0.577350     0.577350    -0.577350     0.750000     0.750000    -0.750000
   46     1.000000   180.000000    -0.000000    -0.707107     0.707107     0.750000     0.750000    -0.750000
   47     1.000000   180.000000     0.707107    -0.707107     0.000000     0.750000     0.750000    -0.750000
   48     1.000000   180.000000     0.707107     0.000000    -0.707107     0.750000     0.750000    -0.750000
 
 Subroutine IBZKPT returns following result:
 ===========================================
 
 Found     20 irreducible k-points:
 
 Following reciprocal coordinates:
            Coordinates               Weight
  0.000000  0.000000  0.000000      1.000000
  0.166667  0.000000  0.000000      6.000000
  0.333333  0.000000  0.000000      6.000000
  0.500000  0.000000  0.000000      3.000000
  0.166667  0.166667  0.000000     12.000000
  0.333333  0.166667  0.000000     24.000000
  0.500000  0.166667  0.000000     12.000000
  0.333333  0.333333  0.000000     12.000000
  0.500000  0.333333  0.000000     12.000000
  0.500000  0.500000  0.000000      3.000000
  0.166667  0.166667  0.166667      8.000000
  0.333333  0.166667  0.166667     24.000000
  0.500000  0.166667  0.166667     12.000000
  0.333333  0.333333  0.166667     24.000000
  0.500000  0.333333  0.166667     24.000000
  0.500000  0.500000  0.166667      6.000000
  0.333333  0.333333  0.333333      8.000000
  0.500000  0.333333  0.333333     12.000000
  0.500000  0.500000  0.333333      6.000000
  0.500000  0.500000  0.500000      1.000000
 
 Following cartesian coordinates:
            Coordinates               Weight
  0.000000  0.000000  0.000000      1.000000
  0.020652  0.000000  0.000000      6.000000
  0.041305  0.000000  0.000000      6.000000
  0.061957  0.000000  0.000000      3.000000
  0.020652  0.020652  0.000000     12.000000
  0.041305  0.020652  0.000000     24.000000
  0.061957  0.020652  0.000000     12.000000
  0.041305  0.041305  0.000000     12.000000
  0.061957  0.041305  0.000000     12.000000
  0.061957  0.061957  0.000000      3.000000
  0.020652  0.020652  0.020652      8.000000
  0.041305  0.020652  0.020652     24.000000
  0.061957  0.020652  0.020652     12.000000
  0.041305  0.041305  0.020652     24.000000
  0.061957  0.041305  0.020652     24.000000
  0.061957  0.061957  0.020652      6.000000
  0.041305  0.041305  0.041305      8.000000
  0.061957  0.041305  0.041305     12.000000
  0.061957  0.061957  0.041305      6.000000
  0.061957  0.061957  0.061957      1.000000
 


--------------------------------------------------------------------------------------------------------




 Dimension of arrays:
   k-points           NKPTS =     20   k-points in BZ     NKDIM =     20   number of bands    NBANDS=    156
   number of dos      NEDOS =    301   number of ions     NIONS =     56
   non local maximal  LDIM  =      4   non local SUM 2l+1 LMDIM =      8
   total plane-waves  NPLWV = 157464
   max r-space proj   IRMAX =   6192   max aug-charges    IRDMAX=  10215
   dimension x,y,z NGX =    54 NGY =   54 NGZ =   54
   dimension x,y,z NGXF=   108 NGYF=  108 NGZF=  108
   support grid    NGXF=   108 NGYF=  108 NGZF=  108
   ions per type =              24  32
   NGX,Y,Z   is equivalent  to a cutoff of  11.12, 11.12, 11.12 a.u.
   NGXF,Y,Z  is equivalent  to a cutoff of  22.25, 22.25, 22.25 a.u.

 SYSTEM =  unknown system                          
 POSCAR =  Si24 N32                                

 Startparameter for this run:
   NWRITE =      2    write-flag & timer
   PREC   = accura    normal or accurate (medium, high low for compatibility)
   ISTART =      0    job   : 0-new  1-cont  2-samecut
   ICHARG =      2    charge: 1-file 2-atom 10-const
   ISPIN  =      1    spin polarized calculation?
   LNONCOLLINEAR =      F non collinear calculations
   LSORBIT =      F    spin-orbit coupling
   INIWAV =      1    electr: 0-lowe 1-rand  2-diag
   LASPH  =      F    aspherical Exc in radial PAW
   METAGGA=      F    non-selfconsistent MetaGGA calc.

 Electronic Relaxation 1
   ENCUT  =  400.0 eV  29.40 Ry    5.42 a.u.  13.16 13.16 13.16*2*pi/ulx,y,z
   ENINI  =  400.0     initial cutoff
   ENAUG  =  627.1 eV  augmentation charge cutoff
   NELM   =     60;   NELMIN=  2; NELMDL= -5     # of ELM steps 
   EDIFF  = 0.1E-03   stopping-criterion for ELM
   LREAL  =      T    real-space projection
   NLSPLINE    = F    spline interpolate recip. space projectors
   LCOMPAT=      F    compatible to vasp.4.4
   GGA_COMPAT  = T    GGA compatible to vasp.4.4-vasp.4.6
   LMAXPAW     = -100 max onsite density
   LMAXMIX     =    2 max onsite mixed and CHGCAR
   VOSKOWN=      0    Vosko Wilk Nusair interpolation
   ROPT   =   -0.00025  -0.00025
 Ionic relaxation
   EDIFFG = 0.1E-02   stopping-criterion for IOM
   NSW    =    100    number of steps for IOM
   NBLOCK =      1;   KBLOCK =    100    inner block; outer block 
   IBRION =      2    ionic relax: 0-MD 1-quasi-New 2-CG
   NFREE  =      1    steps in history (QN), initial steepest desc. (CG)
   ISIF   =      2    stress and relaxation
   IWAVPR =     11    prediction:  0-non 1-charg 2-wave 3-comb
   ISYM   =      2    0-nonsym 1-usesym 2-fastsym
   LCORR  =      T    Harris-Foulkes like correction to forces

   POTIM  = 0.5000    time-step for ionic-motion
   TEIN   =    0.0    initial temperature
   TEBEG  =    0.0;   TEEND  =   0.0 temperature during run
   SMASS  =  -3.00    Nose mass-parameter (am)
   estimated Nose-frequenzy (Omega)   =  0.10E-29 period in steps =****** mass=  -0.149E-26a.u.
   SCALEE = 1.0000    scale energy and forces
   NPACO  =    256;   APACO  = 16.0  distance and # of slots for P.C.
   PSTRESS=    0.0 pullay stress

  Mass of Ions in am
   POMASS =  14.00 28.09
  Ionic Valenz
   ZVAL   =   5.00  4.00
  Atomic Wigner-Seitz radii
   RWIGS  =  -1.00 -1.00
  virtual crystal weights 
   VCA    =   1.00  1.00
   NELECT =     248.0000    total number of electrons
   NUPDOWN=      -1.0000    fix difference up-down

 DOS related values:
   EMIN   =  10.00;   EMAX   =-10.00  energy-range for DOS
   EFERMI =   0.00
   ISMEAR =     2;   SIGMA  =   0.10  broadening in eV -4-tet -1-fermi 0-gaus

 Electronic relaxation 2 (details)
   IALGO  =     68    algorithm
   LDIAG  =      T    sub-space diagonalisation (order eigenvalues)
   LSUBROT=      F    optimize rotation matrix (better conditioning)
   TURBO    =      0    0=normal 1=particle mesh
   IRESTART =      0    0=no restart 2=restart with 2 vectors
   NREBOOT  =      0    no. of reboots
   NMIN     =      0    reboot dimension
   EREF     =   0.00    reference energy to select bands
   IMIX   =      4    mixing-type and parameters
     AMIX     =   0.40;   BMIX     =  1.00
     AMIX_MAG =   1.60;   BMIX_MAG =  1.00
     AMIN     =   0.10
     WC   =   100.;   INIMIX=   1;  MIXPRE=   1;  MAXMIX= -45

 Intra band minimization:
   WEIMIN = 0.0010     energy-eigenvalue tresh-hold
   EBREAK =  0.16E-06  absolut break condition
   DEPER  =   0.30     relativ break condition  

   TIME   =   0.40     timestep for ELM

  volume/ion in A,a.u.               =       9.39        63.34
  Fermi-wavevector in a.u.,A,eV,Ry     =   1.274518  2.408490 22.101252  1.624396
  Thomas-Fermi vector in A             =   2.407282
 
 Write flags
   LWAVE        =      F    write WAVECAR
   LDOWNSAMPLE  =      F    k-point downsampling of WAVECAR
   LCHARG       =      F    write CHGCAR
   LVTOT        =      F    write LOCPOT, total local potential
   LVHAR        =      F    write LOCPOT, Hartree potential only
   LELF         =      F    write electronic localiz. function (ELF)
   LORBIT       =      0    0 simple, 1 ext, 2 COOP (PROOUT), +10 PAW based schemes


 Dipole corrections
   LMONO  =      F    monopole corrections only (constant potential shift)
   LDIPOL =      F    correct potential (dipole corrections)
   IDIPOL =      0    1-x, 2-y, 3-z, 4-all directions 
   EPSILON=  1.0000000 bulk dielectric constant

 Exchange correlation treatment:
   GGA     =    --    GGA type
   LEXCH   =     8    internal setting for exchange type
   VOSKOWN=      0    Vosko Wilk Nusair interpolation
   LHFCALC =     F    Hartree Fock is set to
   LHFONE  =     F    Hartree Fock one center treatment
   AEXX    =    0.0000 exact exchange contribution

 Linear response parameters
   LEPSILON=     F    determine dielectric tensor
   LRPA    =     F    only Hartree local field effects (RPA)
   LNABLA  =     F    use nabla operator in PAW spheres
   LVEL    =     F    velocity operator in full k-point grid
   LINTERFAST=   F  fast interpolation
   KINTER  =     0    interpolate to denser k-point grid
   CSHIFT  =0.1000    complex shift for real part using Kramers Kronig
   OMEGAMAX=  -1.0    maximum frequency
   DEG_THRESHOLD= 0.2000000E-02 threshold for treating states as degnerate
   RTIME   =   -0.100 relaxation time in fs
  (WPLASMAI=    0.000 imaginary part of plasma frequency in eV, 0.658/RTIME)
   DFIELD  = 0.0000000 0.0000000 0.0000000 field for delta impulse in time
 
 Orbital magnetization related:
   ORBITALMAG=     F  switch on orbital magnetization
   LCHIMAG   =     F  perturbation theory with respect to B field
   DQ        =  0.001000  dq finite difference perturbation B field
   LLRAUG    =     F  two centre corrections for induced B field



--------------------------------------------------------------------------------------------------------


 conjugate gradient relaxation of ions
 charge density and potential will be updated during run
 non-spin polarized calculation
 RMM-DIIS sequential band-by-band and
  variant of blocked Davidson during initial phase
 perform sub-space diagonalisation
    before iterative eigenvector-optimisation
 modified Broyden-mixing scheme, WC =      100.0
 initial mixing is a Kerker type mixing with AMIX =  0.4000 and BMIX =      1.0000
 Hartree-type preconditioning will be used
 using additional bands           32
 real space projection scheme for non local part
 use partial core corrections
 calculate Harris-corrections to forces 
   (improved forces if not selfconsistent)
 use gradient corrections 
 use of overlap-Matrix (Vanderbilt PP)
 Methfessel and Paxton  Order N= 2 SIGMA  =   0.10


--------------------------------------------------------------------------------------------------------


  energy-cutoff  :      400.00
  volume of cell :      525.58
      direct lattice vectors                 reciprocal lattice vectors
     8.070109212  0.000000000  0.000000000     0.123914060 -0.000000000  0.000000000
     0.000000000  8.070109212  0.000000000    -0.000000000  0.123914060  0.000000000
     0.000000000  0.000000000  8.070109212    -0.000000000 -0.000000000  0.123914060

  length of vectors
     8.070109212  8.070109212  8.070109212     0.123914060  0.123914060  0.123914060


 
 k-points in units of 2pi/SCALE and weight: Automatic mesh                          
   0.00000000  0.00000000  0.00000000       0.005
   0.02065234  0.00000000  0.00000000       0.028
   0.04130469  0.00000000  0.00000000       0.028
   0.06195703  0.00000000  0.00000000       0.014
   0.02065234  0.02065234  0.00000000       0.056
   0.04130469  0.02065234  0.00000000       0.111
   0.06195703  0.02065234  0.00000000       0.056
   0.04130469  0.04130469  0.00000000       0.056
   0.06195703  0.04130469  0.00000000       0.056
   0.06195703  0.06195703  0.00000000       0.014
   0.02065234  0.02065234  0.02065234       0.037
   0.04130469  0.02065234  0.02065234       0.111
   0.06195703  0.02065234  0.02065234       0.056
   0.04130469  0.04130469  0.02065234       0.111
   0.06195703  0.04130469  0.02065234       0.111
   0.06195703  0.06195703  0.02065234       0.028
   0.04130469  0.04130469  0.04130469       0.037
   0.06195703  0.04130469  0.04130469       0.056
   0.06195703  0.06195703  0.04130469       0.028
   0.06195703  0.06195703  0.06195703       0.005
 
 k-points in reciprocal lattice and weights: Automatic mesh                          
   0.00000000  0.00000000  0.00000000       0.005
   0.16666667  0.00000000  0.00000000       0.028
   0.33333333  0.00000000  0.00000000       0.028
   0.50000000  0.00000000  0.00000000       0.014
   0.16666667  0.16666667  0.00000000       0.056
   0.33333333  0.16666667  0.00000000       0.111
   0.50000000  0.16666667  0.00000000       0.056
   0.33333333  0.33333333  0.00000000       0.056
   0.50000000  0.33333333  0.00000000       0.056
   0.50000000  0.50000000  0.00000000       0.014
   0.16666667  0.16666667  0.16666667       0.037
   0.33333333  0.16666667  0.16666667       0.111
   0.50000000  0.16666667  0.16666667       0.056
   0.33333333  0.33333333  0.16666667       0.111
   0.50000000  0.33333333  0.16666667       0.111
   0.50000000  0.50000000  0.16666667       0.028
   0.33333333  0.33333333  0.33333333       0.037
   0.50000000  0.33333333  0.33333333       0.056
   0.50000000  0.50000000  0.33333333       0.028
   0.50000000  0.50000000  0.50000000       0.005
 
 position of ions in fractional coordinates (direct lattice) 
   0.87500000  0.87500000  0.12500000
   0.37500000  0.12500000  0.37500000
   0.62500000  0.87500000  0.37500000
   0.12500000  0.12500000  0.12500000
   0.25000000  0.75000000  0.25000000
   0.00000000  0.00000000  0.50000000
   0.87500000  0.37500000  0.62500000
   0.37500000  0.62500000  0.87500000
   0.62500000  0.37500000  0.87500000
   0.12500000  0.62500000  0.62500000
   0.25000000  0.25000000  0.75000000
   0.00000000  0.50000000  0.00000000
   0.37500000  0.87500000  0.62500000
   0.87500000  0.12500000  0.87500000
   0.12500000  0.87500000  0.87500000
   0.62500000  0.12500000  0.62500000
   0.75000000  0.75000000  0.75000000
   0.50000000  0.00000000  0.00000000
   0.37500000  0.37500000  0.12500000
   0.87500000  0.62500000  0.37500000
   0.12500000  0.37500000  0.37500000
   0.62500000  0.62500000  0.12500000
   0.75000000  0.25000000  0.25000000
   0.50000000  0.50000000  0.50000000
   0.37630293  0.37630293  0.37630293
   0.87369707  0.12630293  0.12630293
   0.62630293  0.12630293  0.37369707
   0.12630293  0.87369707  0.12630293
   0.12369707  0.12369707  0.37630293
   0.12369707  0.37630293  0.12369707
   0.37369707  0.87369707  0.37369707
   0.37630293  0.12369707  0.12369707
   0.37630293  0.87630293  0.87630293
   0.87369707  0.62630293  0.62630293
   0.62630293  0.62630293  0.87369707
   0.12630293  0.37369707  0.62630293
   0.12369707  0.62369707  0.87630293
   0.12369707  0.87630293  0.62369707
   0.37369707  0.37369707  0.87369707
   0.37630293  0.62369707  0.62369707
   0.87630293  0.37630293  0.87630293
   0.37369707  0.12630293  0.62630293
   0.12630293  0.12630293  0.87369707
   0.62630293  0.87369707  0.62630293
   0.62369707  0.12369707  0.87630293
   0.62369707  0.37630293  0.62369707
   0.87369707  0.87369707  0.87369707
   0.87630293  0.12369707  0.62369707
   0.87630293  0.87630293  0.37630293
   0.37369707  0.62630293  0.12630293
   0.12630293  0.62630293  0.37369707
   0.62630293  0.37369707  0.12630293
   0.62369707  0.62369707  0.37630293
   0.62369707  0.87630293  0.12369707
   0.87369707  0.37369707  0.37369707
   0.87630293  0.62369707  0.12369707
 
 position of ions in cartesian coordinates  (Angst):
   7.06134556  7.06134556  1.00876365
   3.02629095  1.00876365  3.02629095
   5.04381826  7.06134556  3.02629095
   1.00876365  1.00876365  1.00876365
   2.01752730  6.05258191  2.01752730
   0.00000000  0.00000000  4.03505461
   7.06134556  3.02629095  5.04381826
   3.02629095  5.04381826  7.06134556
   5.04381826  3.02629095  7.06134556
   1.00876365  5.04381826  5.04381826
   2.01752730  2.01752730  6.05258191
   0.00000000  4.03505461  0.00000000
   3.02629095  7.06134556  5.04381826
   7.06134556  1.00876365  7.06134556
   1.00876365  7.06134556  7.06134556
   5.04381826  1.00876365  5.04381826
   6.05258191  6.05258191  6.05258191
   4.03505461  0.00000000  0.00000000
   3.02629095  3.02629095  1.00876365
   7.06134556  5.04381826  3.02629095
   1.00876365  3.02629095  3.02629095
   5.04381826  5.04381826  1.00876365
   6.05258191  2.01752730  2.01752730
   4.03505461  4.03505461  4.03505461
   3.03680577  3.03680577  3.03680577
   7.05083074  1.01927847  1.01927847
   5.05433307  1.01927847  3.01577614
   1.01927847  7.05083074  1.01927847
   0.99824884  0.99824884  3.03680577
   0.99824884  3.03680577  0.99824884
   3.01577614  7.05083074  3.01577614
   3.03680577  0.99824884  0.99824884
   3.03680577  7.07186038  7.07186038
   7.05083074  5.05433307  5.05433307
   5.05433307  5.05433307  7.05083074
   1.01927847  3.01577614  5.05433307
   0.99824884  5.03330344  7.07186038
   0.99824884  7.07186038  5.03330344
   3.01577614  3.01577614  7.05083074
   3.03680577  5.03330344  5.03330344
   7.07186038  3.03680577  7.07186038
   3.01577614  1.01927847  5.05433307
   1.01927847  1.01927847  7.05083074
   5.05433307  7.05083074  5.05433307
   5.03330344  0.99824884  7.07186038
   5.03330344  3.03680577  5.03330344
   7.05083074  7.05083074  7.05083074
   7.07186038  0.99824884  5.03330344
   7.07186038  7.07186038  3.03680577
   3.01577614  5.05433307  1.01927847
   1.01927847  5.05433307  3.01577614
   5.05433307  3.01577614  1.01927847
   5.03330344  5.03330344  3.03680577
   5.03330344  7.07186038  0.99824884
   7.05083074  3.01577614  3.01577614
   7.07186038  5.03330344  0.99824884
 


--------------------------------------------------------------------------------------------------------


 k-point  1 :   0.0000 0.0000 0.0000  plane waves:    9627
 k-point  2 :   0.1667 0.0000 0.0000  plane waves:    9542
 k-point  3 :   0.3333 0.0000 0.0000  plane waves:    9542
 k-point  4 :   0.5000 0.0000 0.0000  plane waves:    9530
 k-point  5 :   0.1667 0.1667 0.0000  plane waves:    9537
 k-point  6 :   0.3333 0.1667 0.0000  plane waves:    9555
 k-point  7 :   0.5000 0.1667 0.0000  plane waves:    9550
 k-point  8 :   0.3333 0.3333 0.0000  plane waves:    9554
 k-point  9 :   0.5000 0.3333 0.0000  plane waves:    9534
 k-point 10 :   0.5000 0.5000 0.0000  plane waves:    9540
 k-point 11 :   0.1667 0.1667 0.1667  plane waves:    9525
 k-point 12 :   0.3333 0.1667 0.1667  plane waves:    9557
 k-point 13 :   0.5000 0.1667 0.1667  plane waves:    9540
 k-point 14 :   0.3333 0.3333 0.1667  plane waves:    9541
 k-point 15 :   0.5000 0.3333 0.1667  plane waves:    9548
 k-point 16 :   0.5000 0.5000 0.1667  plane waves:    9540
 k-point 17 :   0.3333 0.3333 0.3333  plane waves:    9552
 k-point 18 :   0.5000 0.3333 0.3333  plane waves:    9586
 k-point 19 :   0.5000 0.5000 0.3333  plane waves:    9576
 k-point 20 :   0.5000 0.5000 0.5000  plane waves:    9568

 maximum and minimum number of plane-waves per node :      2419     2361

 maximum number of plane-waves:      9627
 maximum index in each direction: 
   IXMAX=   13   IYMAX=   13   IZMAX=   13
   IXMIN=  -13   IYMIN=  -13   IZMIN=  -13


 real space projection operators:
  total allocation   :      15341.75 KBytes
  max/ min on nodes  :       3995.00       3675.88


 parallel 3D FFT for wavefunctions:
    minimum data exchange during FFTs selected (reduces bandwidth)
 parallel 3D FFT for charge:
    minimum data exchange during FFTs selected (reduces bandwidth)


 total amount of memory used by VASP MPI-rank0    82490. kBytes
=======================================================================

   base      :      30000. kBytes
   nonlr-proj:      10838. kBytes
   fftplans  :       3983. kBytes
   grid      :       6277. kBytes
   one-center:         43. kBytes
   wavefun   :      31349. kBytes
 
     INWAV:  cpu time    0.0000: real time    0.0000
 Broyden mixing: mesh for mixing (old mesh)
   NGX = 27   NGY = 27   NGZ = 27
  (NGX  =108   NGY  =108   NGZ  =108)
  gives a total of  19683 points

 initial charge density was supplied:
 charge density of overlapping atoms calculated
 number of electron     248.0000000 magnetization 
 keeping initial charge density in first step


--------------------------------------------------------------------------------------------------------


 Maximum index for non-local projection operator         1710
 Maximum index for augmentation-charges          702 (set IRDMAX)


--------------------------------------------------------------------------------------------------------


 First call to EWALD:  gamma=   0.220
 Maximum number of real-space cells 3x 3x 3
 Maximum number of reciprocal cells 3x 3x 3

    FEWALD:  cpu time    0.0174: real time    0.0174


--------------------------------------- Iteration      1(   1)  ---------------------------------------


    POTLOK:  cpu time    0.0615: real time    0.0631
    SETDIJ:  cpu time    0.0074: real time    0.0074
     EDDAV:  cpu time   11.5439: real time   11.5501
       DOS:  cpu time    0.0030: real time    0.0030
    --------------------------------------------
      LOOP:  cpu time   11.6158: real time   11.6237

 eigenvalue-minimisations  :  6240
 total energy-change (2. order) : 0.9001646E+03  (-0.1022573E+05)
 number of electron     248.0000000 magnetization 
 augmentation part      248.0000000 magnetization 

 Free energy of the ion-electron system (eV)
  ---------------------------------------------------
  alpha Z        PSCENC =       371.11140659
  Ewald energy   TEWEN  =    -10307.25970423
  -Hartree energ DENC   =     -1384.14998668
  -exchange      EXHF   =         0.00000000
  -V(xc)+E(xc)   XCENC  =       224.25029181
  PAW double counting   =      7738.34714636    -7203.94574617
  entropy T*S    EENTRO =        -0.00838729
  eigenvalues    EBANDS =      1816.31562299
  atomic energy  EATOM  =      9645.50393724
  Solvation  Ediel_sol  =         0.00000000
  ---------------------------------------------------
  free energy    TOTEN  =       900.16458063 eV

  energy without entropy =      900.17296792  energy(sigma->0) =      900.16667746


--------------------------------------------------------------------------------------------------------




--------------------------------------- Iteration      1(   2)  ---------------------------------------


     EDDAV:  cpu time   16.4747: real time   16.4752
       DOS:  cpu time    0.0033: real time    0.0033
    --------------------------------------------
      LOOP:  cpu time   16.4780: real time   16.4784

 eigenvalue-minimisations  :  7840
 total energy-change (2. order) :-0.1151859E+04  (-0.1107635E+04)
 number of electron     248.0000000 magnetization 
 augmentation part      248.0000000 magnetization 

 Free energy of the ion-electron system (eV)
  ---------------------------------------------------
  alpha Z        PSCENC =       371.11140659
  Ewald energy   TEWEN  =    -10307.25970423
  -Hartree energ DENC   =     -1384.14998668
  -exchange      EXHF   =         0.00000000
  -V(xc)+E(xc)   XCENC  =       224.25029181
  PAW double counting   =      7738.34714636    -7203.94574617
  entropy T*S    EENTRO =        -0.00564545
  eigenvalues    EBANDS =       664.45409577
  atomic energy  EATOM  =      9645.50393724
  Solvation  Ediel_sol  =         0.00000000
  ---------------------------------------------------
  free energy    TOTEN  =      -251.69420475 eV

  energy without entropy =     -251.68855930  energy(sigma->0) =     -251.69279339


--------------------------------------------------------------------------------------------------------




--------------------------------------- Iteration      1(   3)  ---------------------------------------


     EDDAV:  cpu time   18.9853: real time   18.9900
       DOS:  cpu time    0.0033: real time    0.0033
    --------------------------------------------
      LOOP:  cpu time   18.9886: real time   18.9933

 eigenvalue-minimisations  :  7696
 total energy-change (2. order) :-0.9336471E+02  (-0.8927595E+02)
 number of electron     248.0000000 magnetization 
 augmentation part      248.0000000 magnetization 

 Free energy of the ion-electron system (eV)
  ---------------------------------------------------
  alpha Z        PSCENC =       371.11140659
  Ewald energy   TEWEN  =    -10307.25970423
  -Hartree energ DENC   =     -1384.14998668
  -exchange      EXHF   =         0.00000000
  -V(xc)+E(xc)   XCENC  =       224.25029181
  PAW double counting   =      7738.34714636    -7203.94574617
  entropy T*S    EENTRO =        -0.01407247
  eigenvalues    EBANDS =       571.09781293
  atomic energy  EATOM  =      9645.50393724
  Solvation  Ediel_sol  =         0.00000000
  ---------------------------------------------------
  free energy    TOTEN  =      -345.05891461 eV

  energy without entropy =     -345.04484213  energy(sigma->0) =     -345.05539649


--------------------------------------------------------------------------------------------------------




--------------------------------------- Iteration      1(   4)  ---------------------------------------


     EDDAV:  cpu time   13.6000: real time   13.6150
       DOS:  cpu time    0.0034: real time    0.0034
    --------------------------------------------
      LOOP:  cpu time   13.6034: real time   13.6184

 eigenvalue-minimisations  :  7752
 total energy-change (2. order) :-0.2938540E+01  (-0.2838295E+01)
 number of electron     248.0000000 magnetization 
 augmentation part      248.0000000 magnetization 

 Free energy of the ion-electron system (eV)
  ---------------------------------------------------
  alpha Z        PSCENC =       371.11140659
  Ewald energy   TEWEN  =    -10307.25970423
  -Hartree energ DENC   =     -1384.14998668
  -exchange      EXHF   =         0.00000000
  -V(xc)+E(xc)   XCENC  =       224.25029181
  PAW double counting   =      7738.34714636    -7203.94574617
  entropy T*S    EENTRO =        -0.01540359
  eigenvalues    EBANDS =       568.16060443
  atomic energy  EATOM  =      9645.50393724
  Solvation  Ediel_sol  =         0.00000000
  ---------------------------------------------------
  free energy    TOTEN  =      -347.99745422 eV

  energy without entropy =     -347.98205063  energy(sigma->0) =     -347.99360333


--------------------------------------------------------------------------------------------------------




--------------------------------------- Iteration      1(   5)  ---------------------------------------


     EDDAV:  cpu time   13.4286: real time   13.4407
       DOS:  cpu time    0.0033: real time    0.0033
    CHARGE:  cpu time    0.5086: real time    0.5087
    MIXING:  cpu time    0.0074: real time    0.0075
    --------------------------------------------
      LOOP:  cpu time   13.9479: real time   13.9602

 eigenvalue-minimisations  :  7632
 total energy-change (2. order) :-0.8292331E-01  (-0.8214723E-01)
 number of electron     248.0000066 magnetization 
 augmentation part       -0.3341488 magnetization 

 Broyden mixing:
  rms(total) = 0.44394E+01    rms(broyden)= 0.44388E+01
  rms(prec ) = 0.58013E+01
  weight for this iteration     100.00

 Free energy of the ion-electron system (eV)
  ---------------------------------------------------
  alpha Z        PSCENC =       371.11140659
  Ewald energy   TEWEN  =    -10307.25970423
  -Hartree energ DENC   =     -1384.14998668
  -exchange      EXHF   =         0.00000000
  -V(xc)+E(xc)   XCENC  =       224.25029181
  PAW double counting   =      7738.34714636    -7203.94574617
  entropy T*S    EENTRO =        -0.01522152
  eigenvalues    EBANDS =       568.07749905
  atomic energy  EATOM  =      9645.50393724
  Solvation  Ediel_sol  =         0.00000000
  ---------------------------------------------------
  free energy    TOTEN  =      -348.08037754 eV

  energy without entropy =     -348.06515602  energy(sigma->0) =     -348.07657216


--------------------------------------------------------------------------------------------------------




--------------------------------------- Iteration      1(   6)  ---------------------------------------


    POTLOK:  cpu time    0.0576: real time    0.0596
    SETDIJ:  cpu time    0.0080: real time    0.0081
    EDDIAG:  cpu time    1.3876: real time    1.3889
  RMM-DIIS:  cpu time    7.1151: real time    7.1164
    ORTHCH:  cpu time    0.1862: real time    0.1863
       DOS:  cpu time    0.0034: real time    0.0034
    CHARGE:  cpu time    0.5093: real time    0.5093
    MIXING:  cpu time    0.0016: real time    0.0016
    --------------------------------------------
      LOOP:  cpu time    9.2689: real time    9.2736

 eigenvalue-minimisations  :  6241
 total energy-change (2. order) : 0.3068944E+02  (-0.1433156E+02)
 number of electron     248.0000057 magnetization 
 augmentation part       -2.9932469 magnetization 

 Broyden mixing:
  rms(total) = 0.20451E+01    rms(broyden)= 0.20445E+01
  rms(prec ) = 0.21217E+01
  weight for this iteration     100.00

 eigenvalues of (default mixing * dielectric matrix)
  average eigenvalue GAMMA=   1.1379
  1.1379

 Free energy of the ion-electron system (eV)
  ---------------------------------------------------
  alpha Z        PSCENC =       371.11140659
  Ewald energy   TEWEN  =    -10307.25970423
  -Hartree energ DENC   =     -1641.82056290
  -exchange      EXHF   =         0.00000000
  -V(xc)+E(xc)   XCENC  =       242.47683474
  PAW double counting   =     15372.42962363   -14840.50159753
  entropy T*S    EENTRO =         0.00906921
  eigenvalues    EBANDS =       840.66005075
  atomic energy  EATOM  =      9645.50393724
  Solvation  Ediel_sol  =         0.00000000
  ---------------------------------------------------
  free energy    TOTEN  =      -317.39094248 eV

  energy without entropy =     -317.40001170  energy(sigma->0) =     -317.39320978


--------------------------------------------------------------------------------------------------------




--------------------------------------- Iteration      1(   7)  ---------------------------------------


    POTLOK:  cpu time    0.0558: real time    0.0580
    SETDIJ:  cpu time    0.0078: real time    0.0078
    EDDIAG:  cpu time    1.3763: real time    1.3768
  RMM-DIIS:  cpu time   18.0749: real time   18.0757
    ORTHCH:  cpu time    0.1891: real time    0.1891
       DOS:  cpu time    0.0030: real time    0.0030
    CHARGE:  cpu time    0.4891: real time    0.4892
    MIXING:  cpu time    0.0015: real time    0.0015
    --------------------------------------------
      LOOP:  cpu time   20.1975: real time   20.2011

 eigenvalue-minimisations  :  6514
 total energy-change (2. order) : 0.3531093E+00  (-0.4811498E+00)
 number of electron     248.0000057 magnetization 
 augmentation part       -3.2240827 magnetization 

 Broyden mixing:
  rms(total) = 0.11153E+01    rms(broyden)= 0.11152E+01
  rms(prec ) = 0.11715E+01
  weight for this iteration     100.00

 eigenvalues of (default mixing * dielectric matrix)
  average eigenvalue GAMMA=   1.6004
  1.0803  2.1204

 Free energy of the ion-electron system (eV)
  ---------------------------------------------------
  alpha Z        PSCENC =       371.11140659
  Ewald energy   TEWEN  =    -10307.25970423
  -Hartree energ DENC   =     -1646.71406595
  -exchange      EXHF   =         0.00000000
  -V(xc)+E(xc)   XCENC  =       243.57429643
  PAW double counting   =     21991.28485062   -21460.36014816
  entropy T*S    EENTRO =         0.01053417
  eigenvalues    EBANDS =       845.81106011
  atomic energy  EATOM  =      9645.50393724
  Solvation  Ediel_sol  =         0.00000000
  ---------------------------------------------------
  free energy    TOTEN  =      -317.03783318 eV

  energy without entropy =     -317.04836735  energy(sigma->0) =     -317.04046673


--------------------------------------------------------------------------------------------------------




--------------------------------------- Iteration      1(   8)  ---------------------------------------


    POTLOK:  cpu time    0.0556: real time    0.0573
    SETDIJ:  cpu time    0.0075: real time    0.0075
    EDDIAG:  cpu time    1.3732: real time    1.3744
  RMM-DIIS:  cpu time    7.2259: real time    7.2324
    ORTHCH:  cpu time    0.1875: real time    0.1876
       DOS:  cpu time    0.0034: real time    0.0034
    CHARGE:  cpu time    0.5097: real time    0.5101
    MIXING:  cpu time    0.0017: real time    0.0017
    --------------------------------------------
      LOOP:  cpu time    9.3643: real time    9.3743

 eigenvalue-minimisations  :  6257
 total energy-change (2. order) : 0.1446545E+00  (-0.1348162E+00)
 number of electron     248.0000058 magnetization 
 augmentation part       -3.0643218 magnetization 

 Broyden mixing:
  rms(total) = 0.17519E+00    rms(broyden)= 0.17516E+00
  rms(prec ) = 0.24757E+00
  weight for this iteration     100.00

 eigenvalues of (default mixing * dielectric matrix)
  average eigenvalue GAMMA=   1.3971
  2.3147  0.9383  0.9383

 Free energy of the ion-electron system (eV)
  ---------------------------------------------------
  alpha Z        PSCENC =       371.11140659
  Ewald energy   TEWEN  =    -10307.25970423
  -Hartree energ DENC   =     -1626.42875750
  -exchange      EXHF   =         0.00000000
  -V(xc)+E(xc)   XCENC  =       243.19663542
  PAW double counting   =     30038.23170768   -29508.35175911
  entropy T*S    EENTRO =         0.00808784
  eigenvalues    EBANDS =       827.09526734
  atomic energy  EATOM  =      9645.50393724
  Solvation  Ediel_sol  =         0.00000000
  ---------------------------------------------------
  free energy    TOTEN  =      -316.89317873 eV

  energy without entropy =     -316.90126657  energy(sigma->0) =     -316.89520069


--------------------------------------------------------------------------------------------------------




--------------------------------------- Iteration      1(   9)  ---------------------------------------


    POTLOK:  cpu time    0.0556: real time    0.0578
    SETDIJ:  cpu time    0.0079: real time    0.0079
    EDDIAG:  cpu time    1.3629: real time    1.3644
  RMM-DIIS:  cpu time    7.3847: real time    7.3866
    ORTHCH:  cpu time    0.1854: real time    0.1854
       DOS:  cpu time    0.0034: real time    0.0034
    CHARGE:  cpu time    0.5084: real time    0.5085
    MIXING:  cpu time    0.0017: real time    0.0017
    --------------------------------------------
      LOOP:  cpu time    9.5101: real time    9.5156

 eigenvalue-minimisations  :  6434
 total energy-change (2. order) : 0.6545121E-01  (-0.1290825E-01)
 number of electron     248.0000058 magnetization 
 augmentation part       -3.1175052 magnetization 

 Broyden mixing:
  rms(total) = 0.60009E-01    rms(broyden)= 0.60004E-01
  rms(prec ) = 0.86687E-01
  weight for this iteration     100.00

 eigenvalues of (default mixing * dielectric matrix)
  average eigenvalue GAMMA=   1.3023
  2.3324  0.9887  0.9887  0.8993

 Free energy of the ion-electron system (eV)
  ---------------------------------------------------
  alpha Z        PSCENC =       371.11140659
  Ewald energy   TEWEN  =    -10307.25970423
  -Hartree energ DENC   =     -1636.37788606
  -exchange      EXHF   =         0.00000000
  -V(xc)+E(xc)   XCENC  =       243.98306406
  PAW double counting   =     31106.83865388   -30577.15428241
  entropy T*S    EENTRO =         0.00927608
  eigenvalues    EBANDS =       836.51780733
  atomic energy  EATOM  =      9645.50393724
  Solvation  Ediel_sol  =         0.00000000
  ---------------------------------------------------
  free energy    TOTEN  =      -316.82772752 eV

  energy without entropy =     -316.83700359  energy(sigma->0) =     -316.83004654


--------------------------------------------------------------------------------------------------------




--------------------------------------- Iteration      1(  10)  ---------------------------------------


    POTLOK:  cpu time    0.0558: real time    0.0576
    SETDIJ:  cpu time    0.0074: real time    0.0074
    EDDIAG:  cpu time    1.3594: real time    1.3598
  RMM-DIIS:  cpu time    7.4385: real time    7.4407
    ORTHCH:  cpu time    0.1838: real time    0.1841
       DOS:  cpu time    0.0033: real time    0.0033
    CHARGE:  cpu time    0.5181: real time    0.5182
    MIXING:  cpu time    0.0018: real time    0.0018
    --------------------------------------------
      LOOP:  cpu time    9.5681: real time    9.5728

 eigenvalue-minimisations  :  6571
 total energy-change (2. order) : 0.3790328E-02  (-0.7828042E-02)
 number of electron     248.0000058 magnetization 
 augmentation part       -3.1644471 magnetization 

 Broyden mixing:
  rms(total) = 0.25051E-01    rms(broyden)= 0.25017E-01
  rms(prec ) = 0.30211E-01
  weight for this iteration     100.00

 eigenvalues of (default mixing * dielectric matrix)
  average eigenvalue GAMMA=   1.5483
  2.3855  2.3855  0.9298  1.0205  1.0205

 Free energy of the ion-electron system (eV)
  ---------------------------------------------------
  alpha Z        PSCENC =       371.11140659
  Ewald energy   TEWEN  =    -10307.25970423
  -Hartree energ DENC   =     -1641.48235437
  -exchange      EXHF   =         0.00000000
  -V(xc)+E(xc)   XCENC  =       244.35800098
  PAW double counting   =     31217.03444733   -30687.41238347
  entropy T*S    EENTRO =         0.00966723
  eigenvalues    EBANDS =       841.31304551
  atomic energy  EATOM  =      9645.50393724
  Solvation  Ediel_sol  =         0.00000000
  ---------------------------------------------------
  free energy    TOTEN  =      -316.82393719 eV

  energy without entropy =     -316.83360442  energy(sigma->0) =     -316.82635400


--------------------------------------------------------------------------------------------------------




--------------------------------------- Iteration      1(  11)  ---------------------------------------


    POTLOK:  cpu time    0.0555: real time    0.0573
    SETDIJ:  cpu time    0.0074: real time    0.0074
    EDDIAG:  cpu time    1.3518: real time    1.3534
  RMM-DIIS:  cpu time    7.7804: real time    7.7862
    ORTHCH:  cpu time    2.9931: real time    2.9936
       DOS:  cpu time    0.0035: real time    0.0035
    CHARGE:  cpu time    0.5141: real time    0.5147
    MIXING:  cpu time    0.0017: real time    0.0017
    --------------------------------------------
      LOOP:  cpu time   12.7074: real time   12.7177

 eigenvalue-minimisations  :  6412
 total energy-change (2. order) : 0.5625470E-04  (-0.5472194E-03)
 number of electron     248.0000058 magnetization 
 augmentation part       -3.1555711 magnetization 

 Broyden mixing:
  rms(total) = 0.80310E-02    rms(broyden)= 0.80295E-02
  rms(prec ) = 0.11534E-01
  weight for this iteration     100.00

 eigenvalues of (default mixing * dielectric matrix)
  average eigenvalue GAMMA=   1.5145
  2.6026  2.4827  1.0134  1.0134  0.9873  0.9873

 Free energy of the ion-electron system (eV)
  ---------------------------------------------------
  alpha Z        PSCENC =       371.11140659
  Ewald energy   TEWEN  =    -10307.25970423
  -Hartree energ DENC   =     -1640.05792183
  -exchange      EXHF   =         0.00000000
  -V(xc)+E(xc)   XCENC  =       244.30251604
  PAW double counting   =     31152.58830717   -30622.98597580
  entropy T*S    EENTRO =         0.00960664
  eigenvalues    EBANDS =       839.96394724
  atomic energy  EATOM  =      9645.50393724
  Solvation  Ediel_sol  =         0.00000000
  ---------------------------------------------------
  free energy    TOTEN  =      -316.82388093 eV

  energy without entropy =     -316.83348757  energy(sigma->0) =     -316.82628259


--------------------------------------------------------------------------------------------------------




--------------------------------------- Iteration      1(  12)  ---------------------------------------


    POTLOK:  cpu time    0.0553: real time    0.0573
    SETDIJ:  cpu time    0.0078: real time    0.0078
    EDDIAG:  cpu time    1.3440: real time    1.3456
  RMM-DIIS:  cpu time    7.1623: real time    7.1681
    ORTHCH:  cpu time    0.1853: real time    0.1853
       DOS:  cpu time    0.0034: real time    0.0034
    CHARGE:  cpu time    0.5043: real time    0.5048
    MIXING:  cpu time    0.0018: real time    0.0018
    --------------------------------------------
      LOOP:  cpu time    9.2641: real time    9.2740

 eigenvalue-minimisations  :  6297
 total energy-change (2. order) : 0.3588679E-04  (-0.1762063E-03)
 number of electron     248.0000058 magnetization 
 augmentation part       -3.1601261 magnetization 

 Broyden mixing:
  rms(total) = 0.35721E-02    rms(broyden)= 0.35691E-02
  rms(prec ) = 0.58341E-02
  weight for this iteration     100.00

 eigenvalues of (default mixing * dielectric matrix)
  average eigenvalue GAMMA=   1.5650
  2.5689  2.2238  2.2238  0.9948  0.9948  0.9746  0.9746

 Free energy of the ion-electron system (eV)
  ---------------------------------------------------
  alpha Z        PSCENC =       371.11140659
  Ewald energy   TEWEN  =    -10307.25970423
  -Hartree energ DENC   =     -1640.81243494
  -exchange      EXHF   =         0.00000000
  -V(xc)+E(xc)   XCENC  =       244.36261370
  PAW double counting   =     31135.46722774   -30605.87227169
  entropy T*S    EENTRO =         0.00973385
  eigenvalues    EBANDS =       840.66564669
  atomic energy  EATOM  =      9645.50393724
  Solvation  Ediel_sol  =         0.00000000
  ---------------------------------------------------
  free energy    TOTEN  =      -316.82384505 eV

  energy without entropy =     -316.83357889  energy(sigma->0) =     -316.82627851


--------------------------------------------------------------------------------------------------------




--------------------------------------- Iteration      1(  13)  ---------------------------------------


    POTLOK:  cpu time    0.0560: real time    0.0603
    SETDIJ:  cpu time    0.0078: real time    0.0078
    EDDIAG:  cpu time    1.3358: real time    1.3361
  RMM-DIIS:  cpu time    4.7929: real time    4.7940
    ORTHCH:  cpu time    0.1841: real time    0.1853
       DOS:  cpu time    0.0034: real time    0.0034
    --------------------------------------------
      LOOP:  cpu time    6.3799: real time    6.3869

 eigenvalue-minimisations  :  4002
 total energy-change (2. order) : 0.5527994E-04  (-0.2018386E-04)
 number of electron     248.0000058 magnetization 
 augmentation part       -3.1601261 magnetization 

 Free energy of the ion-electron system (eV)
  ---------------------------------------------------
  alpha Z        PSCENC =       371.11140659
  Ewald energy   TEWEN  =    -10307.25970423
  -Hartree energ DENC   =     -1640.53266645
  -exchange      EXHF   =         0.00000000
  -V(xc)+E(xc)   XCENC  =       244.34685645
  PAW double counting   =     31140.68631602   -30611.08898086
  entropy T*S    EENTRO =         0.00965439
  eigenvalues    EBANDS =       840.39939109
  atomic energy  EATOM  =      9645.50393724
  Solvation  Ediel_sol  =         0.00000000
  ---------------------------------------------------
  free energy    TOTEN  =      -316.82378977 eV

  energy without entropy =     -316.83344416  energy(sigma->0) =     -316.82620336


--------------------------------------------------------------------------------------------------------




 average (electrostatic) potential at core
  the test charge radii are     0.7089  0.9892
  (the norm of the test charge is              1.0000)
       1 -58.9902       2 -58.9902       3 -58.9902       4 -58.9902       5 -58.3370
       6 -58.3370       7 -58.9902       8 -58.9902       9 -58.9902      10 -58.9902
      11 -58.3370      12 -58.3370      13 -58.9902      14 -58.9902      15 -58.9902
      16 -58.9902      17 -58.3370      18 -58.3370      19 -58.9902      20 -58.9902
      21 -58.9902      22 -58.9902      23 -58.3370      24 -58.3370      25 -78.4112
      26 -78.4112      27 -78.4112      28 -78.4112      29 -78.4112      30 -78.4112
      31 -78.4112      32 -78.4112      33 -78.4112      34 -78.4112      35 -78.4112
      36 -78.4112      37 -78.4112      38 -78.4112      39 -78.4112      40 -78.4112
      41 -78.4112      42 -78.4112      43 -78.4112      44 -78.4112      45 -78.4112
      46 -78.4112      47 -78.4112      48 -78.4112      49 -78.4112      50 -78.4112
      51 -78.4112      52 -78.4112      53 -78.4112      54 -78.4112      55 -78.4112
      56 -78.4112
 
 
 
 E-fermi :  12.5804     XC(G=0): -12.2535     alpha+bet :-18.5705


 k-point     1 :       0.0000    0.0000    0.0000
  band No.  band energies     occupation 
      1      -8.7897      2.00000
      2      -7.3928      2.00000
      3      -7.3928      2.00000
      4      -7.3928      2.00000
      5      -7.3928      2.00000
      6      -7.3928      2.00000
      7      -7.3928      2.00000
      8      -6.7480      2.00000
      9      -6.7480      2.00000
     10      -6.7480      2.00000
     11      -6.7480      2.00000
     12      -6.7480      2.00000
     13      -6.7480      2.00000
     14      -6.6813      2.00000
     15      -6.4810      2.00000
     16      -5.5363      2.00000
     17      -5.5363      2.00000
     18      -5.5363      2.00000
     19      -5.5363      2.00000
     20      -5.5363      2.00000
     21      -5.5363      2.00000
     22      -5.3467      2.00000
     23      -5.3467      2.00000
     24      -5.3467      2.00000
     25      -0.1568      2.00000
     26       0.2205      2.00000
     27       0.2205      2.00000
     28       0.2205      2.00000
     29       0.8583      2.00000
     30       0.8583      2.00000
     31       0.8583      2.00000
     32       0.8583      2.00000
     33       0.8583      2.00000
     34       0.8583      2.00000
     35       1.2941      2.00000
     36       1.2941      2.00000
     37       1.2941      2.00000
     38       1.2941      2.00000
     39       1.2941      2.00000
     40       1.2941      2.00000
     41       2.1623      2.00000
     42       2.1623      2.00000
     43       2.1623      2.00000
     44       2.4015      2.00000
     45       2.4015      2.00000
     46       2.5653      2.00000
     47       2.5653      2.00000
     48       2.5653      2.00000
     49       2.5653      2.00000
     50       2.5653      2.00000
     51       2.5653      2.00000
     52       3.1869      2.00000
     53       3.1869      2.00000
     54       3.1869      2.00000
     55       3.1869      2.00000
     56       3.1869      2.00000
     57       3.1869      2.00000
     58       3.9582      2.00000
     59       3.9582      2.00000
     60       3.9582      2.00000
     61       3.9582      2.00000
     62       3.9582      2.00000
     63       3.9582      2.00000
     64       4.2514      2.00000
     65       4.2514      2.00000
     66       4.2514      2.00000
     67       4.2514      2.00000
     68       4.2514      2.00000
     69       4.2514      2.00000
     70       4.3340      2.00000
     71       4.3340      2.00000
     72       4.3340      2.00000
     73       4.3340      2.00000
     74       4.3340      2.00000
     75       4.3340      2.00000
     76       4.7458      2.00000
     77       4.7458      2.00000
     78       4.7458      2.00000
     79       5.0867      2.00000
     80       5.0867      2.00000
     81       5.0867      2.00000
     82       5.0867      2.00000
     83       5.0867      2.00000
     84       5.0867      2.00000
     85       6.2987      2.00000
     86       6.2987      2.00000
     87       6.2987      2.00000
     88       7.0039      2.00000
     89       7.0039      2.00000
     90       7.0039      2.00000
     91       7.0039      2.00000
     92       7.0039      2.00000
     93       7.0039      2.00000
     94       7.5288      2.00000
     95       7.5288      2.00000
     96       7.5288      2.00000
     97       7.9240      2.00000
     98      10.6186      2.00000
     99      10.6186      2.00000
    100      10.6186      2.00000
    101      10.6186      2.00000
    102      10.6186      2.00000
    103      10.6186      2.00000
    104      11.0291      2.00000
    105      11.0291      2.00000
    106      11.0291      2.00000
    107      11.3284      2.00000
    108      11.3284      2.00000
    109      11.3284      2.00000
    110      11.3284      2.00000
    111      11.3284      2.00000
    112      11.3284      2.00000
    113      11.6357      2.00000
    114      11.6357      2.00000
    115      11.6357      2.00000
    116      11.7306      2.00000
    117      11.7306      2.00000
    118      11.7306      2.00000
    119      11.7306      2.00000
    120      11.7306      2.00000
    121      11.7306      2.00000
    122      12.0575      2.00000
    123      12.0575      2.00000
    124      12.0575      2.00000
    125      12.0575      2.00000
    126      12.0575      2.00000
    127      12.0575      2.00000
    128      13.4494      0.00000
    129      13.4494      0.00000
    130      13.4494      0.00000
    131      13.4494      0.00000
    132      13.4494      0.00000
    133      13.4494      0.00000
    134      13.4752      0.00000
    135      13.6500      0.00000
    136      13.6500      0.00000
    137      14.2281      0.00000
    138      14.2282      0.00000
    139      14.2282      0.00000
    140      14.2282      0.00000
    141      14.2282      0.00000
    142      14.2282      0.00000
    143      14.3484      0.00000
    144      14.3484      0.00000
    145      14.3484      0.00000
    146      14.3484      0.00000
    147      14.3484      0.00000
    148      14.3484      0.00000
    149      14.8730      0.00000
    150      14.8730      0.00000
    151      15.5072      0.00000
    152      15.5073      0.00000
    153      15.5075      0.00000
    154      16.6139      0.00000
    155      16.8513      0.00000
    156      16.8855      0.00000

 k-point     2 :       0.1667    0.0000    0.0000
  band No.  band energies     occupation 
      1      -8.7457      2.00000
      2      -7.7716      2.00000
      3      -7.3627      2.00000
      4      -7.3627      2.00000
      5      -7.3627      2.00000
      6      -7.3627      2.00000
      7      -7.0632      2.00000
      8      -6.8087      2.00000
      9      -6.8087      2.00000
     10      -6.8087      2.00000
     11      -6.8087      2.00000
     12      -6.7498      2.00000
     13      -6.6981      2.00000
     14      -6.6340      2.00000
     15      -6.5021      2.00000
     16      -5.5241      2.00000
     17      -5.5241      2.00000
     18      -5.4971      2.00000
     19      -5.4971      2.00000
     20      -5.4971      2.00000
     21      -5.4971      2.00000
     22      -5.4209      2.00000
     23      -5.3599      2.00000
     24      -5.3599      2.00000
     25      -0.0558      2.00000
     26       0.2478      2.00000
     27       0.2478      2.00000
     28       0.3120      2.00000
     29       0.7913      2.00000
     30       0.7913      2.00000
     31       0.8432      2.00000
     32       0.8432      2.00000
     33       0.8432      2.00000
     34       0.8432      2.00000
     35       1.0884      2.00000
     36       1.2954      2.00000
     37       1.2954      2.00000
     38       1.2954      2.00000
     39       1.2954      2.00000
     40       1.4400      2.00000
     41       1.6737      2.00000
     42       1.9644      2.00000
     43       2.2512      2.00000
     44       2.2512      2.00000
     45       2.4480      2.00000
     46       2.5378      2.00000
     47       2.5378      2.00000
     48       2.5378      2.00000
     49       2.5378      2.00000
     50       2.8872      2.00000
     51       3.0242      2.00000
     52       3.0604      2.00000
     53       3.0604      2.00000
     54       3.0604      2.00000
     55       3.0604      2.00000
     56       3.2445      2.00000
     57       3.2445      2.00000
     58       3.5087      2.00000
     59       3.9651      2.00000
     60       3.9651      2.00000
     61       3.9651      2.00000
     62       3.9651      2.00000
     63       4.0982      2.00000
     64       4.0982      2.00000
     65       4.1919      2.00000
     66       4.1919      2.00000
     67       4.1919      2.00000
     68       4.1919      2.00000
     69       4.4495      2.00000
     70       4.4556      2.00000
     71       4.5492      2.00000
     72       4.6206      2.00000
     73       4.6712      2.00000
     74       4.6712      2.00000
     75       4.6712      2.00000
     76       4.6712      2.00000
     77       4.7016      2.00000
     78       4.7016      2.00000
     79       5.0986      2.00000
     80       5.0986      2.00000
     81       5.0986      2.00000
     82       5.0986      2.00000
     83       5.2327      2.00000
     84       5.2327      2.00000
     85       6.1938      2.00000
     86       6.1957      2.00000
     87       6.1957      2.00000
     88       6.8733      2.00000
     89       6.8733      2.00000
     90       6.8733      2.00000
     91       6.8733      2.00000
     92       7.0240      2.00000
     93       7.0240      2.00000
     94       7.1840      2.00000
     95       7.4702      2.00000
     96       7.4702      2.00000
     97       8.2986      2.00000
     98       9.9511      2.00000
     99      10.6944      2.00000
    100      10.6944      2.00000
    101      10.6944      2.00000
    102      10.6944      2.00000
    103      10.7790      2.00000
    104      10.9451      2.00000
    105      11.0698      2.00000
    106      11.0698      2.00000
    107      11.0698      2.00000
    108      11.0698      2.00000
    109      11.2593      2.00000
    110      11.2593      2.00000
    111      11.3115      2.00000
    112      11.3115      2.00000
    113      11.4188      2.00000
    114      11.5442      2.00000
    115      11.5442      2.00000
    116      11.5443      2.00000
    117      11.5443      2.00000
    118      11.6087      2.00000
    119      11.6087      2.00000
    120      11.8625      2.00000
    121      12.0430      2.00000
    122      12.2586      1.99980
    123      12.2586      1.99980
    124      12.5116      2.03532
    125      12.5116      2.03532
    126      12.5116      2.03529
    127      12.5116      2.03529
    128      13.2537      0.00000
    129      13.2537      0.00000
    130      13.2537      0.00000
    131      13.2537      0.00000
    132      13.3996      0.00000
    133      13.5764      0.00000
    134      13.6231      0.00000
    135      13.6460      0.00000
    136      13.7544      0.00000
    137      13.8391      0.00000
    138      14.2324      0.00000
    139      14.2326      0.00000
    140      14.2548      0.00000
    141      14.2548      0.00000
    142      14.2549      0.00000
    143      14.2549      0.00000
    144      14.5429      0.00000
    145      14.5430      0.00000
    146      14.5430      0.00000
[...]
    120      12.7545      0.00776
    121      12.7545      0.00776
    122      12.7545      0.00776
    123      12.7545      0.00776
    124      12.7545      0.00776
    125      12.8786      0.00037
    126      12.8786      0.00037
    127      12.8786      0.00037
    128      12.8786      0.00037
    129      12.8786      0.00037
    130      12.8786      0.00037
    131      12.8786      0.00037
    132      12.8786      0.00037
    133      14.2424      0.00000
    134      14.2424      0.00000
    135      14.2424      0.00000
    136      14.2424      0.00000
    137      14.8644      0.00000
    138      14.8645      0.00000
    139      14.8647      0.00000
    140      14.8649      0.00000
    141      14.8654      0.00000
    142      14.8658      0.00000
    143      14.8662      0.00000
    144      14.8678      0.00000
    145      14.9422      0.00000
    146      14.9424      0.00000
    147      14.9429      0.00000
    148      14.9436      0.00000
    149      14.9450      0.00000
    150      14.9454      0.00000
    151      14.9475      0.00000
    152      14.9607      0.00000
    153      15.2570      0.00000
    154      15.2596      0.00000
    155      15.2603      0.00000
    156      15.2609      0.00000


--------------------------------------------------------------------------------------------------------


 soft charge-density along one line, spin component           1
         0         1         2         3         4         5         6         7         8         9
 total charge-density along one line
 
 pseudopotential strength for first ion, spin component:           1
 12.123  14.524   0.000  -0.000   0.000   0.000  -0.000   0.000
 14.524  17.402   0.000  -0.000   0.000   0.000  -0.000   0.000
  0.000   0.000  -5.600  -0.003   0.003  -7.393  -0.004   0.004
 -0.000  -0.000  -0.003  -5.600  -0.003  -0.004  -7.393  -0.004
  0.000   0.000   0.003  -0.003  -5.600   0.004  -0.004  -7.393
  0.000   0.000  -7.393  -0.004   0.004  -9.028  -0.006   0.006
 -0.000  -0.000  -0.004  -7.393  -0.004  -0.006  -9.028  -0.006
  0.000   0.000   0.004  -0.004  -7.393   0.006  -0.006  -9.028
 total augmentation occupancy for first ion, spin component:           1
  6.752  -3.422   0.000   0.000  -0.000   0.000   0.000   0.000
 -3.422   2.319   0.000  -0.000   0.000   0.000   0.000   0.000
  0.000   0.000   2.013  -0.038   0.038  -0.335   0.003  -0.003
  0.000  -0.000  -0.038   2.013  -0.038   0.003  -0.335   0.003
 -0.000   0.000   0.038  -0.038   2.013  -0.003   0.003  -0.335
  0.000   0.000  -0.335   0.003  -0.003   0.069   0.001  -0.001
  0.000   0.000   0.003  -0.335   0.003   0.001   0.069   0.001
  0.000   0.000  -0.003   0.003  -0.335  -0.001   0.001   0.069


------------------------ aborting loop because EDIFF is reached ----------------------------------------


    CHARGE:  cpu time    2.1554: real time    2.1556
    FORLOC:  cpu time    0.0494: real time    0.0494
    FORNL :  cpu time    3.6253: real time    3.6260
    STRESS:  cpu time   10.1306: real time   10.1342
    FORCOR:  cpu time    0.0782: real time    0.0788
    FORHAR:  cpu time    0.0358: real time    0.0359
    MIXING:  cpu time    0.0020: real time    0.0020
    OFIELD:  cpu time    0.0000: real time    0.0000

  FORCE on cell =-STRESS in cart. coord.  units (eV):
  Direction    XX          YY          ZZ          XY          YZ          ZX
  --------------------------------------------------------------------------------------
  Alpha Z   371.11141   371.11141   371.11141
  Ewald   -3435.99071 -3435.99071 -3435.99071    -0.00000     0.00000     0.00000
  Hartree   546.52493   546.52493   546.52493    -0.00000    -0.00000    -0.00000
  E(xc)    -954.55496  -954.55496  -954.55496    -0.00000    -0.00000     0.00000
  Local    -627.77543  -627.77543  -627.77543    -0.00000    -0.00000     0.00000
  n-local   957.82851   957.03260   956.21586     2.33345     3.42483     1.50984
  augment  -172.27632  -172.27632  -172.27632    -0.00000    -0.00000     0.00000
  Kinetic  3422.48454  3435.56836  3460.68506    -4.90774    -4.56423    -2.32743
  Fock        0.00000     0.00000     0.00000     0.00000     0.00000     0.00000
  -------------------------------------------------------------------------------------
  Total     123.64389   123.64389   123.64389     0.00000     0.00000     0.00000
  in kB     376.91639   376.91639   376.91639     0.00000     0.00000     0.00000
  external pressure =      376.92 kB  Pullay stress =        0.00 kB


 VOLUME and BASIS-vectors are now :
 -----------------------------------------------------------------------------
  energy-cutoff  :      400.00
  volume of cell :      525.58
      direct lattice vectors                 reciprocal lattice vectors
     8.070109212  0.000000000  0.000000000     0.123914060 -0.000000000  0.000000000
     0.000000000  8.070109212  0.000000000    -0.000000000  0.123914060  0.000000000
     0.000000000  0.000000000  8.070109212    -0.000000000 -0.000000000  0.123914060

  length of vectors
     8.070109212  8.070109212  8.070109212     0.123914060  0.123914060  0.123914060


 FORCES acting on ions
    electron-ion (+dipol)            ewald-force                    non-local-force                 convergence-correction
 -----------------------------------------------------------------------------------------------
   0.287E-11 0.122E-11 0.111E-11   -.253E-13 0.000E+00 -.169E-13   -.150E-19 0.113E-19 0.100E-20   0.213E-12 0.112E-11 0.724E-12
   -.707E-12 -.115E-12 -.629E-12   -.101E-14 0.761E-14 0.266E-14   0.768E-20 -.291E-20 0.650E-20   0.894E-13 0.451E-12 -.125E-11
   0.334E-12 0.484E-12 -.112E-12   -.888E-14 -.302E-13 -.195E-13   0.179E-20 -.519E-20 -.792E-20   -.163E-12 0.545E-12 -.428E-12
   0.255E-12 -.144E-12 0.722E-12   0.204E-13 0.380E-14 0.173E-13   -.699E-20 0.102E-19 0.423E-21   -.431E-12 0.717E-12 0.112E-11
   0.151E-12 0.351E-12 0.345E-12   0.746E-13 0.764E-13 0.488E-13   -.250E-17 -.126E-17 -.505E-17   -.165E-12 0.199E-13 0.128E-13
   -.317E-13 -.871E-15 0.171E-12   0.147E-13 -.471E-13 -.941E-13   0.228E-17 0.339E-17 0.333E-17   0.143E-12 0.126E-11 -.152E-11
   -.222E-11 0.174E-11 0.113E-11   0.654E-14 0.249E-13 -.699E-14   -.144E-19 0.948E-20 -.219E-20   -.820E-13 0.546E-12 -.756E-12
   -.536E-12 -.452E-12 0.417E-12   -.927E-14 -.655E-14 0.178E-13   0.610E-20 0.434E-20 0.475E-20   -.327E-12 -.203E-13 -.557E-12
   0.994E-12 0.149E-12 -.122E-12   -.178E-13 -.178E-13 0.124E-13   -.203E-20 -.416E-20 -.710E-20   0.179E-12 0.565E-12 0.484E-12
   0.256E-12 0.553E-12 0.160E-11   0.178E-14 0.216E-13 0.391E-14   -.775E-20 0.102E-19 -.475E-21   0.392E-12 -.273E-12 0.285E-12
   0.141E-12 0.136E-12 0.500E-12   0.595E-13 0.364E-13 0.706E-13   -.106E-17 0.279E-18 -.280E-17   -.328E-12 0.258E-12 0.906E-13
   -.141E-13 0.137E-12 0.506E-13   -.142E-13 -.355E-13 -.924E-13   0.957E-18 0.331E-17 0.673E-17   -.155E-12 -.156E-12 0.241E-12
   -.329E-12 0.107E-11 -.635E-12   0.460E-13 0.195E-13 0.127E-13   -.144E-19 0.614E-20 -.194E-20   -.321E-12 -.920E-12 -.221E-12
   0.264E-11 -.606E-13 0.226E-11   0.652E-15 0.383E-14 0.888E-14   0.788E-20 0.699E-21 0.609E-20   0.374E-12 0.954E-12 0.152E-11
   0.232E-12 0.223E-12 0.125E-11   -.568E-13 -.320E-13 -.178E-14   -.202E-20 -.781E-20 -.532E-20   0.641E-12 -.564E-12 0.230E-12
   -.105E-12 0.543E-12 -.896E-12   0.107E-13 0.716E-14 0.176E-13   -.695E-20 0.942E-20 0.425E-20   -.953E-13 0.733E-12 -.152E-11
   0.261E-12 0.304E-11 0.165E-11   0.737E-13 0.648E-13 0.622E-13   -.366E-17 -.362E-17 -.375E-17   -.643E-12 -.191E-11 -.120E-12
   0.127E-12 -.113E-13 0.135E-11   -.542E-13 -.586E-13 -.862E-13   0.267E-17 0.924E-18 0.502E-17   0.902E-13 0.109E-11 0.146E-11
   -.931E-12 -.833E-12 -.337E-13   0.160E-13 0.240E-13 -.139E-14   -.140E-19 0.114E-19 0.101E-20   0.900E-13 -.848E-12 0.585E-12
   -.870E-12 0.340E-11 0.196E-11   0.439E-14 0.172E-13 0.284E-13   0.728E-20 0.319E-21 0.550E-20   -.227E-12 -.117E-11 -.465E-14
   0.277E-12 -.397E-12 0.473E-12   -.355E-13 -.426E-13 -.124E-13   0.137E-20 -.542E-20 -.972E-20   -.640E-12 -.873E-12 -.857E-12
   0.198E-13 -.645E-12 -.582E-13   -.142E-13 0.838E-14 0.192E-13   -.725E-20 0.145E-19 -.231E-20   0.359E-13 -.106E-11 0.371E-12
   0.250E-12 0.584E-12 -.128E-11   0.471E-13 0.835E-13 0.666E-13   -.156E-17 -.210E-17 -.760E-17   0.299E-12 -.799E-12 -.171E-12
   0.137E-12 -.148E-11 -.559E-12   -.577E-13 -.466E-13 -.109E-12   -.105E-17 -.695E-18 0.239E-17   0.895E-12 0.398E-12 -.833E-13
   0.228E+00 0.228E+00 0.228E+00   0.249E+01 0.249E+01 0.249E+01   -.272E+01 -.272E+01 -.272E+01   0.481E-03 0.481E-03 0.481E-03
   -.228E+00 0.228E+00 0.228E+00   -.249E+01 0.249E+01 0.249E+01   0.272E+01 -.272E+01 -.272E+01   -.481E-03 0.481E-03 0.481E-03
   0.228E+00 0.228E+00 -.228E+00   0.249E+01 0.249E+01 -.249E+01   -.272E+01 -.272E+01 0.272E+01   0.481E-03 0.481E-03 -.481E-03
   0.228E+00 -.228E+00 0.228E+00   0.249E+01 -.249E+01 0.249E+01   -.272E+01 0.272E+01 -.272E+01   0.481E-03 -.481E-03 0.481E-03
   -.228E+00 -.228E+00 0.228E+00   -.249E+01 -.249E+01 0.249E+01   0.272E+01 0.272E+01 -.272E+01   -.481E-03 -.481E-03 0.481E-03
   -.228E+00 0.228E+00 -.228E+00   -.249E+01 0.249E+01 -.249E+01   0.272E+01 -.272E+01 0.272E+01   -.481E-03 0.481E-03 -.481E-03
   -.228E+00 -.228E+00 -.228E+00   -.249E+01 -.249E+01 -.249E+01   0.272E+01 0.272E+01 0.272E+01   -.481E-03 -.481E-03 -.481E-03
   0.228E+00 -.228E+00 -.228E+00   0.249E+01 -.249E+01 -.249E+01   -.272E+01 0.272E+01 0.272E+01   0.481E-03 -.481E-03 -.481E-03
   0.228E+00 0.228E+00 0.228E+00   0.249E+01 0.249E+01 0.249E+01   -.272E+01 -.272E+01 -.272E+01   0.481E-03 0.481E-03 0.481E-03
   -.228E+00 0.228E+00 0.228E+00   -.249E+01 0.249E+01 0.249E+01   0.272E+01 -.272E+01 -.272E+01   -.481E-03 0.481E-03 0.481E-03
   0.228E+00 0.228E+00 -.228E+00   0.249E+01 0.249E+01 -.249E+01   -.272E+01 -.272E+01 0.272E+01   0.481E-03 0.481E-03 -.481E-03
   0.228E+00 -.228E+00 0.228E+00   0.249E+01 -.249E+01 0.249E+01   -.272E+01 0.272E+01 -.272E+01   0.481E-03 -.481E-03 0.481E-03
   -.228E+00 -.228E+00 0.228E+00   -.249E+01 -.249E+01 0.249E+01   0.272E+01 0.272E+01 -.272E+01   -.481E-03 -.481E-03 0.481E-03
   -.228E+00 0.228E+00 -.228E+00   -.249E+01 0.249E+01 -.249E+01   0.272E+01 -.272E+01 0.272E+01   -.481E-03 0.481E-03 -.481E-03
   -.228E+00 -.228E+00 -.228E+00   -.249E+01 -.249E+01 -.249E+01   0.272E+01 0.272E+01 0.272E+01   -.481E-03 -.481E-03 -.481E-03
   0.228E+00 -.228E+00 -.228E+00   0.249E+01 -.249E+01 -.249E+01   -.272E+01 0.272E+01 0.272E+01   0.481E-03 -.481E-03 -.481E-03
   0.228E+00 0.228E+00 0.228E+00   0.249E+01 0.249E+01 0.249E+01   -.272E+01 -.272E+01 -.272E+01   0.481E-03 0.481E-03 0.481E-03
   -.228E+00 0.228E+00 0.228E+00   -.249E+01 0.249E+01 0.249E+01   0.272E+01 -.272E+01 -.272E+01   -.481E-03 0.481E-03 0.481E-03
   0.228E+00 0.228E+00 -.228E+00   0.249E+01 0.249E+01 -.249E+01   -.272E+01 -.272E+01 0.272E+01   0.481E-03 0.481E-03 -.481E-03
   0.228E+00 -.228E+00 0.228E+00   0.249E+01 -.249E+01 0.249E+01   -.272E+01 0.272E+01 -.272E+01   0.481E-03 -.481E-03 0.481E-03
   -.228E+00 -.228E+00 0.228E+00   -.249E+01 -.249E+01 0.249E+01   0.272E+01 0.272E+01 -.272E+01   -.481E-03 -.481E-03 0.481E-03
   -.228E+00 0.228E+00 -.228E+00   -.249E+01 0.249E+01 -.249E+01   0.272E+01 -.272E+01 0.272E+01   -.481E-03 0.481E-03 -.481E-03
   -.228E+00 -.228E+00 -.228E+00   -.249E+01 -.249E+01 -.249E+01   0.272E+01 0.272E+01 0.272E+01   -.481E-03 -.481E-03 -.481E-03
   0.228E+00 -.228E+00 -.228E+00   0.249E+01 -.249E+01 -.249E+01   -.272E+01 0.272E+01 0.272E+01   0.481E-03 -.481E-03 -.481E-03
   0.228E+00 0.228E+00 0.228E+00   0.249E+01 0.249E+01 0.249E+01   -.272E+01 -.272E+01 -.272E+01   0.481E-03 0.481E-03 0.481E-03
   -.228E+00 0.228E+00 0.228E+00   -.249E+01 0.249E+01 0.249E+01   0.272E+01 -.272E+01 -.272E+01   -.481E-03 0.481E-03 0.481E-03
   0.228E+00 0.228E+00 -.228E+00   0.249E+01 0.249E+01 -.249E+01   -.272E+01 -.272E+01 0.272E+01   0.481E-03 0.481E-03 -.481E-03
   0.228E+00 -.228E+00 0.228E+00   0.249E+01 -.249E+01 0.249E+01   -.272E+01 0.272E+01 -.272E+01   0.481E-03 -.481E-03 0.481E-03
   -.228E+00 -.228E+00 0.228E+00   -.249E+01 -.249E+01 0.249E+01   0.272E+01 0.272E+01 -.272E+01   -.481E-03 -.481E-03 0.481E-03
   -.228E+00 0.228E+00 -.228E+00   -.249E+01 0.249E+01 -.249E+01   0.272E+01 -.272E+01 0.272E+01   -.481E-03 0.481E-03 -.481E-03
   -.228E+00 -.228E+00 -.228E+00   -.249E+01 -.249E+01 -.249E+01   0.272E+01 0.272E+01 0.272E+01   -.481E-03 -.481E-03 -.481E-03
   0.228E+00 -.228E+00 -.228E+00   0.249E+01 -.249E+01 -.249E+01   -.272E+01 0.272E+01 0.272E+01   0.481E-03 -.481E-03 -.481E-03
 -----------------------------------------------------------------------------------------------
   0.489E-12 0.443E-11 0.300E-11   -.799E-13 -.355E-13 0.165E-12   -.133E-14 0.000E+00 0.444E-15   -.130E-12 0.657E-13 -.370E-12
 
 
 POSITION                                       TOTAL-FORCE (eV/Angst)
 -----------------------------------------------------------------------------------
      7.06135      7.06135      1.00876        -0.000000     -0.000000     -0.000000
      3.02629      1.00876      3.02629        -0.000000     -0.000000     -0.000000
      5.04382      7.06135      3.02629        -0.000000     -0.000000     -0.000000
      1.00876      1.00876      1.00876        -0.000000     -0.000000     -0.000000
      2.01753      6.05258      2.01753        -0.000000     -0.000000     -0.000000
     -0.00000     -0.00000      4.03505        -0.000000     -0.000000     -0.000000
      7.06135      3.02629      5.04382        -0.000000     -0.000000     -0.000000
      3.02629      5.04382      7.06135        -0.000000     -0.000000     -0.000000
      5.04382      3.02629      7.06135        -0.000000     -0.000000     -0.000000
      1.00876      5.04382      5.04382        -0.000000     -0.000000     -0.000000
      2.01753      2.01753      6.05258        -0.000000     -0.000000     -0.000000
      0.00000      4.03505      0.00000        -0.000000     -0.000000     -0.000000
      3.02629      7.06135      5.04382        -0.000000     -0.000000     -0.000000
      7.06135      1.00876      7.06135        -0.000000     -0.000000     -0.000000
      1.00876      7.06135      7.06135        -0.000000     -0.000000     -0.000000
      5.04382      1.00876      5.04382        -0.000000     -0.000000     -0.000000
      6.05258      6.05258      6.05258        -0.000000     -0.000000     -0.000000
      4.03505      0.00000      0.00000        -0.000000     -0.000000     -0.000000
      3.02629      3.02629      1.00876        -0.000000     -0.000000     -0.000000
      7.06135      5.04382      3.02629        -0.000000     -0.000000     -0.000000
      1.00876      3.02629      3.02629        -0.000000     -0.000000     -0.000000
      5.04382      5.04382      1.00876        -0.000000     -0.000000     -0.000000
      6.05258      2.01753      2.01753        -0.000000     -0.000000     -0.000000
      4.03505      4.03505      4.03505        -0.000000     -0.000000     -0.000000
      3.03919      3.03919      3.03919        -0.002322     -0.002322     -0.002322
      7.04844      1.02166      1.02166         0.002322     -0.002322     -0.002322
      5.05672      1.02166      3.01339        -0.002322     -0.002322      0.002322
      1.02166      7.04844      1.02166        -0.002322      0.002322     -0.002322
      0.99586      0.99586      3.03919         0.002322      0.002322     -0.002322
      0.99586      3.03919      0.99586         0.002322     -0.002322      0.002322
      3.01339      7.04844      3.01339         0.002322      0.002322      0.002322
      3.03919      0.99586      0.99586        -0.002322      0.002322      0.002322
      3.03919      7.07425      7.07425        -0.002322     -0.002322     -0.002322
      7.04844      5.05672      5.05672         0.002322     -0.002322     -0.002322
      5.05672      5.05672      7.04844        -0.002322     -0.002322      0.002322
      1.02166      3.01339      5.05672        -0.002322      0.002322     -0.002322
      0.99586      5.03092      7.07425         0.002322      0.002322     -0.002322
      0.99586      7.07425      5.03092         0.002322     -0.002322      0.002322
      3.01339      3.01339      7.04844         0.002322      0.002322      0.002322
      3.03919      5.03092      5.03092        -0.002322      0.002322      0.002322
      7.07425      3.03919      7.07425        -0.002322     -0.002322     -0.002322
      3.01339      1.02166      5.05672         0.002322     -0.002322     -0.002322
      1.02166      1.02166      7.04844        -0.002322     -0.002322      0.002322
      5.05672      7.04844      5.05672        -0.002322      0.002322     -0.002322
      5.03092      0.99586      7.07425         0.002322      0.002322     -0.002322
      5.03092      3.03919      5.03092         0.002322     -0.002322      0.002322
      7.04844      7.04844      7.04844         0.002322      0.002322      0.002322
      7.07425      0.99586      5.03092        -0.002322      0.002322      0.002322
      7.07425      7.07425      3.03919        -0.002322     -0.002322     -0.002322
      3.01339      5.05672      1.02166         0.002322     -0.002322     -0.002322
      1.02166      5.05672      3.01339        -0.002322     -0.002322      0.002322
      5.05672      3.01339      1.02166        -0.002322      0.002322     -0.002322
      5.03092      5.03092      3.03919         0.002322      0.002322     -0.002322
      5.03092      7.07425      0.99586         0.002322     -0.002322      0.002322
      7.04844      3.01339      3.01339         0.002322      0.002322      0.002322
      7.07425      5.03092      0.99586        -0.002322      0.002322      0.002322
 -----------------------------------------------------------------------------------
    total drift:                                0.000000      0.000000      0.000000


--------------------------------------------------------------------------------------------------------



  FREE ENERGIE OF THE ION-ELECTRON SYSTEM (eV)
  ---------------------------------------------------
  free  energy   TOTEN  =      -316.83807391 eV

  energy  without entropy=     -316.84903989  energy(sigma->0) =     -316.84081541
 
 d Force = 0.3506752E-01[ 0.817E-03, 0.693E-01]  d Energy = 0.3438497E-01 0.683E-03
 d Force =-0.6730380E+00[-0.877E+00,-0.469E+00]  d Ewald  =-0.6732440E+00 0.206E-03


--------------------------------------------------------------------------------------------------------


    POTLOK:  cpu time    0.0656: real time    0.0656


--------------------------------------------------------------------------------------------------------




--------------------------------------------------------------------------------------------------------


  
 reached required accuracy - stopping structural energy minimisation
     LOOP+:  cpu time   54.0461: real time   54.1028
    4ORBIT:  cpu time    0.0000: real time    0.0000

 total amount of memory used by VASP MPI-rank0    82490. kBytes
=======================================================================

   base      :      30000. kBytes
   nonlr-proj:      10838. kBytes
   fftplans  :       3983. kBytes
   grid      :       6277. kBytes
   one-center:         43. kBytes
   wavefun   :      31349. kBytes
 
  
  
 General timing and accounting informations for this job:
 ========================================================
  
                  Total CPU time used (sec):      318.248
                            User time (sec):      317.566
                          System time (sec):        0.682
                         Elapsed time (sec):      318.909
  
                   Maximum memory used (kb):      103408.
                   Average memory used (kb):           0.
  
                          Minor page faults:       133992
                          Major page faults:            0
                 Voluntary context switches:         6468
