<?xml version="1.0" encoding="ISO-8859-1"?>
<modeling>
 <generator>
  <i name="program" type="string">vasp </i>
  <i name="version" type="string">5.4.4.18Apr17-6-g9f103f2a35  </i>
  <i name="subversion" type="string">(build Nov 01 2019 12:17:22) complex            parallel </i>
  <i name="platform" type="string">LinuxIFC </i>
  <i name="date" type="string">2023 05 19 </i>
  <i name="time" type="string">18:21:59 </i>
 </generator>
 <incar>
  <i type="string" name="PREC">accurate</i>
  <i type="string" name="ALGO"> Fast</i>
  <i type="int" name="IBRION">     2</i>
  <i type="int" name="NSW">   100</i>
  <i type="int" name="ISIF">     2</i>
  <i type="string" name="LREAL"> Auto</i>
  <i type="int" name="ISMEAR">     2</i>
  <i name="SIGMA">      0.10000000</i>
  <i type="logical" name="LWAVE"> F  </i>
  <i type="logical" name="LCHARG"> F  </i>
  <v type="int" name="KPOINT_BSE">    -1     0     0     0</v>
 </incar>
 <structure name="primitive_cell" >
  <crystal>
   <varray name="basis" >
    <v>       4.03505461       4.03505461       0.00000000 </v>
    <v>       4.03505461       0.00000000      -4.03505461 </v>
    <v>       0.00000000       4.03505461      -4.03505461 </v>
   </varray>
   <i name="volume">    131.39482015 </i>
   <varray name="rec_basis" >
    <v>       0.12391406       0.12391406       0.12391406 </v>
    <v>       0.12391406      -0.12391406      -0.12391406 </v>
    <v>      -0.12391406       0.12391406      -0.12391406 </v>
   </varray>
  </crystal>
  <varray name="positions" >
   <v>      -0.12500000      -0.12500000      -0.12500000 </v>
   <v>       0.12630293      -0.37890880       0.12630293 </v>
   <v>       0.12630293       0.12630293      -0.37890880 </v>
   <v>      -0.37890880       0.12630293       0.12630293 </v>
   <v>       0.12890880      -0.37630293      -0.37630293 </v>
   <v>      -0.37630293      -0.37630293       0.12890880 </v>
   <v>      -0.37630293       0.12890880      -0.37630293 </v>
   <v>      -0.12500000       0.37500000      -0.12500000 </v>
   <v>      -0.12500000      -0.12500000       0.37500000 </v>
   <v>       0.37500000      -0.12500000      -0.12500000 </v>
   <v>       0.25000000       0.25000000       0.25000000 </v>
   <v>      -0.50000000      -0.50000000      -0.50000000 </v>
   <v>       0.12630293       0.12630293       0.12630293 </v>
   <v>      -0.37630293      -0.37630293      -0.37630293 </v>
  </varray>
 </structure>
 <varray name="primitive_index" >
  <v type="int" >        1 </v>
  <v type="int" >       26 </v>
  <v type="int" >       28 </v>
  <v type="int" >       47 </v>
  <v type="int" >       49 </v>
  <v type="int" >       54 </v>
  <v type="int" >       56 </v>
  <v type="int" >        3 </v>
  <v type="int" >       14 </v>
  <v type="int" >        4 </v>
  <v type="int" >        5 </v>
  <v type="int" >       12 </v>
  <v type="int" >       27 </v>
  <v type="int" >       37 </v>
 </varray>
 <kpoints>
  <generation param="Auto">
   <i name="subdivisionlength">     45.00000000 </i>
   <v type="int" name="divisions">       6        6        6 </v>
   <v name="usershift">      0.00000000       0.00000000       0.00000000 </v>
   <v name="genvec1">      0.16666667      -0.00000000       0.00000000 </v>
   <v name="genvec2">      0.00000000       0.16666667       0.00000000 </v>
   <v name="genvec3">     -0.00000000       0.00000000       0.16666667 </v>
   <v name="shift">      0.00000000       0.00000000       0.00000000 </v>
  </generation>
  <varray name="kpointlist" >
   <v>       0.00000000       0.00000000       0.00000000 </v>
   <v>       0.16666667       0.00000000       0.00000000 </v>
   <v>       0.33333333       0.00000000       0.00000000 </v>
   <v>       0.50000000       0.00000000       0.00000000 </v>
   <v>       0.16666667       0.16666667       0.00000000 </v>
   <v>       0.33333333       0.16666667       0.00000000 </v>
   <v>       0.50000000       0.16666667       0.00000000 </v>
   <v>       0.33333333       0.33333333       0.00000000 </v>
   <v>       0.50000000       0.33333333       0.00000000 </v>
   <v>       0.50000000       0.50000000       0.00000000 </v>
   <v>       0.16666667       0.16666667       0.16666667 </v>
   <v>       0.33333333       0.16666667       0.16666667 </v>
   <v>       0.50000000       0.16666667       0.16666667 </v>
   <v>       0.33333333       0.33333333       0.16666667 </v>
   <v>       0.50000000       0.33333333       0.16666667 </v>
   <v>       0.50000000       0.50000000       0.16666667 </v>
   <v>       0.33333333       0.33333333       0.33333333 </v>
   <v>       0.50000000       0.33333333       0.33333333 </v>
   <v>       0.50000000       0.50000000       0.33333333 </v>
   <v>       0.50000000       0.50000000       0.50000000 </v>
  </varray>
  <varray name="weights" >
   <v>       0.00462963 </v>
   <v>       0.02777778 </v>
   <v>       0.02777778 </v>
   <v>       0.01388889 </v>
   <v>       0.05555556 </v>
   <v>       0.11111111 </v>
   <v>       0.05555556 </v>
   <v>       0.05555556 </v>
   <v>       0.05555556 </v>
   <v>       0.01388889 </v>
   <v>       0.03703704 </v>
   <v>       0.11111111 </v>
   <v>       0.05555556 </v>
   <v>       0.11111111 </v>
   <v>       0.11111111 </v>
   <v>       0.02777778 </v>
   <v>       0.03703704 </v>
   <v>       0.05555556 </v>
   <v>       0.02777778 </v>
   <v>       0.00462963 </v>
  </varray>
 </kpoints>
 <parameters>
  <separator name="general" >
   <i type="string" name="SYSTEM">unknown system</i>
   <i type="logical" name="LCOMPAT"> F  </i>
  </separator>
  <separator name="electronic" >
   <i type="string" name="PREC">accura</i>
   <i name="ENMAX">    400.00000000</i>
   <i name="ENAUG">    627.11200000</i>
   <i name="EDIFF">      0.00010000</i>
   <i type="int" name="IALGO">    68</i>
   <i type="int" name="IWAVPR">    11</i>
   <i type="int" name="NBANDS">   156</i>
   <i name="NELECT">    248.00000000</i>
   <i type="int" name="TURBO">     0</i>
   <i type="int" name="IRESTART">     0</i>
   <i type="int" name="NREBOOT">     0</i>
   <i type="int" name="NMIN">     0</i>
   <i name="EREF">      0.00000000</i>
   <separator name="electronic smearing" >
    <i type="int" name="ISMEAR">     2</i>
    <i name="SIGMA">      0.10000000</i>
    <i name="KSPACING">      0.50000000</i>
    <i type="logical" name="KGAMMA"> T  </i>
   </separator>
   <separator name="electronic projectors" >
    <i type="logical" name="LREAL"> T  </i>
    <v name="ROPT">     -0.00025000     -0.00025000</v>
    <i type="int" name="LMAXPAW">  -100</i>
    <i type="int" name="LMAXMIX">     2</i>
    <i type="logical" name="NLSPLINE"> F  </i>
   </separator>
   <separator name="electronic startup" >
    <i type="int" name="ISTART">     0</i>
    <i type="int" name="ICHARG">     2</i>
    <i type="int" name="INIWAV">     1</i>
   </separator>
   <separator name="electronic spin" >
    <i type="int" name="ISPIN">     1</i>
    <i type="logical" name="LNONCOLLINEAR"> F  </i>
    <v name="MAGMOM">      1.00000000      1.00000000      1.00000000      1.00000000      1.00000000      1.00000000      1.00000000      1.00000000      1.00000000      1.00000000      1.00000000      1.00000000      1.00000000      1.00000000      1.00000000      1.00000000      1.00000000      1.00000000      1.00000000      1.00000000
      1.00000000      1.00000000      1.00000000      1.00000000      1.00000000      1.00000000      1.00000000      1.00000000      1.00000000      1.00000000      1.00000000      1.00000000      1.00000000      1.00000000      1.00000000      1.00000000      1.00000000      1.00000000      1.00000000      1.00000000
      1.00000000      1.00000000      1.00000000      1.00000000      1.00000000      1.00000000      1.00000000      1.00000000      1.00000000      1.00000000      1.00000000      1.00000000      1.00000000      1.00000000      1.00000000      1.00000000</v>
    <i name="NUPDOWN">     -1.00000000</i>
    <i type="logical" name="LSORBIT"> F  </i>
    <v name="SAXIS">      0.00000000      0.00000000      1.00000000</v>
    <i type="logical" name="LSPIRAL"> F  </i>
    <v name="QSPIRAL">      0.00000000      0.00000000      0.00000000</v>
    <i type="logical" name="LZEROZ"> F  </i>
   </separator>
   <separator name="electronic exchange-correlation" >
    <i type="logical" name="LASPH"> F  </i>
    <i type="logical" name="LMETAGGA"> F  </i>
   </separator>
   <separator name="electronic convergence" >
    <i type="int" name="NELM">    60</i>
    <i type="int" name="NELMDL">    -5</i>
    <i type="int" name="NELMIN">     2</i>
    <i name="ENINI">    400.00000000</i>
    <separator name="electronic convergence detail" >
     <i type="logical" name="LDIAG"> T  </i>
     <i type="logical" name="LSUBROT"> F  </i>
     <i name="WEIMIN">      0.00100000</i>
     <i name="EBREAK">      0.00000016</i>
     <i name="DEPER">      0.30000000</i>
     <i type="int" name="NRMM">     4</i>
     <i name="TIME">      0.40000000</i>
    </separator>
   </separator>
   <separator name="electronic mixer" >
    <i name="AMIX">      0.40000000</i>
    <i name="BMIX">      1.00000000</i>
    <i name="AMIN">      0.10000000</i>
    <i name="AMIX_MAG">      1.60000000</i>
    <i name="BMIX_MAG">      1.00000000</i>
    <separator name="electronic mixer details" >
     <i type="int" name="IMIX">     4</i>
     <i type="logical" name="MIXFIRST"> F  </i>
     <i type="int" name="MAXMIX">   -45</i>
     <i name="WC">    100.00000000</i>
     <i type="int" name="INIMIX">     1</i>
     <i type="int" name="MIXPRE">     1</i>
     <i type="int" name="MREMOVE">     5</i>
    </separator>
   </separator>
   <separator name="electronic dipolcorrection" >
    <i type="logical" name="LDIPOL"> F  </i>
    <i type="logical" name="LMONO"> F  </i>
    <i type="int" name="IDIPOL">     0</i>
    <i name="EPSILON">      1.00000000</i>
    <v name="DIPOL">   -100.00000000   -100.00000000   -100.00000000</v>
    <i name="EFIELD">      0.00000000</i>
   </separator>
  </separator>
  <separator name="grids" >
   <i type="int" name="NGX">    54</i>
   <i type="int" name="NGY">    54</i>
   <i type="int" name="NGZ">    54</i>
   <i type="int" name="NGXF">   108</i>
   <i type="int" name="NGYF">   108</i>
   <i type="int" name="NGZF">   108</i>
   <i type="logical" name="ADDGRID"> F  </i>
  </separator>
  <separator name="ionic" >
   <i type="int" name="NSW">   100</i>
   <i type="int" name="IBRION">     2</i>
   <i type="int" name="MDALGO">     0</i>
   <i type="int" name="ISIF">     2</i>
   <i name="PSTRESS">      0.00000000</i>
   <i name="EDIFFG">      0.00100000</i>
   <i type="int" name="NFREE">     1</i>
   <i name="POTIM">      0.50000000</i>
   <i name="SMASS">     -3.00000000</i>
   <i name="SCALEE">      1.00000000</i>
  </separator>
  <separator name="ionic md" >
   <i name="TEBEG">      0.00010000</i>
   <i name="TEEND">      0.00010000</i>
   <i type="int" name="NBLOCK">     1</i>
   <i type="int" name="KBLOCK">   100</i>
   <i type="int" name="NPACO">   256</i>
   <i name="APACO">     16.00000000</i>
  </separator>
  <separator name="symmetry" >
   <i type="int" name="ISYM">     2</i>
   <i name="SYMPREC">      0.00001000</i>
  </separator>
  <separator name="dos" >
   <i type="int" name="LORBIT">     0</i>
   <v name="RWIGS">     -1.00000000     -1.00000000</v>
   <i type="int" name="NEDOS">   301</i>
   <i name="EMIN">     10.00000000</i>
   <i name="EMAX">    -10.00000000</i>
   <i name="EFERMI">      0.00000000</i>
  </separator>
  <separator name="writing" >
   <i type="int" name="NWRITE">     2</i>
   <i type="logical" name="LWAVE"> F  </i>
   <i type="logical" name="LDOWNSAMPLE"> F  </i>
   <i type="logical" name="LCHARG"> F  </i>
   <i type="logical" name="LPARD"> F  </i>
   <i type="logical" name="LVTOT"> F  </i>
   <i type="logical" name="LVHAR"> F  </i>
   <i type="logical" name="LELF"> F  </i>
   <i type="logical" name="LOPTICS"> F  </i>
   <v name="STM">      0.00000000      0.00000000      0.00000000      0.00000000      0.00000000      0.00000000      0.00000000</v>
  </separator>
  <separator name="performance" >
   <i type="int" name="NPAR">     4</i>
   <i type="int" name="NSIM">     4</i>
   <i type="int" name="NBLK">    -1</i>
   <i type="logical" name="LPLANE"> T  </i>
   <i type="logical" name="LSCALAPACK"> F  </i>
   <i type="logical" name="LSCAAWARE"> F  </i>
   <i type="logical" name="LSCALU"> F  </i>
   <i type="logical" name="LASYNC"> F  </i>
   <i type="logical" name="LORBITALREAL"> F  </i>
  </separator>
  <separator name="miscellaneous" >
   <i type="int" name="IDIOT">     3</i>
   <i type="int" name="ISPECIAL">     0</i>
   <i type="logical" name="LMUSIC"> F  </i>
   <v name="POMASS">     14.00100000     28.08500000</v>
   <v name="DARWINR">      0.00000000      0.00000000</v>
   <v name="DARWINV">      1.00000000      1.00000000</v>
   <i type="logical" name="LCORR"> T  </i>
  </separator>
  <i type="logical" name="GGA_COMPAT"> T  </i>
  <i type="logical" name="LBERRY"> F  </i>
  <i type="int" name="ICORELEVEL">     0</i>
  <i type="logical" name="LDAU"> F  </i>
  <i type="int" name="I_CONSTRAINED_M">     0</i>
  <separator name="electronic exchange-correlation" >
   <i type="string" name="GGA">--</i>
   <i type="int" name="VOSKOWN">     0</i>
   <i type="logical" name="LHFCALC"> F  </i>
   <i type="string" name="PRECFOCK"></i>
   <i type="logical" name="LSYMGRAD"> F  </i>
   <i type="logical" name="LHFONE"> F  </i>
   <i type="logical" name="LRHFCALC"> F  </i>
   <i type="logical" name="LTHOMAS"> F  </i>
   <i type="logical" name="LMODELHF"> F  </i>
   <i name="ENCUT4O">     -1.00000000</i>
   <i type="int" name="EXXOEP">     0</i>
   <i type="int" name="FOURORBIT">     0</i>
   <i name="AEXX">      0.00000000</i>
   <i name="HFALPHA">      0.00000000</i>
   <i name="MCALPHA">      0.00000000</i>
   <i name="ALDAX">      1.00000000</i>
   <i name="AGGAX">      1.00000000</i>
   <i name="ALDAC">      1.00000000</i>
   <i name="AGGAC">      1.00000000</i>
   <i type="int" name="NKREDX">     1</i>
   <i type="int" name="NKREDY">     1</i>
   <i type="int" name="NKREDZ">     1</i>
   <i type="logical" name="SHIFTRED"> F  </i>
   <i type="logical" name="ODDONLY"> F  </i>
   <i type="logical" name="EVENONLY"> F  </i>
   <i type="int" name="LMAXFOCK">     0</i>
   <i type="int" name="NMAXFOCKAE">     0</i>
   <i type="logical" name="LFOCKAEDFT"> F  </i>
   <i name="HFSCREEN">      0.00000000</i>
   <i name="HFSCREENC">      0.00000000</i>
   <i type="int" name="NBANDSGWLOW">     0</i>
  </separator>
  <separator name="vdW DFT" >
   <i type="logical" name="LUSE_VDW"> F  </i>
   <i name="Zab_VDW">     -0.84910000</i>
   <i name="PARAM1">      0.12340000</i>
   <i name="PARAM2">      1.00000000</i>
   <i name="PARAM3">      0.00000000</i>
  </separator>
  <separator name="model GW" >
   <i type="int" name="MODEL_GW">     0</i>
   <i name="MODEL_EPS0">      5.63120658</i>
   <i name="MODEL_ALPHA">      1.00000000</i>
  </separator>
  <separator name="linear response parameters" >
   <i type="logical" name="LEPSILON"> F  </i>
   <i type="logical" name="LRPA"> F  </i>
   <i type="logical" name="LNABLA"> F  </i>
   <i type="logical" name="LVEL"> F  </i>
   <i type="int" name="KINTER">     0</i>
   <i name="CSHIFT">      0.10000000</i>
   <i name="OMEGAMAX">     -1.00000000</i>
   <i name="DEG_THRESHOLD">      0.00200000</i>
   <i name="RTIME">     -0.10000000</i>
   <i name="WPLASMAI">      0.00000000</i>
   <v name="DFIELD">      0.00000000      0.00000000      0.00000000</v>
   <v name="WPLASMA">      0.00000000      0.00000000      0.00000000      0.00000000      0.00000000      0.00000000      0.00000000      0.00000000      0.00000000</v>
  </separator>
  <separator name="orbital magnetization" >
   <i type="logical" name="NUCIND"> F  </i>
   <v name="MAGPOS">      0.00000000      0.00000000      0.00000000</v>
   <i type="logical" name="LNICSALL"> T  </i>
   <i type="logical" name="ORBITALMAG"> F  </i>
   <i type="logical" name="LMAGBLOCH"> F  </i>
   <i type="logical" name="LCHIMAG"> F  </i>
   <i type="logical" name="LGAUGE"> T  </i>
   <i type="int" name="MAGATOM">     0</i>
   <v name="MAGDIPOL">      0.00000000      0.00000000      0.00000000</v>
   <v name="AVECCONST">      0.00000000      0.00000000      0.00000000</v>
  </separator>
  <separator name="response functions" >
   <i type="logical" name="LADDER"> F  </i>
   <i type="logical" name="LRPAFORCE"> F  </i>
   <i type="logical" name="LFXC"> F  </i>
   <i type="logical" name="LHARTREE"> T  </i>
   <i type="int" name="IBSE">     0</i>
   <v type="int" name="KPOINT">    -1     0     0     0</v>
   <i type="logical" name="LTCTE"> F  </i>
   <i type="logical" name="LTETE"> F  </i>
   <i type="logical" name="LTRIPLET"> F  </i>
   <i type="logical" name="LFXCEPS"> F  </i>
   <i type="logical" name="LFXHEG"> F  </i>
   <i type="int" name="NATURALO">     2</i>
   <i type="logical" name="L2ORDER"> F  </i>
   <i type="logical" name="LMP2LT"> F  </i>
   <i type="logical" name="LUSEW"> F  </i>
   <i name="ENCUTGW">     -2.00000000</i>
   <i name="ENCUTGWSOFT">     -2.00000000</i>
   <i name="ENCUTLF">     -1.00000000</i>
   <i type="int" name="LMAXMP2">    -1</i>
   <i name="SCISSOR">      0.00000000</i>
   <i type="int" name="NOMEGA">     0</i>
   <i type="int" name="NOMEGAR">     0</i>
   <i type="int" name="NBANDSGW">    -1</i>
   <i type="int" name="NBANDSO">    -1</i>
   <i type="int" name="NBANDSV">    -1</i>
   <i type="int" name="NELM">     1</i>
   <i type="int" name="NELMHF">     1</i>
   <i type="int" name="DIM">     3</i>
   <i type="int" name="ANTIRES">     0</i>
   <i name="OMEGAMAX">    -30.00000000</i>
   <i name="OMEGAMIN">    -30.00000000</i>
   <i name="OMEGATL">   -200.00000000</i>
   <i type="int" name="OMEGAGRID">   140</i>
   <i name="CSHIFT">     -0.10000000</i>
   <i type="logical" name="SELFENERGY"> F  </i>
   <i type="logical" name="LSPECTRAL"> F  </i>
   <i type="logical" name="LSPECTRALGW"> F  </i>
   <i type="logical" name="LSINGLES"> F  </i>
   <i type="logical" name="LFERMIGW"> F  </i>
   <i type="logical" name="ODDONLYGW"> F  </i>
   <i type="logical" name="EVENONLYGW"> F  </i>
   <i type="int" name="NKREDLFX">     1</i>
   <i type="int" name="NKREDLFY">     1</i>
   <i type="int" name="NKREDLFZ">     1</i>
   <i type="int" name="MAXMEM">  2800</i>
   <i type="int" name="TELESCOPE">     0</i>
   <i type="int" name="TAUPAR">     1</i>
   <i type="int" name="OMEGAPAR">    -1</i>
   <i name="LAMBDA">      1.00000000</i>
  </separator>
  <separator name="External order field" >
   <i name="OFIELD_KAPPA">      0.00000000</i>
   <v name="OFIELD_K">      0.00000000      0.00000000      0.00000000</v>
   <i name="OFIELD_Q6_NEAR">      0.00000000</i>
   <i name="OFIELD_Q6_FAR">      0.00000000</i>
   <i name="OFIELD_A">      0.00000000</i>
  </separator>
 </parameters>
 <atominfo>
  <atoms>      56 </atoms>
  <types>       2 </types>
  <array name="atoms" >
   <dimension dim="1">ion</dimension>
   <field type="string">element</field>
   <field type="int">atomtype</field>
   <set>
    <rc><c>N </c><c>   1</c></rc>
    <rc><c>N </c><c>   1</c></rc>
    <rc><c>N </c><c>   1</c></rc>
    <rc><c>N </c><c>   1</c></rc>
    <rc><c>N </c><c>   1</c></rc>
    <rc><c>N </c><c>   1</c></rc>
    <rc><c>N </c><c>   1</c></rc>
    <rc><c>N </c><c>   1</c></rc>
    <rc><c>N </c><c>   1</c></rc>
    <rc><c>N </c><c>   1</c></rc>
    <rc><c>N </c><c>   1</c></rc>
    <rc><c>N </c><c>   1</c></rc>
    <rc><c>N </c><c>   1</c></rc>
    <rc><c>N </c><c>   1</c></rc>
    <rc><c>N </c><c>   1</c></rc>
    <rc><c>N </c><c>   1</c></rc>
    <rc><c>N </c><c>   1</c></rc>
    <rc><c>N </c><c>   1</c></rc>
    <rc><c>N </c><c>   1</c></rc>
    <rc><c>N </c><c>   1</c></rc>
    <rc><c>N </c><c>   1</c></rc>
    <rc><c>N </c><c>   1</c></rc>
    <rc><c>N </c><c>   1</c></rc>
    <rc><c>N </c><c>   1</c></rc>
    <rc><c>Si</c><c>   2</c></rc>
    <rc><c>Si</c><c>   2</c></rc>
    <rc><c>Si</c><c>   2</c></rc>
    <rc><c>Si</c><c>   2</c></rc>
    <rc><c>Si</c><c>   2</c></rc>
    <rc><c>Si</c><c>   2</c></rc>
    <rc><c>Si</c><c>   2</c></rc>
    <rc><c>Si</c><c>   2</c></rc>
    <rc><c>Si</c><c>   2</c></rc>
    <rc><c>Si</c><c>   2</c></rc>
    <rc><c>Si</c><c>   2</c></rc>
    <rc><c>Si</c><c>   2</c></rc>
    <rc><c>Si</c><c>   2</c></rc>
    <rc><c>Si</c><c>   2</c></rc>
    <rc><c>Si</c><c>   2</c></rc>
    <rc><c>Si</c><c>   2</c></rc>
    <rc><c>Si</c><c>   2</c></rc>
    <rc><c>Si</c><c>   2</c></rc>
    <rc><c>Si</c><c>   2</c></rc>
    <rc><c>Si</c><c>   2</c></rc>
    <rc><c>Si</c><c>   2</c></rc>
    <rc><c>Si</c><c>   2</c></rc>
    <rc><c>Si</c><c>   2</c></rc>
    <rc><c>Si</c><c>   2</c></rc>
    <rc><c>Si</c><c>   2</c></rc>
    <rc><c>Si</c><c>   2</c></rc>
    <rc><c>Si</c><c>   2</c></rc>
    <rc><c>Si</c><c>   2</c></rc>
    <rc><c>Si</c><c>   2</c></rc>
    <rc><c>Si</c><c>   2</c></rc>
    <rc><c>Si</c><c>   2</c></rc>
    <rc><c>Si</c><c>   2</c></rc>
   </set>
  </array>
  <array name="atomtypes" >
   <dimension dim="1">type</dimension>
   <field type="int">atomspertype</field>
   <field type="string">element</field>
   <field>mass</field>
   <field>valence</field>
   <field type="string">pseudopotential</field>
   <set>
    <rc><c>  24</c><c>N </c><c>     14.00100000</c><c>      5.00000000</c><c>  PAW_PBE N 08Apr2002                   </c></rc>
    <rc><c>  32</c><c>Si</c><c>     28.08500000</c><c>      4.00000000</c><c>  PAW_PBE Si 05Jan2001                  </c></rc>
   </set>
  </array>
 </atominfo>
 <structure name="initialpos" >
  <crystal>
   <varray name="basis" >
    <v>       8.07010921       0.00000000       0.00000000 </v>
    <v>       0.00000000       8.07010921       0.00000000 </v>
    <v>       0.00000000       0.00000000       8.07010921 </v>
   </varray>
   <i name="volume">    525.57928060 </i>
   <varray name="rec_basis" >
    <v>       0.12391406      -0.00000000       0.00000000 </v>
    <v>      -0.00000000       0.12391406       0.00000000 </v>
    <v>      -0.00000000      -0.00000000       0.12391406 </v>
   </varray>
  </crystal>
  <varray name="positions" >
   <v>       0.87500000       0.87500000       0.12500000 </v>
   <v>       0.37500000       0.12500000       0.37500000 </v>
   <v>       0.62500000       0.87500000       0.37500000 </v>
   <v>       0.12500000       0.12500000       0.12500000 </v>
   <v>       0.25000000       0.75000000       0.25000000 </v>
   <v>       0.00000000       0.00000000       0.50000000 </v>
   <v>       0.87500000       0.37500000       0.62500000 </v>
   <v>       0.37500000       0.62500000       0.87500000 </v>
   <v>       0.62500000       0.37500000       0.87500000 </v>
   <v>       0.12500000       0.62500000       0.62500000 </v>
   <v>       0.25000000       0.25000000       0.75000000 </v>
   <v>       0.00000000       0.50000000       0.00000000 </v>
   <v>       0.37500000       0.87500000       0.62500000 </v>
   <v>       0.87500000       0.12500000       0.87500000 </v>
   <v>       0.12500000       0.87500000       0.87500000 </v>
   <v>       0.62500000       0.12500000       0.62500000 </v>
   <v>       0.75000000       0.75000000       0.75000000 </v>
   <v>       0.50000000       0.00000000       0.00000000 </v>
   <v>       0.37500000       0.37500000       0.12500000 </v>
   <v>       0.87500000       0.62500000       0.37500000 </v>
   <v>       0.12500000       0.37500000       0.37500000 </v>
   <v>       0.62500000       0.62500000       0.12500000 </v>
   <v>       0.75000000       0.25000000       0.25000000 </v>
   <v>       0.50000000       0.50000000       0.50000000 </v>
   <v>       0.37630293       0.37630293       0.37630293 </v>
   <v>       0.87369707       0.12630293       0.12630293 </v>
   <v>       0.62630293       0.12630293       0.37369707 </v>
   <v>       0.12630293       0.87369707       0.12630293 </v>
   <v>       0.12369707       0.12369707       0.37630293 </v>
   <v>       0.12369707       0.37630293       0.12369707 </v>
   <v>       0.37369707       0.87369707       0.37369707 </v>
   <v>       0.37630293       0.12369707       0.12369707 </v>
   <v>       0.37630293       0.87630293       0.87630293 </v>
   <v>       0.87369707       0.62630293       0.62630293 </v>
   <v>       0.62630293       0.62630293       0.87369707 </v>
   <v>       0.12630293       0.37369707       0.62630293 </v>
   <v>       0.12369707       0.62369707       0.87630293 </v>
   <v>       0.12369707       0.87630293       0.62369707 </v>
   <v>       0.37369707       0.37369707       0.87369707 </v>
   <v>       0.37630293       0.62369707       0.62369707 </v>
   <v>       0.87630293       0.37630293       0.87630293 </v>
   <v>       0.37369707       0.12630293       0.62630293 </v>
   <v>       0.12630293       0.12630293       0.87369707 </v>
   <v>       0.62630293       0.87369707       0.62630293 </v>
   <v>       0.62369707       0.12369707       0.87630293 </v>
   <v>       0.62369707       0.37630293       0.62369707 </v>
   <v>       0.87369707       0.87369707       0.87369707 </v>
   <v>       0.87630293       0.12369707       0.62369707 </v>
   <v>       0.87630293       0.87630293       0.37630293 </v>
   <v>       0.37369707       0.62630293       0.12630293 </v>
   <v>       0.12630293       0.62630293       0.37369707 </v>
   <v>       0.62630293       0.37369707       0.12630293 </v>
   <v>       0.62369707       0.62369707       0.37630293 </v>
   <v>       0.62369707       0.87630293       0.12369707 </v>
   <v>       0.87369707       0.37369707       0.37369707 </v>
   <v>       0.87630293       0.62369707       0.12369707 </v>
  </varray>
 </structure>
 <calculation>
  <scstep>
   <time name="dav">   11.54   11.55</time>
   <time name="total">   11.62   11.62</time>
   <energy>
    <i name="alphaZ">    371.11140659 </i>
    <i name="ewald"> -10307.25970423 </i>
    <i name="hartreedc">  -1384.14998668 </i>
    <i name="XCdc">    224.25029181 </i>
    <i name="pawpsdc">   7738.34714636 </i>
    <i name="pawaedc">  -7203.94574617 </i>
    <i name="eentropy">     -0.00838729 </i>
    <i name="bandstr">   1816.31562299 </i>
    <i name="atom">   9645.50393724 </i>
    <i name="e_fr_energy">    900.16458063 </i>
    <i name="e_wo_entrp">    900.17296792 </i>
    <i name="e_0_energy">    900.16667746 </i>
   </energy>
  </scstep>
  <scstep>
   <time name="dav">   16.47   16.48</time>
   <time name="total">   16.48   16.48</time>
   <energy>
    <i name="e_fr_energy">   -251.69420475 </i>
    <i name="e_wo_entrp">   -251.68855930 </i>
    <i name="e_0_energy">   -251.69279339 </i>
   </energy>
  </scstep>
  <scstep>
   <time name="dav">   18.99   18.99</time>
   <time name="total">   18.99   18.99</time>
   <energy>
    <i name="e_fr_energy">   -345.05891461 </i>
    <i name="e_wo_entrp">   -345.04484213 </i>
    <i name="e_0_energy">   -345.05539649 </i>
   </energy>
  </scstep>
  <scstep>
   <time name="dav">   13.60   13.62</time>
   <time name="total">   13.60   13.62</time>
   <energy>
    <i name="e_fr_energy">   -347.99745422 </i>
    <i name="e_wo_entrp">   -347.98205063 </i>
    <i name="e_0_energy">   -347.99360333 </i>
   </energy>
  </scstep>
  <scstep>
   <time name="dav">   13.43   13.44</time>
   <time name="total">   13.95   13.96</time>
   <energy>
    <i name="e_fr_energy">   -348.08037754 </i>
    <i name="e_wo_entrp">   -348.06515602 </i>
    <i name="e_0_energy">   -348.07657216 </i>
   </energy>
  </scstep>
  <scstep>
   <time name="diag">    1.39    1.39</time>
   <time name="diis">    7.12    7.12</time>
   <time name="orth">    0.19    0.19</time>
   <time name="total">    9.27    9.27</time>
   <energy>
    <i name="e_fr_energy">   -317.39094248 </i>
    <i name="e_wo_entrp">   -317.40001170 </i>
    <i name="e_0_energy">   -317.39320978 </i>
   </energy>
  </scstep>
  <scstep>
   <time name="diag">    1.38    1.38</time>
   <time name="diis">   18.07   18.08</time>
   <time name="orth">    0.19    0.19</time>
   <time name="total">   20.20   20.20</time>
   <energy>
    <i name="e_fr_energy">   -317.03783318 </i>
    <i name="e_wo_entrp">   -317.04836735 </i>
    <i name="e_0_energy">   -317.04046673 </i>
   </energy>
  </scstep>
  <scstep>
   <time name="diag">    1.37    1.37</time>
   <time name="diis">    7.23    7.23</time>
   <time name="orth">    0.19    0.19</time>
   <time name="total">    9.36    9.37</time>
   <energy>
    <i name="e_fr_energy">   -316.89317873 </i>
    <i name="e_wo_entrp">   -316.90126657 </i>
    <i name="e_0_energy">   -316.89520069 </i>
   </energy>
  </scstep>
  <scstep>
   <time name="diag">    1.36    1.36</time>
   <time name="diis">    7.38    7.39</time>
   <time name="orth">    0.19    0.19</time>
   <time name="total">    9.51    9.52</time>
   <energy>
    <i name="e_fr_energy">   -316.82772752 </i>
    <i name="e_wo_entrp">   -316.83700359 </i>
    <i name="e_0_energy">   -316.83004654 </i>
   </energy>
  </scstep>
  <scstep>
   <time name="diag">    1.36    1.36</time>
   <time name="diis">    7.44    7.44</time>
   <time name="orth">    0.18    0.18</time>
   <time name="total">    9.57    9.57</time>
   <energy>
    <i name="e_fr_energy">   -316.82393719 </i>
    <i name="e_wo_entrp">   -316.83360442 </i>
    <i name="e_0_energy">   -316.82635400 </i>
   </energy>
  </scstep>
  <scstep>
   <time name="diag">    1.35    1.35</time>
   <time name="diis">    7.78    7.79</time>
   <time name="orth">    2.99    2.99</time>
   <time name="total">   12.71   12.72</time>
   <energy>
    <i name="e_fr_energy">   -316.82388093 </i>
    <i name="e_wo_entrp">   -316.83348757 </i>
    <i name="e_0_energy">   -316.82628259 </i>
   </energy>
  </scstep>
  <scstep>
   <time name="diag">    1.34    1.35</time>
   <time name="diis">    7.16    7.17</time>
   <time name="orth">    0.19    0.19</time>
   <time name="total">    9.26    9.27</time>
   <energy>
    <i name="e_fr_energy">   -316.82384505 </i>
    <i name="e_wo_entrp">   -316.83357889 </i>
    <i name="e_0_energy">   -316.82627851 </i>
   </energy>
  </scstep>
  <scstep>
   <time name="diag">    1.34    1.34</time>
   <time name="diis">    4.79    4.79</time>
   <time name="orth">    0.18    0.19</time>
   <time name="total">    6.38    6.39</time>
   <energy>
    <i name="alphaZ">    371.11140659 </i>
    <i name="ewald"> -10307.25970423 </i>
    <i name="hartreedc">  -1640.53266645 </i>
    <i name="XCdc">    244.34685645 </i>
    <i name="pawpsdc">  31140.68631602 </i>
    <i name="pawaedc"> -30611.08898086 </i>
    <i name="eentropy">      0.00965439 </i>
    <i name="bandstr">    840.39939109 </i>
    <i name="atom">   9645.50393724 </i>
    <i name="e_fr_energy">   -316.82378977 </i>
    <i name="e_wo_entrp">   -316.83344416 </i>
    <i name="e_0_energy">   -316.82620336 </i>
   </energy>
  </scstep>
  <structure>
   <crystal>
    <varray name="basis" >
     <v>       8.07010921       0.00000000       0.00000000 </v>
     <v>       0.00000000       8.07010921       0.00000000 </v>
     <v>       0.00000000       0.00000000       8.07010921 </v>
    </varray>
    <i name="volume">    525.57928060 </i>
    <varray name="rec_basis" >
     <v>       0.12391406      -0.00000000       0.00000000 </v>
     <v>      -0.00000000       0.12391406       0.00000000 </v>
     <v>      -0.00000000      -0.00000000       0.12391406 </v>
    </varray>
   </crystal>
   <varray name="positions" >
    <v>       0.87500000       0.87500000       0.12500000 </v>
    <v>       0.37500000       0.12500000       0.37500000 </v>
    <v>       0.62500000       0.87500000       0.37500000 </v>
    <v>       0.12500000       0.12500000       0.12500000 </v>
    <v>       0.25000000       0.75000000       0.25000000 </v>
    <v>       0.00000000       0.00000000       0.50000000 </v>
    <v>       0.87500000       0.37500000       0.62500000 </v>
    <v>       0.37500000       0.62500000       0.87500000 </v>
    <v>       0.62500000       0.37500000       0.87500000 </v>
    <v>       0.12500000       0.62500000       0.62500000 </v>
    <v>       0.25000000       0.25000000       0.75000000 </v>
    <v>       0.00000000       0.50000000       0.00000000 </v>
    <v>       0.37500000       0.87500000       0.62500000 </v>
    <v>       0.87500000       0.12500000       0.87500000 </v>
    <v>       0.12500000       0.87500000       0.87500000 </v>
    <v>       0.62500000       0.12500000       0.62500000 </v>
    <v>       0.75000000       0.75000000       0.75000000 </v>
    <v>       0.50000000       0.00000000       0.00000000 </v>
    <v>       0.37500000       0.37500000       0.12500000 </v>
    <v>       0.87500000       0.62500000       0.37500000 </v>
    <v>       0.12500000       0.37500000       0.37500000 </v>
    <v>       0.62500000       0.62500000       0.12500000 </v>
    <v>       0.75000000       0.25000000       0.25000000 </v>
    <v>       0.50000000       0.50000000       0.50000000 </v>
    <v>       0.37630293       0.37630293       0.37630293 </v>
    <v>       0.87369707       0.12630293       0.12630293 </v>
    <v>       0.62630293       0.12630293       0.37369707 </v>
    <v>       0.12630293       0.87369707       0.12630293 </v>
    <v>       0.12369707       0.12369707       0.37630293 </v>
    <v>       0.12369707       0.37630293       0.12369707 </v>
    <v>       0.37369707       0.87369707       0.37369707 </v>
    <v>       0.37630293       0.12369707       0.12369707 </v>
    <v>       0.37630293       0.87630293       0.87630293 </v>
    <v>       0.87369707       0.62630293       0.62630293 </v>
    <v>       0.62630293       0.62630293       0.87369707 </v>
    <v>       0.12630293       0.37369707       0.62630293 </v>
    <v>       0.12369707       0.62369707       0.87630293 </v>
    <v>       0.12369707       0.87630293       0.62369707 </v>
    <v>       0.37369707       0.37369707       0.87369707 </v>
    <v>       0.37630293       0.62369707       0.62369707 </v>
    <v>       0.87630293       0.37630293       0.87630293 </v>
    <v>       0.37369707       0.12630293       0.62630293 </v>
    <v>       0.12630293       0.12630293       0.87369707 </v>
    <v>       0.62630293       0.87369707       0.62630293 </v>
    <v>       0.62369707       0.12369707       0.87630293 </v>
    <v>       0.62369707       0.37630293       0.62369707 </v>
    <v>       0.87369707       0.87369707       0.87369707 </v>
    <v>       0.87630293       0.12369707       0.62369707 </v>
    <v>       0.87630293       0.87630293       0.37630293 </v>
    <v>       0.37369707       0.62630293       0.12630293 </v>
    <v>       0.12630293       0.62630293       0.37369707 </v>
    <v>       0.62630293       0.37369707       0.12630293 </v>
    <v>       0.62369707       0.62369707       0.37630293 </v>
    <v>       0.62369707       0.87630293       0.12369707 </v>
    <v>       0.87369707       0.37369707       0.37369707 </v>
    <v>       0.87630293       0.62369707       0.12369707 </v>
   </varray>
  </structure>
  <varray name="forces" >
   <v>      -0.00000000      -0.00000000       0.00000000 </v>
   <v>      -0.00000000      -0.00000000       0.00000000 </v>
   <v>      -0.00000000      -0.00000000       0.00000000 </v>
   <v>      -0.00000000      -0.00000000       0.00000000 </v>
   <v>      -0.00000000      -0.00000000       0.00000000 </v>
   <v>      -0.00000000      -0.00000000       0.00000000 </v>
   <v>      -0.00000000      -0.00000000       0.00000000 </v>
   <v>      -0.00000000      -0.00000000       0.00000000 </v>
   <v>      -0.00000000      -0.00000000       0.00000000 </v>
   <v>      -0.00000000      -0.00000000       0.00000000 </v>
   <v>      -0.00000000      -0.00000000       0.00000000 </v>
   <v>      -0.00000000      -0.00000000       0.00000000 </v>
   <v>      -0.00000000      -0.00000000       0.00000000 </v>
   <v>      -0.00000000      -0.00000000       0.00000000 </v>
   <v>      -0.00000000      -0.00000000       0.00000000 </v>
   <v>      -0.00000000      -0.00000000       0.00000000 </v>
   <v>      -0.00000000      -0.00000000       0.00000000 </v>
   <v>      -0.00000000      -0.00000000       0.00000000 </v>
   <v>      -0.00000000      -0.00000000       0.00000000 </v>
   <v>      -0.00000000      -0.00000000       0.00000000 </v>
   <v>      -0.00000000      -0.00000000       0.00000000 </v>
   <v>      -0.00000000      -0.00000000       0.00000000 </v>
   <v>      -0.00000000      -0.00000000       0.00000000 </v>
   <v>      -0.00000000      -0.00000000       0.00000000 </v>
   <v>       0.12544583       0.12544583       0.12544583 </v>
   <v>      -0.12544583       0.12544583       0.12544583 </v>
   <v>       0.12544583       0.12544583      -0.12544583 </v>
   <v>       0.12544583      -0.12544583       0.12544583 </v>
   <v>      -0.12544583      -0.12544583       0.12544583 </v>
   <v>      -0.12544583       0.12544583      -0.12544583 </v>
   <v>      -0.12544583      -0.12544583      -0.12544583 </v>
   <v>       0.12544583      -0.12544583      -0.12544583 </v>
   <v>       0.12544583       0.12544583       0.12544583 </v>
   <v>      -0.12544583       0.12544583       0.12544583 </v>
   <v>       0.12544583       0.12544583      -0.12544583 </v>
   <v>       0.12544583      -0.12544583       0.12544583 </v>
   <v>      -0.12544583      -0.12544583       0.12544583 </v>
   <v>      -0.12544583       0.12544583      -0.12544583 </v>
   <v>      -0.12544583      -0.12544583      -0.12544583 </v>
   <v>       0.12544583      -0.12544583      -0.12544583 </v>
   <v>       0.12544583       0.12544583       0.12544583 </v>
   <v>      -0.12544583       0.12544583       0.12544583 </v>
   <v>       0.12544583       0.12544583      -0.12544583 </v>
   <v>       0.12544583      -0.12544583       0.12544583 </v>
   <v>      -0.12544583      -0.12544583       0.12544583 </v>
   <v>      -0.12544583       0.12544583      -0.12544583 </v>
   <v>      -0.12544583      -0.12544583      -0.12544583 </v>
   <v>       0.12544583      -0.12544583      -0.12544583 </v>
   <v>       0.12544583       0.12544583       0.12544583 </v>
   <v>      -0.12544583       0.12544583       0.12544583 </v>
   <v>       0.12544583       0.12544583      -0.12544583 </v>
   <v>       0.12544583      -0.12544583       0.12544583 </v>
   <v>      -0.12544583      -0.12544583       0.12544583 </v>
   <v>      -0.12544583       0.12544583      -0.12544583 </v>
   <v>      -0.12544583      -0.12544583      -0.12544583 </v>
   <v>       0.12544583      -0.12544583      -0.12544583 </v>
  </varray>
  <varray name="stress" >
   <v>     377.30334653       0.00000000       0.00000000 </v>
   <v>       0.00000000     377.30334653       0.00000000 </v>
   <v>       0.00000000       0.00000000     377.30334653 </v>
  </varray>
  <energy>
   <i name="e_fr_energy">   -316.82378977 </i>
   <i name="e_wo_entrp">   -316.82620336 </i>
   <i name="e_0_energy">      0.00965439 </i>
  </energy>
  <time name="totalsc">  176.85  176.96</time>
 </calculation>
 <calculation>
  <scstep>
   <time name="dav">   16.09   16.10</time>
   <time name="total">   16.65   16.67</time>
   <energy>
    <i name="alphaZ">    371.11140659 </i>
    <i name="ewald"> -10308.58950482 </i>
    <i name="hartreedc">  -1636.79207619 </i>
    <i name="XCdc">    244.29007661 </i>
    <i name="pawpsdc">  31134.01912970 </i>
    <i name="pawaedc"> -30604.42185880 </i>
    <i name="eentropy">      0.01130357 </i>
    <i name="bandstr">    838.07017299 </i>
    <i name="atom">   9645.50393724 </i>
    <i name="e_fr_energy">   -316.79741311 </i>
    <i name="e_wo_entrp">   -316.80871667 </i>
    <i name="e_0_energy">   -316.80023900 </i>
   </energy>
  </scstep>
  <scstep>
   <time name="diag">    1.35    1.35</time>
   <time name="diis">    7.23    7.23</time>
   <time name="orth">    0.19    0.19</time>
   <time name="total">    9.34    9.35</time>
   <energy>
    <i name="e_fr_energy">   -316.80570361 </i>
    <i name="e_wo_entrp">   -316.81753303 </i>
    <i name="e_0_energy">   -316.80866097 </i>
   </energy>
  </scstep>
  <scstep>
   <time name="diag">    1.34    1.34</time>
   <time name="diis">    7.39    7.39</time>
   <time name="orth">    0.19    0.19</time>
   <time name="total">    9.49    9.50</time>
   <energy>
    <i name="e_fr_energy">   -316.80390880 </i>
    <i name="e_wo_entrp">   -316.81593924 </i>
    <i name="e_0_energy">   -316.80691641 </i>
   </energy>
  </scstep>
  <scstep>
   <time name="diag">    1.34    1.34</time>
   <time name="diis">    7.31    7.31</time>
   <time name="orth">    0.18    0.19</time>
   <time name="total">    9.41    9.41</time>
   <energy>
    <i name="e_fr_energy">   -316.80369407 </i>
    <i name="e_wo_entrp">   -316.81575790 </i>
    <i name="e_0_energy">   -316.80671003 </i>
   </energy>
  </scstep>
  <scstep>
   <time name="diag">    1.33    1.33</time>
   <time name="diis">    6.05    6.05</time>
   <time name="orth">    0.18    0.18</time>
   <time name="total">    7.64    7.65</time>
   <energy>
    <i name="alphaZ">    371.11140659 </i>
    <i name="ewald"> -10308.58950482 </i>
    <i name="hartreedc">  -1638.82945301 </i>
    <i name="XCdc">    244.44850856 </i>
    <i name="pawpsdc">  31319.16555089 </i>
    <i name="pawaedc"> -30789.62403545 </i>
    <i name="eentropy">      0.01214870 </i>
    <i name="bandstr">    839.99775237 </i>
    <i name="atom">   9645.50393724 </i>
    <i name="e_fr_energy">   -316.80368894 </i>
    <i name="e_wo_entrp">   -316.81583764 </i>
    <i name="e_0_energy">   -316.80672612 </i>
   </energy>
  </scstep>
  <structure>
   <crystal>
    <varray name="basis" >
     <v>       8.07010921       0.00000000       0.00000000 </v>
     <v>       0.00000000       8.07010921       0.00000000 </v>
     <v>       0.00000000       0.00000000       8.07010921 </v>
    </varray>
    <i name="volume">    525.57928060 </i>
    <varray name="rec_basis" >
     <v>       0.12391406      -0.00000000       0.00000000 </v>
     <v>      -0.00000000       0.12391406       0.00000000 </v>
     <v>      -0.00000000      -0.00000000       0.12391406 </v>
    </varray>
   </crystal>
   <varray name="positions" >
    <v>       0.87500000       0.87500000       0.12500000 </v>
    <v>       0.37500000       0.12500000       0.37500000 </v>
    <v>       0.62500000       0.87500000       0.37500000 </v>
    <v>       0.12500000       0.12500000       0.12500000 </v>
    <v>       0.25000000       0.75000000       0.25000000 </v>
    <v>      -0.00000000      -0.00000000       0.50000000 </v>
    <v>       0.87500000       0.37500000       0.62500000 </v>
    <v>       0.37500000       0.62500000       0.87500000 </v>
    <v>       0.62500000       0.37500000       0.87500000 </v>
    <v>       0.12500000       0.62500000       0.62500000 </v>
    <v>       0.25000000       0.25000000       0.75000000 </v>
    <v>      -0.00000000       0.50000000       0.00000000 </v>
    <v>       0.37500000       0.87500000       0.62500000 </v>
    <v>       0.87500000       0.12500000       0.87500000 </v>
    <v>       0.12500000       0.87500000       0.87500000 </v>
    <v>       0.62500000       0.12500000       0.62500000 </v>
    <v>       0.75000000       0.75000000       0.75000000 </v>
    <v>       0.50000000      -0.00000000       0.00000000 </v>
    <v>       0.37500000       0.37500000       0.12500000 </v>
    <v>       0.87500000       0.62500000       0.37500000 </v>
    <v>       0.12500000       0.37500000       0.37500000 </v>
    <v>       0.62500000       0.62500000       0.12500000 </v>
    <v>       0.75000000       0.25000000       0.25000000 </v>
    <v>       0.50000000       0.50000000       0.50000000 </v>
    <v>       0.37705284       0.37705284       0.37705284 </v>
    <v>       0.87294716       0.12705284       0.12705284 </v>
    <v>       0.62705284       0.12705284       0.37294716 </v>
    <v>       0.12705284       0.87294716       0.12705284 </v>
    <v>       0.12294716       0.12294716       0.37705284 </v>
    <v>       0.12294716       0.37705284       0.12294716 </v>
    <v>       0.37294716       0.87294716       0.37294716 </v>
    <v>       0.37705284       0.12294716       0.12294716 </v>
    <v>       0.37705284       0.87705284       0.87705284 </v>
    <v>       0.87294716       0.62705284       0.62705284 </v>
    <v>       0.62705284       0.62705284       0.87294716 </v>
    <v>       0.12705284       0.37294716       0.62705284 </v>
    <v>       0.12294716       0.62294716       0.87705284 </v>
    <v>       0.12294716       0.87705284       0.62294716 </v>
    <v>       0.37294716       0.37294716       0.87294716 </v>
    <v>       0.37705284       0.62294716       0.62294716 </v>
    <v>       0.87705284       0.37705284       0.87705284 </v>
    <v>       0.37294716       0.12705284       0.62705284 </v>
    <v>       0.12705284       0.12705284       0.87294716 </v>
    <v>       0.62705284       0.87294716       0.62705284 </v>
    <v>       0.62294716       0.12294716       0.87705284 </v>
    <v>       0.62294716       0.37705284       0.62294716 </v>
    <v>       0.87294716       0.87294716       0.87294716 </v>
    <v>       0.87705284       0.12294716       0.62294716 </v>
    <v>       0.87705284       0.87705284       0.37705284 </v>
    <v>       0.37294716       0.62705284       0.12705284 </v>
    <v>       0.12705284       0.62705284       0.37294716 </v>
    <v>       0.62705284       0.37294716       0.12705284 </v>
    <v>       0.62294716       0.62294716       0.37705284 </v>
    <v>       0.62294716       0.87705284       0.12294716 </v>
    <v>       0.87294716       0.37294716       0.37294716 </v>
    <v>       0.87705284       0.62294716       0.12294716 </v>
   </varray>
  </structure>
  <varray name="forces" >
   <v>      -0.00000000       0.00000000       0.00000000 </v>
   <v>      -0.00000000       0.00000000       0.00000000 </v>
   <v>      -0.00000000       0.00000000       0.00000000 </v>
   <v>      -0.00000000       0.00000000       0.00000000 </v>
   <v>      -0.00000000       0.00000000       0.00000000 </v>
   <v>      -0.00000000       0.00000000       0.00000000 </v>
   <v>      -0.00000000       0.00000000       0.00000000 </v>
   <v>      -0.00000000       0.00000000       0.00000000 </v>
   <v>      -0.00000000       0.00000000       0.00000000 </v>
   <v>      -0.00000000       0.00000000       0.00000000 </v>
   <v>      -0.00000000       0.00000000       0.00000000 </v>
   <v>      -0.00000000       0.00000000       0.00000000 </v>
   <v>      -0.00000000       0.00000000       0.00000000 </v>
   <v>      -0.00000000       0.00000000       0.00000000 </v>
   <v>      -0.00000000       0.00000000       0.00000000 </v>
   <v>      -0.00000000       0.00000000       0.00000000 </v>
   <v>      -0.00000000       0.00000000       0.00000000 </v>
   <v>      -0.00000000       0.00000000       0.00000000 </v>
   <v>      -0.00000000       0.00000000       0.00000000 </v>
   <v>      -0.00000000       0.00000000       0.00000000 </v>
   <v>      -0.00000000       0.00000000       0.00000000 </v>
   <v>      -0.00000000       0.00000000       0.00000000 </v>
   <v>      -0.00000000       0.00000000       0.00000000 </v>
   <v>      -0.00000000       0.00000000       0.00000000 </v>
   <v>      -0.19696722      -0.19696722      -0.19696722 </v>
   <v>       0.19696722      -0.19696722      -0.19696722 </v>
   <v>      -0.19696722      -0.19696722       0.19696722 </v>
   <v>      -0.19696722       0.19696722      -0.19696722 </v>
   <v>       0.19696722       0.19696722      -0.19696722 </v>
   <v>       0.19696722      -0.19696722       0.19696722 </v>
   <v>       0.19696722       0.19696722       0.19696722 </v>
   <v>      -0.19696722       0.19696722       0.19696722 </v>
   <v>      -0.19696722      -0.19696722      -0.19696722 </v>
   <v>       0.19696722      -0.19696722      -0.19696722 </v>
   <v>      -0.19696722      -0.19696722       0.19696722 </v>
   <v>      -0.19696722       0.19696722      -0.19696722 </v>
   <v>       0.19696722       0.19696722      -0.19696722 </v>
   <v>       0.19696722      -0.19696722       0.19696722 </v>
   <v>       0.19696722       0.19696722       0.19696722 </v>
   <v>      -0.19696722       0.19696722       0.19696722 </v>
   <v>      -0.19696722      -0.19696722      -0.19696722 </v>
   <v>       0.19696722      -0.19696722      -0.19696722 </v>
   <v>      -0.19696722      -0.19696722       0.19696722 </v>
   <v>      -0.19696722       0.19696722      -0.19696722 </v>
   <v>       0.19696722       0.19696722      -0.19696722 </v>
   <v>       0.19696722      -0.19696722       0.19696722 </v>
   <v>       0.19696722       0.19696722       0.19696722 </v>
   <v>      -0.19696722       0.19696722       0.19696722 </v>
   <v>      -0.19696722      -0.19696722      -0.19696722 </v>
   <v>       0.19696722      -0.19696722      -0.19696722 </v>
   <v>      -0.19696722      -0.19696722       0.19696722 </v>
   <v>      -0.19696722       0.19696722      -0.19696722 </v>
   <v>       0.19696722       0.19696722      -0.19696722 </v>
   <v>       0.19696722      -0.19696722       0.19696722 </v>
   <v>       0.19696722       0.19696722       0.19696722 </v>
   <v>      -0.19696722       0.19696722       0.19696722 </v>
  </varray>
  <varray name="stress" >
   <v>     376.72328768       0.00000000       0.00000000 </v>
   <v>       0.00000000     376.72328768       0.00000000 </v>
   <v>       0.00000000       0.00000000     376.72328768 </v>
  </varray>
  <energy>
   <i name="e_fr_energy">   -316.80368894 </i>
   <i name="e_wo_entrp">   -316.80672612 </i>
   <i name="e_0_energy">      0.01214870 </i>
  </energy>
  <time name="totalsc">   69.07   69.10</time>
 </calculation>
 <calculation>
  <scstep>
   <time name="dav">   12.37   12.38</time>
   <time name="total">   12.94   12.95</time>
   <energy>
    <i name="alphaZ">    371.11140659 </i>
    <i name="ewald"> -10307.91626086 </i>
    <i name="hartreedc">  -1641.01226257 </i>
    <i name="XCdc">    244.47955731 </i>
    <i name="pawpsdc">  31311.38050302 </i>
    <i name="pawaedc"> -30781.83908028 </i>
    <i name="eentropy">      0.01101703 </i>
    <i name="bandstr">    841.44497971 </i>
    <i name="atom">   9645.50393724 </i>
    <i name="e_fr_energy">   -316.83620280 </i>
    <i name="e_wo_entrp">   -316.84721983 </i>
    <i name="e_0_energy">   -316.83895706 </i>
   </energy>
  </scstep>
  <scstep>
   <time name="diag">    1.34    1.34</time>
   <time name="diis">    7.21    7.22</time>
   <time name="orth">    0.19    0.19</time>
   <time name="total">    9.31    9.32</time>
   <energy>
    <i name="e_fr_energy">   -316.83879647 </i>
    <i name="e_wo_entrp">   -316.84973733 </i>
    <i name="e_0_energy">   -316.84153169 </i>
   </energy>
  </scstep>
  <scstep>
   <time name="diag">    1.34    1.34</time>
   <time name="diis">    7.31    7.32</time>
   <time name="orth">    0.19    0.19</time>
   <time name="total">    9.41    9.43</time>
   <energy>
    <i name="e_fr_energy">   -316.83813545 </i>
    <i name="e_wo_entrp">   -316.84910875 </i>
    <i name="e_0_energy">   -316.84087878 </i>
   </energy>
  </scstep>
  <scstep>
   <time name="diag">    1.34    1.34</time>
   <time name="diis">    4.62    4.62</time>
   <time name="orth">    0.19    0.19</time>
   <time name="total">    6.21    6.22</time>
   <energy>
    <i name="alphaZ">    371.11140659 </i>
    <i name="ewald"> -10307.91626086 </i>
    <i name="hartreedc">  -1639.82779370 </i>
    <i name="XCdc">    244.39337433 </i>
    <i name="pawpsdc">  31219.53601085 </i>
    <i name="pawaedc"> -30689.96576992 </i>
    <i name="eentropy">      0.01096598 </i>
    <i name="bandstr">    840.31605557 </i>
    <i name="atom">   9645.50393724 </i>
    <i name="e_fr_energy">   -316.83807391 </i>
    <i name="e_wo_entrp">   -316.84903989 </i>
    <i name="e_0_energy">   -316.84081541 </i>
   </energy>
  </scstep>
  <structure>
   <crystal>
    <varray name="basis" >
     <v>       8.07010921       0.00000000       0.00000000 </v>
     <v>       0.00000000       8.07010921       0.00000000 </v>
     <v>       0.00000000       0.00000000       8.07010921 </v>
    </varray>
    <i name="volume">    525.57928060 </i>
    <varray name="rec_basis" >
     <v>       0.12391406      -0.00000000       0.00000000 </v>
     <v>      -0.00000000       0.12391406       0.00000000 </v>
     <v>      -0.00000000      -0.00000000       0.12391406 </v>
    </varray>
   </crystal>
   <varray name="positions" >
    <v>       0.87500000       0.87500000       0.12500000 </v>
    <v>       0.37500000       0.12500000       0.37500000 </v>
    <v>       0.62500000       0.87500000       0.37500000 </v>
    <v>       0.12500000       0.12500000       0.12500000 </v>
    <v>       0.25000000       0.75000000       0.25000000 </v>
    <v>      -0.00000000      -0.00000000       0.50000000 </v>
    <v>       0.87500000       0.37500000       0.62500000 </v>
    <v>       0.37500000       0.62500000       0.87500000 </v>
    <v>       0.62500000       0.37500000       0.87500000 </v>
    <v>       0.12500000       0.62500000       0.62500000 </v>
    <v>       0.25000000       0.25000000       0.75000000 </v>
    <v>      -0.00000000       0.50000000       0.00000000 </v>
    <v>       0.37500000       0.87500000       0.62500000 </v>
    <v>       0.87500000       0.12500000       0.87500000 </v>
    <v>       0.12500000       0.87500000       0.87500000 </v>
    <v>       0.62500000       0.12500000       0.62500000 </v>
    <v>       0.75000000       0.75000000       0.75000000 </v>
    <v>       0.50000000      -0.00000000       0.00000000 </v>
    <v>       0.37500000       0.37500000       0.12500000 </v>
    <v>       0.87500000       0.62500000       0.37500000 </v>
    <v>       0.12500000       0.37500000       0.37500000 </v>
    <v>       0.62500000       0.62500000       0.12500000 </v>
    <v>       0.75000000       0.25000000       0.25000000 </v>
    <v>       0.50000000       0.50000000       0.50000000 </v>
    <v>       0.37659858       0.37659858       0.37659858 </v>
    <v>       0.87340142       0.12659858       0.12659858 </v>
    <v>       0.62659858       0.12659858       0.37340142 </v>
    <v>       0.12659858       0.87340142       0.12659858 </v>
    <v>       0.12340142       0.12340142       0.37659858 </v>
    <v>       0.12340142       0.37659858       0.12340142 </v>
    <v>       0.37340142       0.87340142       0.37340142 </v>
    <v>       0.37659858       0.12340142       0.12340142 </v>
    <v>       0.37659858       0.87659858       0.87659858 </v>
    <v>       0.87340142       0.62659858       0.62659858 </v>
    <v>       0.62659858       0.62659858       0.87340142 </v>
    <v>       0.12659858       0.37340142       0.62659858 </v>
    <v>       0.12340142       0.62340142       0.87659858 </v>
    <v>       0.12340142       0.87659858       0.62340142 </v>
    <v>       0.37340142       0.37340142       0.87340142 </v>
    <v>       0.37659858       0.62340142       0.62340142 </v>
    <v>       0.87659858       0.37659858       0.87659858 </v>
    <v>       0.37340142       0.12659858       0.62659858 </v>
    <v>       0.12659858       0.12659858       0.87340142 </v>
    <v>       0.62659858       0.87340142       0.62659858 </v>
    <v>       0.62340142       0.12340142       0.87659858 </v>
    <v>       0.62340142       0.37659858       0.62340142 </v>
    <v>       0.87340142       0.87340142       0.87340142 </v>
    <v>       0.87659858       0.12340142       0.62340142 </v>
    <v>       0.87659858       0.87659858       0.37659858 </v>
    <v>       0.37340142       0.62659858       0.12659858 </v>
    <v>       0.12659858       0.62659858       0.37340142 </v>
    <v>       0.62659858       0.37340142       0.12659858 </v>
    <v>       0.62340142       0.62340142       0.37659858 </v>
    <v>       0.62340142       0.87659858       0.12340142 </v>
    <v>       0.87340142       0.37340142       0.37340142 </v>
    <v>       0.87659858       0.62340142       0.12340142 </v>
   </varray>
  </structure>
  <varray name="forces" >
   <v>      -0.00000000      -0.00000000      -0.00000000 </v>
   <v>      -0.00000000      -0.00000000      -0.00000000 </v>
   <v>      -0.00000000      -0.00000000      -0.00000000 </v>
   <v>      -0.00000000      -0.00000000      -0.00000000 </v>
   <v>      -0.00000000      -0.00000000      -0.00000000 </v>
   <v>      -0.00000000      -0.00000000      -0.00000000 </v>
   <v>      -0.00000000      -0.00000000      -0.00000000 </v>
   <v>      -0.00000000      -0.00000000      -0.00000000 </v>
   <v>      -0.00000000      -0.00000000      -0.00000000 </v>
   <v>      -0.00000000      -0.00000000      -0.00000000 </v>
   <v>      -0.00000000      -0.00000000      -0.00000000 </v>
   <v>      -0.00000000      -0.00000000      -0.00000000 </v>
   <v>      -0.00000000      -0.00000000      -0.00000000 </v>
   <v>      -0.00000000      -0.00000000      -0.00000000 </v>
   <v>      -0.00000000      -0.00000000      -0.00000000 </v>
   <v>      -0.00000000      -0.00000000      -0.00000000 </v>
   <v>      -0.00000000      -0.00000000      -0.00000000 </v>
   <v>      -0.00000000      -0.00000000      -0.00000000 </v>
   <v>      -0.00000000      -0.00000000      -0.00000000 </v>
   <v>      -0.00000000      -0.00000000      -0.00000000 </v>
   <v>      -0.00000000      -0.00000000      -0.00000000 </v>
   <v>      -0.00000000      -0.00000000      -0.00000000 </v>
   <v>      -0.00000000      -0.00000000      -0.00000000 </v>
   <v>      -0.00000000      -0.00000000      -0.00000000 </v>
   <v>      -0.00232162      -0.00232162      -0.00232162 </v>
   <v>       0.00232162      -0.00232162      -0.00232162 </v>
   <v>      -0.00232162      -0.00232162       0.00232162 </v>
   <v>      -0.00232162       0.00232162      -0.00232162 </v>
   <v>       0.00232162       0.00232162      -0.00232162 </v>
   <v>       0.00232162      -0.00232162       0.00232162 </v>
   <v>       0.00232162       0.00232162       0.00232162 </v>
   <v>      -0.00232162       0.00232162       0.00232162 </v>
   <v>      -0.00232162      -0.00232162      -0.00232162 </v>
   <v>       0.00232162      -0.00232162      -0.00232162 </v>
   <v>      -0.00232162      -0.00232162       0.00232162 </v>
   <v>      -0.00232162       0.00232162      -0.00232162 </v>
   <v>       0.00232162       0.00232162      -0.00232162 </v>
   <v>       0.00232162      -0.00232162       0.00232162 </v>
   <v>       0.00232162       0.00232162       0.00232162 </v>
   <v>      -0.00232162       0.00232162       0.00232162 </v>
   <v>      -0.00232162      -0.00232162      -0.00232162 </v>
   <v>       0.00232162      -0.00232162      -0.00232162 </v>
   <v>      -0.00232162      -0.00232162       0.00232162 </v>
   <v>      -0.00232162       0.00232162      -0.00232162 </v>
   <v>       0.00232162       0.00232162      -0.00232162 </v>
   <v>       0.00232162      -0.00232162       0.00232162 </v>
   <v>       0.00232162       0.00232162       0.00232162 </v>
   <v>      -0.00232162       0.00232162       0.00232162 </v>
   <v>      -0.00232162      -0.00232162      -0.00232162 </v>
   <v>       0.00232162      -0.00232162      -0.00232162 </v>
   <v>      -0.00232162      -0.00232162       0.00232162 </v>
   <v>      -0.00232162       0.00232162      -0.00232162 </v>
   <v>       0.00232162       0.00232162      -0.00232162 </v>
   <v>       0.00232162      -0.00232162       0.00232162 </v>
   <v>       0.00232162       0.00232162       0.00232162 </v>
   <v>      -0.00232162       0.00232162       0.00232162 </v>
  </varray>
  <varray name="stress" >
   <v>     376.91638510       0.00000000       0.00000000 </v>
   <v>       0.00000000     376.91638510       0.00000000 </v>
   <v>       0.00000000       0.00000000     376.91638510 </v>
  </varray>
  <energy>
   <i name="e_fr_energy">   -316.83807391 </i>
   <i name="e_wo_entrp">   -316.84081541 </i>
   <i name="e_0_energy">      0.01096598 </i>
  </energy>
  <time name="totalsc">   54.05   54.10</time>
  <eigenvalues>
   <array>
    <dimension dim="1">band</dimension>
    <dimension dim="2">kpoint</dimension>
    <dimension dim="3">spin</dimension>
    <field>eigene</field>
    <field>occ</field>
    <set>
     <set comment="spin 1">
      <set comment="kpoint 1">
       <r>   -8.7876    1.0000 </r>
       <r>   -7.4154    1.0000 </r>
       <r>   -7.4154    1.0000 </r>
       <r>   -7.4154    1.0000 </r>
       <r>   -7.4154    1.0000 </r>
       <r>   -7.4154    1.0000 </r>
       <r>   -7.4154    1.0000 </r>
       <r>   -6.7509    1.0000 </r>
       <r>   -6.7509    1.0000 </r>
       <r>   -6.7509    1.0000 </r>
       <r>   -6.7508    1.0000 </r>
       <r>   -6.7508    1.0000 </r>
       <r>   -6.7508    1.0000 </r>
       <r>   -6.7495    1.0000 </r>
       <r>   -6.5079    1.0000 </r>
       <r>   -5.5001    1.0000 </r>
       <r>   -5.5001    1.0000 </r>
       <r>   -5.5001    1.0000 </r>
       <r>   -5.5001    1.0000 </r>
       <r>   -5.5001    1.0000 </r>
       <r>   -5.5001    1.0000 </r>
       <r>   -5.3084    1.0000 </r>
       <r>   -5.3084    1.0000 </r>
       <r>   -5.3084    1.0000 </r>
       <r>   -0.0940    1.0000 </r>
       <r>    0.2251    1.0000 </r>
       <r>    0.2251    1.0000 </r>
       <r>    0.2251    1.0000 </r>
       <r>    0.8390    1.0000 </r>
       <r>    0.8390    1.0000 </r>
       <r>    0.8390    1.0000 </r>
       <r>    0.8390    1.0000 </r>
       <r>    0.8390    1.0000 </r>
       <r>    0.8390    1.0000 </r>
       <r>    1.3102    1.0000 </r>
       <r>    1.3102    1.0000 </r>
       <r>    1.3102    1.0000 </r>
       <r>    1.3102    1.0000 </r>
       <r>    1.3102    1.0000 </r>
       <r>    1.3102    1.0000 </r>
       <r>    2.1105    1.0000 </r>
       <r>    2.1105    1.0000 </r>
       <r>    2.1105    1.0000 </r>
       <r>    2.4227    1.0000 </r>
       <r>    2.4227    1.0000 </r>
       <r>    2.5661    1.0000 </r>
       <r>    2.5661    1.0000 </r>
       <r>    2.5661    1.0000 </r>
       <r>    2.5661    1.0000 </r>
       <r>    2.5661    1.0000 </r>
       <r>    2.5661    1.0000 </r>
       <r>    3.1645    1.0000 </r>
       <r>    3.1645    1.0000 </r>
       <r>    3.1645    1.0000 </r>
       <r>    3.1645    1.0000 </r>
       <r>    3.1645    1.0000 </r>
       <r>    3.1645    1.0000 </r>
       <r>    3.9821    1.0000 </r>
       <r>    3.9821    1.0000 </r>
       <r>    3.9821    1.0000 </r>
       <r>    3.9821    1.0000 </r>
       <r>    3.9821    1.0000 </r>
       <r>    3.9821    1.0000 </r>
       <r>    4.2539    1.0000 </r>
       <r>    4.2539    1.0000 </r>
       <r>    4.2539    1.0000 </r>
       <r>    4.2539    1.0000 </r>
       <r>    4.2539    1.0000 </r>
       <r>    4.2539    1.0000 </r>
       <r>    4.3400    1.0000 </r>
       <r>    4.3400    1.0000 </r>
       <r>    4.3400    1.0000 </r>
       <r>    4.3400    1.0000 </r>
       <r>    4.3400    1.0000 </r>
       <r>    4.3400    1.0000 </r>
       <r>    4.7178    1.0000 </r>
       <r>    4.7178    1.0000 </r>
       <r>    4.7178    1.0000 </r>
       <r>    5.0742    1.0000 </r>
       <r>    5.0742    1.0000 </r>
       <r>    5.0742    1.0000 </r>
       <r>    5.0742    1.0000 </r>
       <r>    5.0742    1.0000 </r>
       <r>    5.0742    1.0000 </r>
       <r>    6.3277    1.0000 </r>
       <r>    6.3277    1.0000 </r>
       <r>    6.3277    1.0000 </r>
       <r>    7.0489    1.0000 </r>
       <r>    7.0489    1.0000 </r>
       <r>    7.0489    1.0000 </r>
       <r>    7.0489    1.0000 </r>
       <r>    7.0489    1.0000 </r>
       <r>    7.0489    1.0000 </r>
       <r>    7.5698    1.0000 </r>
       <r>    7.5698    1.0000 </r>
       <r>    7.5698    1.0000 </r>
       <r>    7.9043    1.0000 </r>
       <r>   10.5971    1.0000 </r>
       <r>   10.5971    1.0000 </r>
       <r>   10.5971    1.0000 </r>
       <r>   10.5971    1.0000 </r>
       <r>   10.5971    1.0000 </r>
       <r>   10.5971    1.0000 </r>
       <r>   11.0291    1.0000 </r>
       <r>   11.0291    1.0000 </r>
       <r>   11.0291    1.0000 </r>
       <r>   11.3083    1.0000 </r>
       <r>   11.3083    1.0000 </r>
       <r>   11.3083    1.0000 </r>
       <r>   11.3083    1.0000 </r>
       <r>   11.3083    1.0000 </r>
       <r>   11.3083    1.0000 </r>
       <r>   11.6084    1.0000 </r>
       <r>   11.6084    1.0000 </r>
       <r>   11.6084    1.0000 </r>
       <r>   11.7190    1.0000 </r>
       <r>   11.7190    1.0000 </r>
       <r>   11.7190    1.0000 </r>
       <r>   11.7190    1.0000 </r>
       <r>   11.7190    1.0000 </r>
       <r>   11.7190    1.0000 </r>
       <r>   12.0412    1.0000 </r>
       <r>   12.0412    1.0000 </r>
       <r>   12.0412    1.0000 </r>
       <r>   12.0412    1.0000 </r>
       <r>   12.0412    1.0000 </r>
       <r>   12.0412    1.0000 </r>
       <r>   13.4322    0.0000 </r>
       <r>   13.4322    0.0000 </r>
       <r>   13.4322    0.0000 </r>
       <r>   13.4322    0.0000 </r>
       <r>   13.4322    0.0000 </r>
       <r>   13.4322    0.0000 </r>
       <r>   13.5443    0.0000 </r>
       <r>   13.6330    0.0000 </r>
       <r>   13.6330    0.0000 </r>
       <r>   14.2406    0.0000 </r>
       <r>   14.2406    0.0000 </r>
       <r>   14.2406    0.0000 </r>
       <r>   14.2406    0.0000 </r>
       <r>   14.2406    0.0000 </r>
       <r>   14.2406    0.0000 </r>
       <r>   14.3346    0.0000 </r>
       <r>   14.3346    0.0000 </r>
       <r>   14.3346    0.0000 </r>
       <r>   14.3346    0.0000 </r>
       <r>   14.3346    0.0000 </r>
       <r>   14.3346    0.0000 </r>
       <r>   14.8768    0.0000 </r>
       <r>   14.8768    0.0000 </r>
       <r>   15.4955    0.0000 </r>
       <r>   15.4955    0.0000 </r>
       <r>   15.4955    0.0000 </r>
       <r>   16.5211    0.0000 </r>
       <r>   16.8547    0.0000 </r>
       <r>   16.8693    0.0000 </r>
      </set>
      <set comment="kpoint 2">
       <r>   -8.7437    1.0000 </r>
       <r>   -7.7793    1.0000 </r>
       <r>   -7.3876    1.0000 </r>
       <r>   -7.3876    1.0000 </r>
       <r>   -7.3876    1.0000 </r>
       <r>   -7.3876    1.0000 </r>
       <r>   -7.1173    1.0000 </r>
       <r>   -6.8077    1.0000 </r>
       <r>   -6.8077    1.0000 </r>
       <r>   -6.8077    1.0000 </r>
       <r>   -6.8077    1.0000 </r>
       <r>   -6.7669    1.0000 </r>
       <r>   -6.7659    1.0000 </r>
       <r>   -6.6059    1.0000 </r>
       <r>   -6.5288    1.0000 </r>
       <r>   -5.4877    1.0000 </r>
       <r>   -5.4877    1.0000 </r>
       <r>   -5.4623    1.0000 </r>
       <r>   -5.4623    1.0000 </r>
       <r>   -5.4623    1.0000 </r>
       <r>   -5.4623    1.0000 </r>
       <r>   -5.3826    1.0000 </r>
       <r>   -5.3218    1.0000 </r>
       <r>   -5.3218    1.0000 </r>
       <r>    0.0063    1.0000 </r>
       <r>    0.2508    1.0000 </r>
       <r>    0.2508    1.0000 </r>
       <r>    0.3172    1.0000 </r>
       <r>    0.7743    1.0000 </r>
       <r>    0.7743    1.0000 </r>
       <r>    0.8277    1.0000 </r>
       <r>    0.8277    1.0000 </r>
       <r>    0.8277    1.0000 </r>
       <r>    0.8277    1.0000 </r>
       <r>    1.0977    1.0000 </r>
       <r>    1.3043    1.0000 </r>
       <r>    1.3043    1.0000 </r>
       <r>    1.3043    1.0000 </r>
       <r>    1.3043    1.0000 </r>
       <r>    1.4648    1.0000 </r>
       <r>    1.6519    1.0000 </r>
       <r>    1.9903    1.0000 </r>
       <r>    2.2004    1.0000 </r>
       <r>    2.2004    1.0000 </r>
       <r>    2.4692    1.0000 </r>
       <r>    2.5411    1.0000 </r>
       <r>    2.5411    1.0000 </r>
       <r>    2.5412    1.0000 </r>
       <r>    2.5412    1.0000 </r>
       <r>    2.8466    1.0000 </r>
       <r>    3.0155    1.0000 </r>
       <r>    3.0548    1.0000 </r>
       <r>    3.0548    1.0000 </r>
       <r>    3.0548    1.0000 </r>
       <r>    3.0548    1.0000 </r>
       <r>    3.2119    1.0000 </r>
       <r>    3.2119    1.0000 </r>
       <r>    3.5317    1.0000 </r>
       <r>    3.9522    1.0000 </r>
       <r>    3.9522    1.0000 </r>
       <r>    3.9522    1.0000 </r>
       <r>    3.9522    1.0000 </r>
       <r>    4.1048    1.0000 </r>
       <r>    4.1048    1.0000 </r>
       <r>    4.2066    1.0000 </r>
       <r>    4.2066    1.0000 </r>
       <r>    4.2066    1.0000 </r>
       <r>    4.2066    1.0000 </r>
       <r>    4.4805    1.0000 </r>
       <r>    4.4875    1.0000 </r>
       <r>    4.5200    1.0000 </r>
       <r>    4.6092    1.0000 </r>
       <r>    4.6751    1.0000 </r>
       <r>    4.6751    1.0000 </r>
       <r>    4.6838    1.0000 </r>
       <r>    4.6838    1.0000 </r>
       <r>    4.6838    1.0000 </r>
       <r>    4.6838    1.0000 </r>
       <r>    5.0876    1.0000 </r>
       <r>    5.0876    1.0000 </r>
       <r>    5.0876    1.0000 </r>
       <r>    5.0876    1.0000 </r>
       <r>    5.2242    1.0000 </r>
       <r>    5.2242    1.0000 </r>
       <r>    6.2225    1.0000 </r>
       <r>    6.2238    1.0000 </r>
       <r>    6.2238    1.0000 </r>
       <r>    6.9182    1.0000 </r>
       <r>    6.9182    1.0000 </r>
       <r>    6.9182    1.0000 </r>
       <r>    6.9182    1.0000 </r>
       <r>    7.0687    1.0000 </r>
       <r>    7.0687    1.0000 </r>
       <r>    7.2199    1.0000 </r>
       <r>    7.5106    1.0000 </r>
       <r>    7.5106    1.0000 </r>
       <r>    8.2851    1.0000 </r>
       <r>    9.9323    1.0000 </r>
       <r>   10.6734    1.0000 </r>
       <r>   10.6734    1.0000 </r>
       <r>   10.6735    1.0000 </r>
       <r>   10.6735    1.0000 </r>
       <r>   10.7559    1.0000 </r>
       <r>   10.9361    1.0000 </r>
       <r>   11.0550    1.0000 </r>
       <r>   11.0550    1.0000 </r>
       <r>   11.0550    1.0000 </r>
       <r>   11.0550    1.0000 </r>
       <r>   11.2580    1.0000 </r>
       <r>   11.2580    1.0000 </r>
       <r>   11.2898    1.0000 </r>
       <r>   11.2898    1.0000 </r>
       <r>   11.4029    1.0000 </r>
       <r>   11.5256    1.0000 </r>
       <r>   11.5256    1.0000 </r>
       <r>   11.5256    1.0000 </r>
       <r>   11.5256    1.0000 </r>
       <r>   11.5832    1.0000 </r>
       <r>   11.5832    1.0000 </r>
       <r>   11.8537    1.0000 </r>
       <r>   12.0316    1.0000 </r>
       <r>   12.2438    0.9999 </r>
       <r>   12.2438    0.9999 </r>
       <r>   12.4970    1.0257 </r>
       <r>   12.4970    1.0257 </r>
       <r>   12.4970    1.0256 </r>
       <r>   12.4970    1.0256 </r>
       <r>   13.2375    0.0000 </r>
       <r>   13.2375    0.0000 </r>
       <r>   13.2375    0.0000 </r>
       <r>   13.2375    0.0000 </r>
       <r>   13.3826    0.0000 </r>
       <r>   13.5589    0.0000 </r>
       <r>   13.6062    0.0000 </r>
       <r>   13.7131    0.0000 </r>
       <r>   13.7358    0.0000 </r>
       <r>   13.8377    0.0000 </r>
       <r>   14.2205    0.0000 </r>
       <r>   14.2205    0.0000 </r>
       <r>   14.2489    0.0000 </r>
       <r>   14.2489    0.0000 </r>
       <r>   14.2489    0.0000 </r>
       <r>   14.2489    0.0000 </r>
       <r>   14.5468    0.0000 </r>
       <r>   14.5468    0.0000 </r>
       <r>   14.5468    0.0000 </r>
       <r>   14.5468    0.0000 </r>
       <r>   14.7202    0.0000 </r>
       <r>   14.7787    0.0000 </r>
       <r>   14.9672    0.0000 </r>
       <r>   15.3447    0.0000 </r>
       <r>   15.4807    0.0000 </r>
       <r>   15.4807    0.0000 </r>
       <r>   16.4665    0.0000 </r>
       <r>   16.4765    0.0000 </r>
       <r>   16.6729    0.0000 </r>
      </set>
      <set comment="kpoint 3">
       <r>   -8.6144    1.0000 </r>
       <r>   -8.1203    1.0000 </r>
       <r>   -7.3134    1.0000 </r>
       <r>   -7.3134    1.0000 </r>
       <r>   -7.3134    1.0000 </r>
       <r>   -7.3134    1.0000 </r>
       <r>   -6.9648    1.0000 </r>
       <r>   -6.9344    1.0000 </r>
       <r>   -6.9344    1.0000 </r>
       <r>   -6.9344    1.0000 </r>
       <r>   -6.9344    1.0000 </r>
       <r>   -6.8118    1.0000 </r>
       <r>   -6.7259    1.0000 </r>
       <r>   -6.5846    1.0000 </r>
       <r>   -6.2853    1.0000 </r>
       <r>   -5.5951    1.0000 </r>
       <r>   -5.4539    1.0000 </r>
       <r>   -5.4539    1.0000 </r>
       <r>   -5.3922    1.0000 </r>
       <r>   -5.3922    1.0000 </r>
       <r>   -5.3922    1.0000 </r>
       <r>   -5.3922    1.0000 </r>
       <r>   -5.3581    1.0000 </r>
       <r>   -5.3581    1.0000 </r>
       <r>    0.2937    1.0000 </r>
       <r>    0.3291    1.0000 </r>
       <r>    0.3291    1.0000 </r>
       <r>    0.5777    1.0000 </r>
       <r>    0.6229    1.0000 </r>
       <r>    0.6229    1.0000 </r>
       <r>    0.8016    1.0000 </r>
       <r>    0.8016    1.0000 </r>
       <r>    0.8016    1.0000 </r>
       <r>    0.8016    1.0000 </r>
       <r>    0.9619    1.0000 </r>
       <r>    1.2460    1.0000 </r>
       <r>    1.2942    1.0000 </r>
       <r>    1.2942    1.0000 </r>
       <r>    1.2942    1.0000 </r>
       <r>    1.2942    1.0000 </r>
       <r>    1.3271    1.0000 </r>
       <r>    1.3610    1.0000 </r>
       <r>    2.4494    1.0000 </r>
       <r>    2.4494    1.0000 </r>
       <r>    2.4908    1.0000 </r>
       <r>    2.4908    1.0000 </r>
       <r>    2.4908    1.0000 </r>
       <r>    2.4908    1.0000 </r>
       <r>    2.6074    1.0000 </r>
       <r>    2.9238    1.0000 </r>
       <r>    2.9238    1.0000 </r>
       <r>    2.9238    1.0000 </r>
       <r>    2.9238    1.0000 </r>
       <r>    3.0686    1.0000 </r>
       <r>    3.1363    1.0000 </r>
       <r>    3.1363    1.0000 </r>
       <r>    3.1444    1.0000 </r>
       <r>    3.7330    1.0000 </r>
       <r>    3.7330    1.0000 </r>
       <r>    3.7330    1.0000 </r>
       <r>    3.7330    1.0000 </r>
       <r>    3.7794    1.0000 </r>
       <r>    4.0418    1.0000 </r>
       <r>    4.0418    1.0000 </r>
       <r>    4.0495    1.0000 </r>
       <r>    4.5282    1.0000 </r>
       <r>    4.5282    1.0000 </r>
       <r>    4.5634    1.0000 </r>
       <r>    4.5634    1.0000 </r>
       <r>    4.5634    1.0000 </r>
       <r>    4.5634    1.0000 </r>
       <r>    4.7427    1.0000 </r>
       <r>    4.9605    1.0000 </r>
       <r>    4.9605    1.0000 </r>
       <r>    4.9605    1.0000 </r>
       <r>    4.9605    1.0000 </r>
       <r>    4.9986    1.0000 </r>
       <r>    5.1149    1.0000 </r>
       <r>    5.2030    1.0000 </r>
       <r>    5.2030    1.0000 </r>
       <r>    5.2030    1.0000 </r>
       <r>    5.2030    1.0000 </r>
       <r>    5.4719    1.0000 </r>
       <r>    5.4719    1.0000 </r>
       <r>    5.9276    1.0000 </r>
       <r>    5.9779    1.0000 </r>
       <r>    5.9779    1.0000 </r>
       <r>    6.6057    1.0000 </r>
       <r>    6.6057    1.0000 </r>
       <r>    6.6057    1.0000 </r>
       <r>    6.6057    1.0000 </r>
       <r>    6.6166    1.0000 </r>
       <r>    7.1332    1.0000 </r>
       <r>    7.1332    1.0000 </r>
       <r>    7.3798    1.0000 </r>
       <r>    7.3798    1.0000 </r>
       <r>    8.9083    1.0000 </r>
       <r>    9.5680    1.0000 </r>
       <r>   10.2534    1.0000 </r>
       <r>   10.3701    1.0000 </r>
       <r>   10.6390    1.0000 </r>
       <r>   10.6390    1.0000 </r>
       <r>   10.6390    1.0000 </r>
       <r>   10.6390    1.0000 </r>
       <r>   10.9104    1.0000 </r>
       <r>   10.9104    1.0000 </r>
       <r>   10.9104    1.0000 </r>
       <r>   10.9104    1.0000 </r>
       <r>   11.3050    1.0000 </r>
       <r>   11.3050    1.0000 </r>
       <r>   11.4012    1.0000 </r>
       <r>   11.4411    1.0000 </r>
       <r>   11.4411    1.0000 </r>
       <r>   11.4411    1.0000 </r>
       <r>   11.4411    1.0000 </r>
       <r>   11.4790    1.0000 </r>
       <r>   11.4790    1.0000 </r>
       <r>   11.7998    1.0000 </r>
       <r>   11.8498    1.0000 </r>
       <r>   11.8498    1.0000 </r>
       <r>   12.5425    0.7640 </r>
       <r>   12.5425    0.7640 </r>
       <r>   12.5425    0.7639 </r>
       <r>   12.5425    0.7639 </r>
       <r>   12.6101    0.1159 </r>
       <r>   12.6101    0.1159 </r>
       <r>   12.8906    0.0001 </r>
       <r>   13.3518    0.0000 </r>
       <r>   13.3518    0.0000 </r>
       <r>   13.3518    0.0000 </r>
       <r>   13.3518    0.0000 </r>
       <r>   13.3949    0.0000 </r>
       <r>   13.5374    0.0000 </r>
       <r>   13.7176    0.0000 </r>
       <r>   13.7645    0.0000 </r>
       <r>   13.8189    0.0000 </r>
       <r>   14.0082    0.0000 </r>
       <r>   14.0082    0.0000 </r>
       <r>   14.0483    0.0000 </r>
       <r>   14.3082    0.0000 </r>
       <r>   14.3082    0.0000 </r>
       <r>   14.3083    0.0000 </r>
       <r>   14.3083    0.0000 </r>
       <r>   14.3884    0.0000 </r>
       <r>   14.8563    0.0000 </r>
       <r>   14.9152    0.0000 </r>
       <r>   14.9152    0.0000 </r>
       <r>   14.9152    0.0000 </r>
       <r>   14.9153    0.0000 </r>
       <r>   15.1133    0.0000 </r>
       <r>   15.1192    0.0000 </r>
       <r>   15.1192    0.0000 </r>
       <r>   15.3896    0.0000 </r>
       <r>   15.9208    0.0000 </r>
       <r>   15.9219    0.0000 </r>
       <r>   16.2846    0.0000 </r>
      </set>
      <set comment="kpoint 4">
       <r>   -8.4039    1.0000 </r>
       <r>   -8.4039    1.0000 </r>
       <r>   -7.2526    1.0000 </r>
       <r>   -7.2526    1.0000 </r>
       <r>   -7.2526    1.0000 </r>
       <r>   -7.2526    1.0000 </r>
       <r>   -7.0191    1.0000 </r>
       <r>   -7.0191    1.0000 </r>
       <r>   -7.0191    1.0000 </r>
       <r>   -7.0191    1.0000 </r>
       <r>   -6.8783    1.0000 </r>
       <r>   -6.8783    1.0000 </r>
       <r>   -6.6578    1.0000 </r>
       <r>   -6.6578    1.0000 </r>
       <r>   -5.9144    1.0000 </r>
       <r>   -5.9144    1.0000 </r>
       <r>   -5.4068    1.0000 </r>
       <r>   -5.4068    1.0000 </r>
       <r>   -5.4068    1.0000 </r>
       <r>   -5.4068    1.0000 </r>
       <r>   -5.3592    1.0000 </r>
       <r>   -5.3592    1.0000 </r>
       <r>   -5.3592    1.0000 </r>
       <r>   -5.3592    1.0000 </r>
       <r>    0.4585    1.0000 </r>
       <r>    0.4585    1.0000 </r>
       <r>    0.4585    1.0000 </r>
       <r>    0.4585    1.0000 </r>
       <r>    0.7260    1.0000 </r>
       <r>    0.7260    1.0000 </r>
       <r>    0.7869    1.0000 </r>
       <r>    0.7869    1.0000 </r>
       <r>    0.7869    1.0000 </r>
       <r>    0.7869    1.0000 </r>
       <r>    0.9541    1.0000 </r>
       <r>    0.9541    1.0000 </r>
       <r>    1.0499    1.0000 </r>
       <r>    1.0499    1.0000 </r>
       <r>    1.2911    1.0000 </r>
       <r>    1.2911    1.0000 </r>
       <r>    1.2911    1.0000 </r>
       <r>    1.2911    1.0000 </r>
       <r>    2.4660    1.0000 </r>
       <r>    2.4660    1.0000 </r>
       <r>    2.4660    1.0000 </r>
       <r>    2.4660    1.0000 </r>
       <r>    2.8024    1.0000 </r>
       <r>    2.8024    1.0000 </r>
       <r>    2.8024    1.0000 </r>
       <r>    2.8024    1.0000 </r>
       <r>    2.8332    1.0000 </r>
       <r>    2.8332    1.0000 </r>
       <r>    2.8815    1.0000 </r>
       <r>    2.8815    1.0000 </r>
       <r>    2.8815    1.0000 </r>
       <r>    2.8815    1.0000 </r>
       <r>    3.5109    1.0000 </r>
       <r>    3.5109    1.0000 </r>
       <r>    3.6521    1.0000 </r>
       <r>    3.6521    1.0000 </r>
       <r>    3.6521    1.0000 </r>
       <r>    3.6521    1.0000 </r>
       <r>    4.2741    1.0000 </r>
       <r>    4.2741    1.0000 </r>
       <r>    4.2741    1.0000 </r>
       <r>    4.2741    1.0000 </r>
       <r>    4.4339    1.0000 </r>
       <r>    4.4339    1.0000 </r>
[...]
       <r>   14.8662    0.0000 </r>
       <r>   14.8678    0.0000 </r>
       <r>   14.9422    0.0000 </r>
       <r>   14.9424    0.0000 </r>
       <r>   14.9429    0.0000 </r>
       <r>   14.9436    0.0000 </r>
       <r>   14.9450    0.0000 </r>
       <r>   14.9454    0.0000 </r>
       <r>   14.9475    0.0000 </r>
       <r>   14.9607    0.0000 </r>
       <r>   15.2570    0.0000 </r>
       <r>   15.2596    0.0000 </r>
       <r>   15.2603    0.0000 </r>
       <r>   15.2609    0.0000 </r>
      </set>
     </set>
    </set>
   </array>
  </eigenvalues>
  <separator name="orbital magnetization" >
   <v name="MAGDIPOLOUT">      0.00000000      0.00000000      0.00000000</v>
  </separator>
  <dos>
   <i name="efermi">     12.56883051 </i>
   <total>
    <array>
     <dimension dim="1">gridpoints</dimension>
     <dimension dim="2">spin</dimension>
     <field>energy</field>
     <field>total</field>
     <field>integrated</field>
     <set>
      <set comment="spin 1">
       <r>   -10.0704     0.0000     0.0000 </r>
       <r>    -9.9763     0.0000     0.0000 </r>
       <r>    -9.8823     0.0000     0.0000 </r>
       <r>    -9.7882     0.0000     0.0000 </r>
       <r>    -9.6941     0.0000     0.0000 </r>
       <r>    -9.6000     0.0000     0.0000 </r>
       <r>    -9.5060     0.0000     0.0000 </r>
       <r>    -9.4119     0.0000     0.0000 </r>
       <r>    -9.3178     0.0000     0.0000 </r>
       <r>    -9.2237     0.0000     0.0000 </r>
       <r>    -9.1297     0.0000     0.0000 </r>
       <r>    -9.0356     0.0005     0.0001 </r>
       <r>    -8.9415     0.0052     0.0005 </r>
       <r>    -8.8474    -0.0417    -0.0034 </r>
       <r>    -8.7534     0.3717     0.0316 </r>
       <r>    -8.6593     1.6875     0.1903 </r>
       <r>    -8.5652     2.9376     0.4667 </r>
       <r>    -8.4711     3.2240     0.7700 </r>
       <r>    -8.3771     4.1079     1.1564 </r>
       <r>    -8.2830     4.9028     1.6177 </r>
       <r>    -8.1889     5.4573     2.1311 </r>
       <r>    -8.0948     4.5072     2.5551 </r>
       <r>    -8.0008     7.7378     3.2830 </r>
       <r>    -7.9067     7.6678     4.0044 </r>
       <r>    -7.8126     4.8580     4.4614 </r>
       <r>    -7.7185     9.8942     5.3922 </r>
       <r>    -7.6245    10.0600     6.3386 </r>
       <r>    -7.5304     8.0127     7.0924 </r>
       <r>    -7.4363    11.3452     8.1597 </r>
       <r>    -7.3422    12.8480     9.3683 </r>
       <r>    -7.2482    14.0204    10.6873 </r>
       <r>    -7.1541    16.0020    12.1927 </r>
       <r>    -7.0600    17.8996    13.8766 </r>
       <r>    -6.9659    21.7138    15.9193 </r>
       <r>    -6.8719    28.8763    18.6359 </r>
       <r>    -6.7778    31.5213    21.6013 </r>
       <r>    -6.6837    25.3153    23.9828 </r>
       <r>    -6.5896    16.4295    25.5284 </r>
       <r>    -6.4955     8.8613    26.3620 </r>
       <r>    -6.4015     4.1283    26.7504 </r>
       <r>    -6.3074    12.2360    27.9015 </r>
       <r>    -6.2133     7.5448    28.6113 </r>
       <r>    -6.1192     5.1185    29.0928 </r>
       <r>    -6.0252     6.5752    29.7114 </r>
       <r>    -5.9311    10.4396    30.6935 </r>
       <r>    -5.8370     3.4112    31.0144 </r>
       <r>    -5.7429     2.8647    31.2839 </r>
       <r>    -5.6489     3.7394    31.6357 </r>
       <r>    -5.5548     0.2748    31.6615 </r>
       <r>    -5.4607    10.8195    32.6794 </r>
       <r>    -5.3666    84.1210    40.5931 </r>
       <r>    -5.2726    77.7816    47.9104 </r>
       <r>    -5.1785     1.5353    48.0548 </r>
       <r>    -5.0844    -0.7848    47.9810 </r>
       <r>    -4.9903     0.1974    47.9996 </r>
       <r>    -4.8963     0.0046    48.0000 </r>
       <r>    -4.8022     0.0000    48.0000 </r>
       <r>    -4.7081     0.0000    48.0000 </r>
       <r>    -4.6140     0.0000    48.0000 </r>
       <r>    -4.5200     0.0000    48.0000 </r>
       <r>    -4.4259     0.0000    48.0000 </r>
       <r>    -4.3318     0.0000    48.0000 </r>
       <r>    -4.2377     0.0000    48.0000 </r>
       <r>    -4.1437     0.0000    48.0000 </r>
       <r>    -4.0496     0.0000    48.0000 </r>
       <r>    -3.9555     0.0000    48.0000 </r>
       <r>    -3.8614     0.0000    48.0000 </r>
       <r>    -3.7674     0.0000    48.0000 </r>
       <r>    -3.6733     0.0000    48.0000 </r>
       <r>    -3.5792     0.0000    48.0000 </r>
       <r>    -3.4851     0.0000    48.0000 </r>
       <r>    -3.3911     0.0000    48.0000 </r>
       <r>    -3.2970     0.0000    48.0000 </r>
       <r>    -3.2029     0.0000    48.0000 </r>
       <r>    -3.1088     0.0000    48.0000 </r>
       <r>    -3.0148     0.0000    48.0000 </r>
       <r>    -2.9207     0.0000    48.0000 </r>
       <r>    -2.8266     0.0000    48.0000 </r>
       <r>    -2.7325     0.0000    48.0000 </r>
       <r>    -2.6385     0.0000    48.0000 </r>
       <r>    -2.5444     0.0000    48.0000 </r>
       <r>    -2.4503     0.0000    48.0000 </r>
       <r>    -2.3562     0.0000    48.0000 </r>
       <r>    -2.2622     0.0000    48.0000 </r>
       <r>    -2.1681     0.0000    48.0000 </r>
       <r>    -2.0740     0.0000    48.0000 </r>
       <r>    -1.9799     0.0000    48.0000 </r>
       <r>    -1.8859     0.0000    48.0000 </r>
       <r>    -1.7918     0.0000    48.0000 </r>
       <r>    -1.6977     0.0000    48.0000 </r>
       <r>    -1.6036     0.0000    48.0000 </r>
       <r>    -1.5096     0.0000    48.0000 </r>
       <r>    -1.4155     0.0000    48.0000 </r>
       <r>    -1.3214     0.0000    48.0000 </r>
       <r>    -1.2273     0.0000    48.0000 </r>
       <r>    -1.1333     0.0000    48.0000 </r>
       <r>    -1.0392     0.0000    48.0000 </r>
       <r>    -0.9451     0.0000    48.0000 </r>
       <r>    -0.8510     0.0000    48.0000 </r>
       <r>    -0.7570     0.0000    48.0000 </r>
       <r>    -0.6629     0.0000    48.0000 </r>
       <r>    -0.5688     0.0000    48.0000 </r>
       <r>    -0.4747     0.0000    48.0000 </r>
       <r>    -0.3807     0.0001    48.0000 </r>
       <r>    -0.2866     0.0009    48.0001 </r>
       <r>    -0.1925     0.0057    48.0006 </r>
       <r>    -0.0984    -0.0091    47.9998 </r>
       <r>    -0.0044     0.4099    48.0383 </r>
       <r>     0.0897     3.5089    48.3684 </r>
       <r>     0.1838     8.0073    49.1217 </r>
       <r>     0.2779    10.5363    50.1129 </r>
       <r>     0.3719    25.2291    52.4863 </r>
       <r>     0.4660    29.3694    55.2493 </r>
       <r>     0.5601    31.7951    58.2404 </r>
       <r>     0.6542    34.2066    61.4584 </r>
       <r>     0.7482    25.8486    63.8901 </r>
       <r>     0.8423    27.6516    66.4914 </r>
       <r>     0.9364    23.1492    68.6692 </r>
       <r>     1.0305    26.7709    71.1877 </r>
       <r>     1.1245    17.1021    72.7966 </r>
       <r>     1.2186    12.8259    74.0032 </r>
       <r>     1.3127    23.0758    76.1740 </r>
       <r>     1.4068    17.0105    77.7743 </r>
       <r>     1.5008    20.3466    79.6884 </r>
       <r>     1.5949    16.7839    81.2673 </r>
       <r>     1.6890    13.8431    82.5696 </r>
       <r>     1.7831     4.8938    83.0300 </r>
       <r>     1.8771     4.1119    83.4169 </r>
       <r>     1.9712    15.8424    84.9072 </r>
       <r>     2.0653    18.0107    86.6016 </r>
       <r>     2.1594    10.1446    87.5559 </r>
       <r>     2.2534    15.8165    89.0439 </r>
       <r>     2.3475    25.8982    91.4803 </r>
       <r>     2.4416    17.4797    93.1247 </r>
       <r>     2.5357    21.3094    95.1294 </r>
       <r>     2.6297    26.2729    97.6010 </r>
       <r>     2.7238    17.4593    99.2435 </r>
       <r>     2.8179    18.2087   100.9565 </r>
       <r>     2.9120    18.9684   102.7409 </r>
       <r>     3.0060     9.4594   103.6308 </r>
       <r>     3.1001    10.8905   104.6553 </r>
       <r>     3.1942    18.4468   106.3907 </r>
       <r>     3.2883    15.5645   107.8549 </r>
       <r>     3.3823    12.8585   109.0646 </r>
       <r>     3.4764    17.0521   110.6688 </r>
       <r>     3.5705    10.2874   111.6366 </r>
       <r>     3.6646    12.9796   112.8576 </r>
       <r>     3.7586    27.8665   115.4792 </r>
       <r>     3.8527    31.9798   118.4877 </r>
       <r>     3.9468    24.5180   120.7942 </r>
       <r>     4.0409    32.4263   123.8447 </r>
       <r>     4.1349    38.7084   127.4862 </r>
       <r>     4.2290    16.6394   129.0516 </r>
       <r>     4.3231    32.1294   132.0741 </r>
       <r>     4.4172    22.6789   134.2077 </r>
       <r>     4.5112    34.1102   137.4166 </r>
       <r>     4.6053    35.5822   140.7640 </r>
       <r>     4.6994    25.5416   143.1668 </r>
       <r>     4.7935    27.8438   145.7862 </r>
       <r>     4.8875    24.9812   148.1363 </r>
       <r>     4.9816    24.1418   150.4075 </r>
       <r>     5.0757    30.4348   153.2706 </r>
       <r>     5.1698    39.5677   156.9930 </r>
       <r>     5.2638    40.6952   160.8214 </r>
       <r>     5.3579    23.1816   163.0022 </r>
       <r>     5.4520    15.0176   164.4150 </r>
       <r>     5.5461     9.1351   165.2744 </r>
       <r>     5.6401    25.2571   167.6504 </r>
       <r>     5.7342    13.8337   168.9518 </r>
       <r>     5.8283     6.1661   169.5319 </r>
       <r>     5.9224    15.5651   170.9962 </r>
       <r>     6.0164     8.5957   171.8049 </r>
       <r>     6.1105    11.2588   172.8640 </r>
       <r>     6.2046    11.8587   173.9796 </r>
       <r>     6.2987    13.6969   175.2682 </r>
       <r>     6.3927    11.4257   176.3430 </r>
       <r>     6.4868     9.9557   177.2796 </r>
       <r>     6.5809     4.3189   177.6859 </r>
       <r>     6.6750    13.5542   178.9610 </r>
       <r>     6.7690    12.3979   180.1274 </r>
       <r>     6.8631     8.5215   180.9290 </r>
       <r>     6.9572    16.8618   182.5153 </r>
       <r>     7.0513    26.7251   185.0295 </r>
       <r>     7.1453    26.1460   187.4892 </r>
       <r>     7.2394    22.6442   189.6194 </r>
       <r>     7.3335    11.4114   190.6930 </r>
       <r>     7.4276     8.9772   191.5375 </r>
       <r>     7.5216     3.7574   191.8910 </r>
       <r>     7.6157     1.2474   192.0083 </r>
       <r>     7.7098    -0.0998   191.9989 </r>
       <r>     7.8039     0.0044   191.9993 </r>
       <r>     7.8979     0.0496   192.0040 </r>
       <r>     7.9920     0.0609   192.0097 </r>
       <r>     8.0861    -0.0025   192.0095 </r>
       <r>     8.1802    -0.0317   192.0065 </r>
       <r>     8.2742     0.2594   192.0309 </r>
       <r>     8.3683     0.3822   192.0669 </r>
       <r>     8.4624    -0.0371   192.0634 </r>
       <r>     8.5565     0.9271   192.1506 </r>
       <r>     8.6505     0.2790   192.1769 </r>
       <r>     8.7446     0.4463   192.2188 </r>
       <r>     8.8387     0.5693   192.2724 </r>
       <r>     8.9328     0.4936   192.3188 </r>
       <r>     9.0268     2.0434   192.5111 </r>
       <r>     9.1209     4.0792   192.8948 </r>
       <r>     9.2150     2.9641   193.1737 </r>
       <r>     9.3091     5.6965   193.7096 </r>
       <r>     9.4031     4.8088   194.1620 </r>
       <r>     9.4972     4.8630   194.6194 </r>
       <r>     9.5913    14.4918   195.9828 </r>
       <r>     9.6854    12.4744   197.1563 </r>
       <r>     9.7794     9.2070   198.0224 </r>
       <r>     9.8735     4.8780   198.4813 </r>
       <r>     9.9676     7.3147   199.1695 </r>
       <r>    10.0617    12.5909   200.3540 </r>
       <r>    10.1557     7.8506   201.0925 </r>
       <r>    10.2498     6.9406   201.7454 </r>
       <r>    10.3439    18.4445   203.4806 </r>
       <r>    10.4380    17.8573   205.1605 </r>
       <r>    10.5320     4.3132   205.5663 </r>
       <r>    10.6261     6.5867   206.1859 </r>
       <r>    10.7202    23.9300   208.4372 </r>
       <r>    10.8143    24.7481   210.7653 </r>
       <r>    10.9083    21.8090   212.8170 </r>
       <r>    11.0024    27.6039   215.4139 </r>
       <r>    11.0965    28.9422   218.1366 </r>
       <r>    11.1906    20.7631   220.0899 </r>
       <r>    11.2847    17.0637   221.6952 </r>
       <r>    11.3787    21.3820   223.7067 </r>
       <r>    11.4728    15.1531   225.1322 </r>
       <r>    11.5669     6.2053   225.7160 </r>
       <r>    11.6610     7.6518   226.4358 </r>
       <r>    11.7550    16.2226   227.9620 </r>
       <r>    11.8491    20.2626   229.8682 </r>
       <r>    11.9432    16.6005   231.4299 </r>
       <r>    12.0373    19.8518   233.2974 </r>
       <r>    12.1313    12.7499   234.4969 </r>
       <r>    12.2254    28.6680   237.1938 </r>
       <r>    12.3195    32.3017   240.2326 </r>
       <r>    12.4136    30.7468   243.1251 </r>
       <r>    12.5076    36.9104   246.5975 </r>
       <r>    12.6017    18.0012   248.2910 </r>
       <r>    12.6958     4.1535   248.6817 </r>
       <r>    12.7899     5.8445   249.2315 </r>
       <r>    12.8839    13.9097   250.5401 </r>
       <r>    12.9780     7.4323   251.2393 </r>
       <r>    13.0721     8.1152   252.0027 </r>
       <r>    13.1662    19.6433   253.8506 </r>
       <r>    13.2602    28.4233   256.5246 </r>
       <r>    13.3543    18.9113   258.3037 </r>
       <r>    13.4484    23.8463   260.5470 </r>
       <r>    13.5425    24.3054   262.8335 </r>
       <r>    13.6365    21.6990   264.8749 </r>
       <r>    13.7306    25.4892   267.2728 </r>
       <r>    13.8247    28.7250   269.9751 </r>
       <r>    13.9188    15.4248   271.4262 </r>
       <r>    14.0128    13.6376   272.7091 </r>
       <r>    14.1069    33.1194   275.8248 </r>
       <r>    14.2010    20.6869   277.7710 </r>
       <r>    14.2951    31.5465   280.7387 </r>
       <r>    14.3891    34.0287   283.9400 </r>
       <r>    14.4832    24.1168   286.2088 </r>
       <r>    14.5773    20.3741   288.1254 </r>
       <r>    14.6714    16.5651   289.6838 </r>
       <r>    14.7654    22.2034   291.7726 </r>
       <r>    14.8595    23.2781   293.9625 </r>
       <r>    14.9536    19.8210   295.8272 </r>
       <r>    15.0477    17.5336   297.4766 </r>
       <r>    15.1417    20.0846   299.3661 </r>
       <r>    15.2358    24.2915   301.6513 </r>
       <r>    15.3299    21.3499   303.6598 </r>
       <r>    15.4240    18.7504   305.4238 </r>
       <r>    15.5180    17.2894   307.0503 </r>
       <r>    15.6121    10.5393   308.0417 </r>
       <r>    15.7062     8.7110   308.8612 </r>
       <r>    15.8003     6.4097   309.4642 </r>
       <r>    15.8943     8.5417   310.2678 </r>
       <r>    15.9884     8.7664   311.0925 </r>
       <r>    16.0825     1.2256   311.2078 </r>
       <r>    16.1766     0.4047   311.2459 </r>
       <r>    16.2706     1.4208   311.3795 </r>
       <r>    16.3647     1.5141   311.5220 </r>
       <r>    16.4588     3.2169   311.8246 </r>
       <r>    16.5529     1.1368   311.9316 </r>
       <r>    16.6469     0.0743   311.9385 </r>
       <r>    16.7410     0.4566   311.9815 </r>
       <r>    16.8351     0.0478   311.9860 </r>
       <r>    16.9292     0.1496   312.0001 </r>
       <r>    17.0232     0.0000   312.0001 </r>
       <r>    17.1173    -0.0012   312.0000 </r>
       <r>    17.2114     0.0003   312.0000 </r>
       <r>    17.3055     0.0000   312.0000 </r>
       <r>    17.3995     0.0000   312.0000 </r>
       <r>    17.4936     0.0000   312.0000 </r>
       <r>    17.5877     0.0000   312.0000 </r>
       <r>    17.6818     0.0000   312.0000 </r>
       <r>    17.7758     0.0000   312.0000 </r>
       <r>    17.8699     0.0000   312.0000 </r>
       <r>    17.9640     0.0000   312.0000 </r>
       <r>    18.0581     0.0000   312.0000 </r>
       <r>    18.1521     0.0000   312.0000 </r>
      </set>
     </set>
    </array>
   </total>
  </dos>
 </calculation>
 <structure name="finalpos" >
  <crystal>
   <varray name="basis" >
    <v>       8.07010921       0.00000000       0.00000000 </v>
    <v>       0.00000000       8.07010921       0.00000000 </v>
    <v>       0.00000000       0.00000000       8.07010921 </v>
   </varray>
   <i name="volume">    525.57928060 </i>
   <varray name="rec_basis" >
    <v>       0.12391406      -0.00000000       0.00000000 </v>
    <v>      -0.00000000       0.12391406       0.00000000 </v>
    <v>      -0.00000000      -0.00000000       0.12391406 </v>
   </varray>
  </crystal>
  <varray name="positions" >
   <v>       0.87500000       0.87500000       0.12500000 </v>
   <v>       0.37500000       0.12500000       0.37500000 </v>
   <v>       0.62500000       0.87500000       0.37500000 </v>
   <v>       0.12500000       0.12500000       0.12500000 </v>
   <v>       0.25000000       0.75000000       0.25000000 </v>
   <v>      -0.00000000      -0.00000000       0.50000000 </v>
   <v>       0.87500000       0.37500000       0.62500000 </v>
   <v>       0.37500000       0.62500000       0.87500000 </v>
   <v>       0.62500000       0.37500000       0.87500000 </v>
   <v>       0.12500000       0.62500000       0.62500000 </v>
   <v>       0.25000000       0.25000000       0.75000000 </v>
   <v>      -0.00000000       0.50000000       0.00000000 </v>
   <v>       0.37500000       0.87500000       0.62500000 </v>
   <v>       0.87500000       0.12500000       0.87500000 </v>
   <v>       0.12500000       0.87500000       0.87500000 </v>
   <v>       0.62500000       0.12500000       0.62500000 </v>
   <v>       0.75000000       0.75000000       0.75000000 </v>
   <v>       0.50000000      -0.00000000       0.00000000 </v>
   <v>       0.37500000       0.37500000       0.12500000 </v>
   <v>       0.87500000       0.62500000       0.37500000 </v>
   <v>       0.12500000       0.37500000       0.37500000 </v>
   <v>       0.62500000       0.62500000       0.12500000 </v>
   <v>       0.75000000       0.25000000       0.25000000 </v>
   <v>       0.50000000       0.50000000       0.50000000 </v>
   <v>       0.37659858       0.37659858       0.37659858 </v>
   <v>       0.87340142       0.12659858       0.12659858 </v>
   <v>       0.62659858       0.12659858       0.37340142 </v>
   <v>       0.12659858       0.87340142       0.12659858 </v>
   <v>       0.12340142       0.12340142       0.37659858 </v>
   <v>       0.12340142       0.37659858       0.12340142 </v>
   <v>       0.37340142       0.87340142       0.37340142 </v>
   <v>       0.37659858       0.12340142       0.12340142 </v>
   <v>       0.37659858       0.87659858       0.87659858 </v>
   <v>       0.87340142       0.62659858       0.62659858 </v>
   <v>       0.62659858       0.62659858       0.87340142 </v>
   <v>       0.12659858       0.37340142       0.62659858 </v>
   <v>       0.12340142       0.62340142       0.87659858 </v>
   <v>       0.12340142       0.87659858       0.62340142 </v>
   <v>       0.37340142       0.37340142       0.87340142 </v>
   <v>       0.37659858       0.62340142       0.62340142 </v>
   <v>       0.87659858       0.37659858       0.87659858 </v>
   <v>       0.37340142       0.12659858       0.62659858 </v>
   <v>       0.12659858       0.12659858       0.87340142 </v>
   <v>       0.62659858       0.87340142       0.62659858 </v>
   <v>       0.62340142       0.12340142       0.87659858 </v>
   <v>       0.62340142       0.37659858       0.62340142 </v>
   <v>       0.87340142       0.87340142       0.87340142 </v>
   <v>       0.87659858       0.12340142       0.62340142 </v>
   <v>       0.87659858       0.87659858       0.37659858 </v>
   <v>       0.37340142       0.62659858       0.12659858 </v>
   <v>       0.12659858       0.62659858       0.37340142 </v>
   <v>       0.62659858       0.37340142       0.12659858 </v>
   <v>       0.62340142       0.62340142       0.37659858 </v>
   <v>       0.62340142       0.87659858       0.12340142 </v>
   <v>       0.87340142       0.37340142       0.37340142 </v>
   <v>       0.87659858       0.62340142       0.12340142 </v>
  </varray>
 </structure>
</modeling>
