unknown system                          
           1
     8.070109    0.000000    0.000000
     0.000000    8.070109    0.000000
     0.000000    0.000000    8.070109
   Si   N 
  24  32
Direct configuration=     1
   0.87500000  0.87500000  0.12500000
   0.37500000  0.12500000  0.37500000
   0.62500000  0.87500000  0.37500000
   0.12500000  0.12500000  0.12500000
   0.25000000  0.75000000  0.25000000
   0.00000000  0.00000000  0.50000000
   0.87500000  0.37500000  0.62500000
   0.37500000  0.62500000  0.87500000
   0.62500000  0.37500000  0.87500000
   0.12500000  0.62500000  0.62500000
   0.25000000  0.25000000  0.75000000
   0.00000000  0.50000000  0.00000000
   0.37500000  0.87500000  0.62500000
   0.87500000  0.12500000  0.87500000
   0.12500000  0.87500000  0.87500000
   0.62500000  0.12500000  0.62500000
   0.75000000  0.75000000  0.75000000
   0.50000000  0.00000000  0.00000000
   0.37500000  0.37500000  0.12500000
   0.87500000  0.62500000  0.37500000
   0.12500000  0.37500000  0.37500000
   0.62500000  0.62500000  0.12500000
   0.75000000  0.25000000  0.25000000
   0.50000000  0.50000000  0.50000000
   0.37630293  0.37630293  0.37630293
   0.87369707  0.12630293  0.12630293
   0.62630293  0.12630293  0.37369707
   0.12630293  0.87369707  0.12630293
   0.12369707  0.12369707  0.37630293
   0.12369707  0.37630293  0.12369707
   0.37369707  0.87369707  0.37369707
   0.37630293  0.12369707  0.12369707
   0.37630293  0.87630293  0.87630293
   0.87369707  0.62630293  0.62630293
   0.62630293  0.62630293  0.87369707
   0.12630293  0.37369707  0.62630293
   0.12369707  0.62369707  0.87630293
   0.12369707  0.87630293  0.62369707
   0.37369707  0.37369707  0.87369707
   0.37630293  0.62369707  0.62369707
   0.87630293  0.37630293  0.87630293
   0.37369707  0.12630293  0.62630293
   0.12630293  0.12630293  0.87369707
   0.62630293  0.87369707  0.62630293
   0.62369707  0.12369707  0.87630293
   0.62369707  0.37630293  0.62369707
   0.87369707  0.87369707  0.87369707
   0.87630293  0.12369707  0.62369707
   0.87630293  0.87630293  0.37630293
   0.37369707  0.62630293  0.12630293
   0.12630293  0.62630293  0.37369707
   0.62630293  0.37369707  0.12630293
   0.62369707  0.62369707  0.37630293
   0.62369707  0.87630293  0.12369707
   0.87369707  0.37369707  0.37369707
   0.87630293  0.62369707  0.12369707
Direct configuration=     2
   0.87500000  0.87500000  0.12500000
   0.37500000  0.12500000  0.37500000
   0.62500000  0.87500000  0.37500000
   0.12500000  0.12500000  0.12500000
   0.25000000  0.75000000  0.25000000
  -0.00000000 -0.00000000  0.50000000
   0.87500000  0.37500000  0.62500000
   0.37500000  0.62500000  0.87500000
   0.62500000  0.37500000  0.87500000
   0.12500000  0.62500000  0.62500000
   0.25000000  0.25000000  0.75000000
  -0.00000000  0.50000000  0.00000000
   0.37500000  0.87500000  0.62500000
   0.87500000  0.12500000  0.87500000
   0.12500000  0.87500000  0.87500000
   0.62500000  0.12500000  0.62500000
   0.75000000  0.75000000  0.75000000
   0.50000000 -0.00000000  0.00000000
   0.37500000  0.37500000  0.12500000
   0.87500000  0.62500000  0.37500000
   0.12500000  0.37500000  0.37500000
   0.62500000  0.62500000  0.12500000
   0.75000000  0.25000000  0.25000000
   0.50000000  0.50000000  0.50000000
   0.37705284  0.37705284  0.37705284
   0.87294716  0.12705284  0.12705284
   0.62705284  0.12705284  0.37294716
   0.12705284  0.87294716  0.12705284
   0.12294716  0.12294716  0.37705284
   0.12294716  0.37705284  0.12294716
   0.37294716  0.87294716  0.37294716
   0.37705284  0.12294716  0.12294716
   0.37705284  0.87705284  0.87705284
   0.87294716  0.62705284  0.62705284
   0.62705284  0.62705284  0.87294716
   0.12705284  0.37294716  0.62705284
   0.12294716  0.62294716  0.87705284
   0.12294716  0.87705284  0.62294716
   0.37294716  0.37294716  0.87294716
   0.37705284  0.62294716  0.62294716
   0.87705284  0.37705284  0.87705284
   0.37294716  0.12705284  0.62705284
   0.12705284  0.12705284  0.87294716
   0.62705284  0.87294716  0.62705284
   0.62294716  0.12294716  0.87705284
   0.62294716  0.37705284  0.62294716
   0.87294716  0.87294716  0.87294716
   0.87705284  0.12294716  0.62294716
   0.87705284  0.87705284  0.37705284
   0.37294716  0.62705284  0.12705284
   0.12705284  0.62705284  0.37294716
   0.62705284  0.37294716  0.12705284
   0.62294716  0.62294716  0.37705284
   0.62294716  0.87705284  0.12294716
   0.87294716  0.37294716  0.37294716
   0.87705284  0.62294716  0.12294716
Direct configuration=     3
   0.87500000  0.87500000  0.12500000
   0.37500000  0.12500000  0.37500000
   0.62500000  0.87500000  0.37500000
   0.12500000  0.12500000  0.12500000
   0.25000000  0.75000000  0.25000000
  -0.00000000 -0.00000000  0.50000000
   0.87500000  0.37500000  0.62500000
   0.37500000  0.62500000  0.87500000
   0.62500000  0.37500000  0.87500000
   0.12500000  0.62500000  0.62500000
   0.25000000  0.25000000  0.75000000
  -0.00000000  0.50000000  0.00000000
   0.37500000  0.87500000  0.62500000
   0.87500000  0.12500000  0.87500000
   0.12500000  0.87500000  0.87500000
   0.62500000  0.12500000  0.62500000
   0.75000000  0.75000000  0.75000000
   0.50000000 -0.00000000  0.00000000
   0.37500000  0.37500000  0.12500000
   0.87500000  0.62500000  0.37500000
   0.12500000  0.37500000  0.37500000
   0.62500000  0.62500000  0.12500000
   0.75000000  0.25000000  0.25000000
   0.50000000  0.50000000  0.50000000
   0.37659858  0.37659858  0.37659858
   0.87340142  0.12659858  0.12659858
   0.62659858  0.12659858  0.37340142
   0.12659858  0.87340142  0.12659858
   0.12340142  0.12340142  0.37659858
   0.12340142  0.37659858  0.12340142
   0.37340142  0.87340142  0.37340142
   0.37659858  0.12340142  0.12340142
   0.37659858  0.87659858  0.87659858
   0.87340142  0.62659858  0.62659858
   0.62659858  0.62659858  0.87340142
   0.12659858  0.37340142  0.62659858
   0.12340142  0.62340142  0.87659858
   0.12340142  0.87659858  0.62340142
   0.37340142  0.37340142  0.87340142
   0.37659858  0.62340142  0.62340142
   0.87659858  0.37659858  0.87659858
   0.37340142  0.12659858  0.62659858
   0.12659858  0.12659858  0.87340142
   0.62659858  0.87340142  0.62659858
   0.62340142  0.12340142  0.87659858
   0.62340142  0.37659858  0.62340142
   0.87340142  0.87340142  0.87340142
   0.87659858  0.12340142  0.62340142
   0.87659858  0.87659858  0.37659858
   0.37340142  0.62659858  0.12659858
   0.12659858  0.62659858  0.37340142
   0.62659858  0.37340142  0.12659858
   0.62340142  0.62340142  0.37659858
   0.62340142  0.87659858  0.12340142
   0.87340142  0.37340142  0.37340142
   0.87659858  0.62340142  0.12340142
