  14  14   0   0
  0.1098216E+02  0.7962056E-09  0.7962056E-09  0.2800495E-09  0.5000000E-15
  1.000000000000000E-004
  CAR 
 unknown system                          
     16.29610533    -11.42818050  301     10.02655715      1.00000000
    -11.428  0.0000E+00  0.0000E+00
    -11.336  0.0000E+00  0.0000E+00
    -11.243  0.0000E+00  0.0000E+00
    -11.151  0.0000E+00  0.0000E+00
    -11.059  0.9498E-36  0.8778E-37
    -10.966  0.4108E-29  0.3796E-30
    -10.874  0.3079E-23  0.2845E-24
    -10.781  0.4002E-18  0.3699E-19
    -10.689  0.8988E-14  0.8306E-15
    -10.596  0.3448E-10  0.3188E-11
    -10.504  0.2219E-07  0.2054E-08
    -10.412  0.2181E-05  0.2036E-06
    -10.319  0.1697E-04  0.1772E-05
    -10.227 -0.1355E-03 -0.1075E-04
    -10.134  0.1176E-02  0.9792E-04
    -10.042  0.5989E-02  0.6514E-03
     -9.950  0.8668E-02  0.1452E-02
     -9.857  0.1299E-01  0.2652E-02
     -9.765  0.1272E-01  0.3828E-02
     -9.672  0.1632E-01  0.5336E-02
     -9.580  0.1730E-01  0.6935E-02
     -9.487  0.1845E-01  0.8640E-02
     -9.395  0.2307E-01  0.1077E-01
     -9.303  0.2325E-01  0.1292E-01
     -9.210  0.3322E-01  0.1599E-01
     -9.118  0.3324E-01  0.1906E-01
     -9.025  0.3834E-01  0.2261E-01
     -8.933  0.2929E-01  0.2531E-01
     -8.841  0.2697E-01  0.2780E-01
     -8.748  0.2597E-01  0.3020E-01
     -8.656  0.2607E-01  0.3261E-01
     -8.563  0.3323E-01  0.3569E-01
     -8.471  0.4444E-01  0.3979E-01
     -8.379  0.4476E-01  0.4393E-01
     -8.286  0.3723E-01  0.4737E-01
     -8.194  0.5595E-01  0.5254E-01
     -8.101  0.5042E-01  0.5720E-01
     -8.009  0.5557E-01  0.6233E-01
     -7.916  0.5060E-01  0.6701E-01
     -7.824  0.4169E-01  0.7086E-01
     -7.732  0.6950E-01  0.7729E-01
     -7.639  0.7867E-01  0.8456E-01
     -7.547  0.5359E-01  0.8951E-01
     -7.454  0.6199E-01  0.9524E-01
     -7.362  0.5047E-01  0.9990E-01
     -7.270  0.5379E-01  0.1049E+00
     -7.177  0.8798E-01  0.1130E+00
     -7.085  0.4814E-01  0.1175E+00
     -6.992  0.2686E-01  0.1199E+00
     -6.900  0.8935E-03  0.1200E+00
     -6.807 -0.2813E-03  0.1200E+00
     -6.715  0.7698E-04  0.1200E+00
     -6.623  0.2810E-05  0.1200E+00
     -6.530  0.1192E-07  0.1200E+00
     -6.438  0.7659E-11  0.1200E+00
     -6.345  0.8014E-15  0.1200E+00
     -6.253  0.0000E+00  0.1200E+00
     -6.161  0.0000E+00  0.1200E+00
     -6.068  0.0000E+00  0.1200E+00
     -5.976  0.0000E+00  0.1200E+00
     -5.883  0.0000E+00  0.1200E+00
     -5.791  0.0000E+00  0.1200E+00
     -5.698  0.0000E+00  0.1200E+00
     -5.606  0.0000E+00  0.1200E+00
     -5.514  0.0000E+00  0.1200E+00
     -5.421  0.0000E+00  0.1200E+00
     -5.329  0.0000E+00  0.1200E+00
     -5.236  0.0000E+00  0.1200E+00
     -5.144  0.0000E+00  0.1200E+00
     -5.052  0.0000E+00  0.1200E+00
     -4.959  0.0000E+00  0.1200E+00
     -4.867  0.0000E+00  0.1200E+00
     -4.774  0.0000E+00  0.1200E+00
     -4.682  0.0000E+00  0.1200E+00
     -4.590  0.0000E+00  0.1200E+00
     -4.497  0.0000E+00  0.1200E+00
     -4.405  0.0000E+00  0.1200E+00
     -4.312  0.0000E+00  0.1200E+00
     -4.220  0.0000E+00  0.1200E+00
     -4.127  0.0000E+00  0.1200E+00
     -4.035  0.0000E+00  0.1200E+00
     -3.943  0.0000E+00  0.1200E+00
     -3.850  0.6055E-34  0.1200E+00
     -3.758  0.1996E-27  0.1200E+00
     -3.665  0.1138E-21  0.1200E+00
     -3.573  0.1106E-16  0.1200E+00
     -3.481  0.1798E-12  0.1200E+00
     -3.388  0.4700E-09  0.1200E+00
     -3.296  0.1846E-06  0.1200E+00
     -3.203  0.8926E-05  0.1200E+00
     -3.111 -0.8991E-05  0.1200E+00
     -3.018 -0.9444E-04  0.1200E+00
     -2.926  0.3541E-02  0.1203E+00
     -2.834  0.8707E-02  0.1211E+00
     -2.741  0.1318E-01  0.1223E+00
     -2.649  0.8085E-02  0.1231E+00
     -2.556  0.1215E-01  0.1242E+00
     -2.464  0.7758E-02  0.1249E+00
     -2.372  0.1035E-01  0.1259E+00
     -2.279  0.1130E-01  0.1269E+00
     -2.187  0.4271E-02  0.1273E+00
     -2.094  0.7942E-02  0.1281E+00
     -2.002  0.1248E-01  0.1292E+00
     -1.910  0.1826E-01  0.1309E+00
     -1.817  0.2128E-01  0.1329E+00
     -1.725  0.2400E-01  0.1351E+00
     -1.632  0.1838E-01  0.1368E+00
     -1.540  0.3457E-01  0.1400E+00
     -1.447  0.4986E-01  0.1446E+00
     -1.355  0.4841E-01  0.1491E+00
     -1.263  0.5066E-01  0.1537E+00
     -1.170  0.6774E-01  0.1600E+00
     -1.078  0.5537E-01  0.1651E+00
     -0.985  0.2510E-01  0.1674E+00
     -0.893  0.2254E-01  0.1695E+00
     -0.801  0.3738E-01  0.1730E+00
     -0.708  0.4746E-01  0.1774E+00
     -0.616  0.4567E-01  0.1816E+00
     -0.523  0.5179E-01  0.1864E+00
     -0.431  0.4761E-01  0.1908E+00
     -0.338  0.4809E-01  0.1952E+00
     -0.246  0.4637E-01  0.1995E+00
     -0.154  0.5062E-01  0.2042E+00
     -0.061  0.5179E-01  0.2090E+00
      0.031  0.4264E-01  0.2129E+00
      0.124  0.4041E-01  0.2166E+00
      0.216  0.2617E-01  0.2191E+00
      0.308  0.4299E-01  0.2230E+00
      0.401  0.2344E-01  0.2252E+00
      0.493  0.2870E-01  0.2278E+00
      0.586  0.3253E-01  0.2309E+00
      0.678  0.4530E-01  0.2350E+00
      0.771  0.6380E-01  0.2409E+00
      0.863  0.4760E-01  0.2453E+00
      0.955  0.2448E-01  0.2476E+00
      1.048  0.4197E-01  0.2515E+00
      1.140  0.3095E-01  0.2543E+00
      1.233  0.3971E-01  0.2580E+00
      1.325  0.4083E-01  0.2618E+00
      1.417  0.2691E-01  0.2643E+00
      1.510  0.4608E-01  0.2685E+00
      1.602  0.6726E-01  0.2747E+00
      1.695  0.4555E-01  0.2789E+00
      1.787  0.5917E-01  0.2844E+00
      1.879  0.8974E-01  0.2927E+00
      1.972  0.5316E-01  0.2976E+00
      2.064  0.5158E-01  0.3024E+00
      2.157  0.3608E-01  0.3057E+00
      2.249  0.3129E-01  0.3086E+00
      2.342  0.3652E-01  0.3120E+00
      2.434  0.4832E-01  0.3165E+00
      2.526  0.6602E-01  0.3226E+00
      2.619  0.6648E-01  0.3287E+00
      2.711  0.6510E-01  0.3347E+00
      2.804  0.5600E-01  0.3399E+00
      2.896  0.6927E-01  0.3463E+00
      2.988  0.4225E-01  0.3502E+00
      3.081  0.6187E-01  0.3559E+00
      3.173  0.5503E-01  0.3610E+00
      3.266  0.4156E-01  0.3648E+00
      3.358  0.4226E-01  0.3687E+00
      3.451  0.3976E-01  0.3724E+00
      3.543  0.5600E-01  0.3776E+00
      3.635  0.4789E-01  0.3820E+00
      3.728  0.4311E-01  0.3860E+00
      3.820  0.5663E-01  0.3912E+00
      3.913  0.5114E-01  0.3960E+00
      4.005  0.5094E-01  0.4007E+00
      4.097  0.4741E-01  0.4051E+00
      4.190  0.5143E-01  0.4098E+00
      4.282  0.7097E-01  0.4164E+00
      4.375  0.7599E-01  0.4234E+00
      4.467  0.5943E-01  0.4289E+00
      4.559  0.1097E+00  0.4390E+00
      4.652  0.9192E-01  0.4475E+00
      4.744  0.7367E-01  0.4543E+00
      4.837  0.8719E-01  0.4624E+00
      4.929  0.4938E-01  0.4669E+00
      5.022  0.2717E-01  0.4695E+00
      5.114  0.1375E-01  0.4707E+00
      5.206  0.2477E-01  0.4730E+00
      5.299  0.2977E-01  0.4758E+00
      5.391  0.2524E-01  0.4781E+00
      5.484  0.2192E-01  0.4801E+00
      5.576  0.1904E-01  0.4819E+00
      5.668  0.3066E-01  0.4847E+00
      5.761  0.5339E-01  0.4897E+00
      5.853  0.4983E-01  0.4943E+00
      5.946  0.5829E-01  0.4996E+00
      6.038  0.5026E-01  0.5043E+00
      6.131  0.5584E-01  0.5095E+00
      6.223  0.6691E-01  0.5156E+00
      6.315  0.6901E-01  0.5220E+00
      6.408  0.6851E-01  0.5283E+00
      6.500  0.5892E-01  0.5338E+00
      6.593  0.5679E-01  0.5390E+00
      6.685  0.4105E-01  0.5428E+00
      6.777  0.3106E-01  0.5457E+00
      6.870  0.4695E-01  0.5500E+00
      6.962  0.2946E-01  0.5528E+00
      7.055  0.2446E-01  0.5550E+00
      7.147  0.1355E-01  0.5563E+00
      7.240  0.8248E-02  0.5570E+00
      7.332  0.1280E-01  0.5582E+00
      7.424  0.1778E-01  0.5599E+00
      7.517  0.2325E-01  0.5620E+00
      7.609  0.2192E-01  0.5640E+00
      7.702  0.3028E-01  0.5668E+00
      7.794  0.2383E-01  0.5690E+00
      7.886  0.4068E-01  0.5728E+00
      7.979  0.2731E-01  0.5753E+00
      8.071  0.2277E-01  0.5774E+00
      8.164  0.2476E-01  0.5797E+00
      8.256  0.1588E-01  0.5812E+00
      8.348  0.1523E-01  0.5826E+00
      8.441  0.1996E-01  0.5844E+00
      8.533  0.1992E-01  0.5863E+00
      8.626  0.1825E-01  0.5880E+00
      8.718  0.3315E-01  0.5910E+00
      8.811  0.2418E-01  0.5933E+00
      8.903  0.2299E-01  0.5954E+00
      8.995  0.1179E-01  0.5965E+00
      9.088  0.1004E-01  0.5974E+00
      9.180  0.1818E-01  0.5991E+00
      9.273  0.1377E-01  0.6004E+00
      9.365  0.2332E-01  0.6025E+00
      9.457  0.2515E-01  0.6048E+00
      9.550  0.1713E-01  0.6064E+00
      9.642  0.9325E-02  0.6073E+00
      9.735  0.2603E-01  0.6097E+00
      9.827  0.4355E-01  0.6137E+00
      9.920  0.3325E-01  0.6168E+00
     10.012  0.3106E-01  0.6197E+00
     10.104  0.2055E-01  0.6216E+00
     10.197  0.2337E-01  0.6237E+00
     10.289  0.1603E-01  0.6252E+00
     10.382  0.2133E-01  0.6272E+00
     10.474  0.2854E-01  0.6298E+00
     10.566  0.2797E-01  0.6324E+00
     10.659  0.4479E-01  0.6365E+00
     10.751  0.3118E-01  0.6394E+00
     10.844  0.2461E-01  0.6417E+00
     10.936  0.2685E-01  0.6442E+00
     11.028  0.3871E-01  0.6477E+00
     11.121  0.4000E-01  0.6514E+00
     11.213  0.4782E-01  0.6559E+00
     11.306  0.5686E-01  0.6611E+00
     11.398  0.4198E-01  0.6650E+00
     11.491  0.3373E-01  0.6681E+00
     11.583  0.3536E-01  0.6714E+00
     11.675  0.3455E-01  0.6746E+00
     11.768  0.2273E-01  0.6767E+00
     11.860  0.2570E-01  0.6790E+00
     11.953  0.2782E-01  0.6816E+00
     12.045  0.2812E-01  0.6842E+00
     12.137  0.3797E-01  0.6877E+00
     12.230  0.2798E-01  0.6903E+00
     12.322  0.3770E-01  0.6938E+00
     12.415  0.6175E-01  0.6995E+00
     12.507  0.3917E-01  0.7031E+00
     12.600  0.2140E-01  0.7051E+00
     12.692  0.3608E-01  0.7084E+00
     12.784  0.3770E-01  0.7119E+00
     12.877  0.2594E-01  0.7143E+00
     12.969  0.4627E-01  0.7186E+00
     13.062  0.6880E-01  0.7249E+00
     13.154  0.7121E-01  0.7315E+00
     13.246  0.7535E-01  0.7385E+00
     13.339  0.6038E-01  0.7441E+00
     13.431  0.6080E-01  0.7497E+00
     13.524  0.4977E-01  0.7543E+00
     13.616  0.4504E-01  0.7585E+00
     13.709  0.2845E-01  0.7611E+00
     13.801  0.3725E-01  0.7645E+00
     13.893  0.3663E-01  0.7679E+00
     13.986  0.2535E-01  0.7703E+00
     14.078  0.5292E-01  0.7751E+00
     14.171  0.3899E-01  0.7787E+00
     14.263  0.3106E-01  0.7816E+00
     14.355  0.4074E-01  0.7854E+00
     14.448  0.3312E-01  0.7884E+00
     14.540  0.3453E-01  0.7916E+00
     14.633  0.2330E-01  0.7938E+00
     14.725  0.2498E-01  0.7961E+00
     14.817  0.2399E-01  0.7983E+00
     14.910  0.6532E-02  0.7989E+00
     15.002  0.1004E-01  0.7998E+00
     15.095  0.1951E-02  0.8000E+00
     15.187 -0.2689E-03  0.8000E+00
     15.280  0.3275E-04  0.8000E+00
     15.372  0.3004E-05  0.8000E+00
     15.464  0.3214E-07  0.8000E+00
     15.557  0.5646E-10  0.8000E+00
     15.649  0.1612E-13  0.8000E+00
     15.742  0.7355E-18  0.8000E+00
     15.834  0.0000E+00  0.8000E+00
     15.926  0.0000E+00  0.8000E+00
     16.019  0.0000E+00  0.8000E+00
     16.111  0.0000E+00  0.8000E+00
     16.204  0.0000E+00  0.8000E+00
     16.296  0.0000E+00  0.8000E+00
