   14   14  100    1
  0.1098216E+02  0.7962056E-09  0.7962056E-09  0.2800494E-09  0.5000000E-15
  1.000000000000000E-004
  CAR 
 unknown system                          
     62     81     40
 
  0.3742002E-15  0.3742002E-15  0.3742002E-15  0.1275510E-02
    1      -10.167986   1.000000
    2       -9.025626   1.000000
    3       -9.025626   1.000000
    4       -8.404777   1.000000
    5       -8.404777   1.000000
    6       -8.253158   1.000000
    7       -2.000402   1.000000
    8       -2.000402   1.000000
    9       -1.766675   1.000000
   10       -1.133743   1.000000
   11        0.070746   1.000000
   12        0.806531   1.000000
   13        0.806531   1.000000
   14        2.688165   1.000000
   15        2.688165   1.000000
   16        3.541837   1.000000
   17        3.845111   1.000000
   18        3.845111   1.000000
   19        4.280054   1.000000
   20        4.535947   1.000000
   21        5.073962   1.000000
   22        5.073962   1.000000
   23        5.567988   1.000000
   24        5.567988   1.000000
   25        5.744850   1.000000
   26        6.938926   1.000000
   27        6.967331   1.000000
   28        6.967331   1.000000
   29        8.886657   1.000000
   30        9.176633   1.000000
   31        9.176633   1.000000
   32       13.034634   0.000000
   33       13.268502   0.000000
   34       13.268502   0.000000
   35       13.389130   0.000000
   36       13.389130   0.000000
   37       14.551918   0.000000
   38       14.747614   0.000000
   39       14.747999   0.000000
   40       14.813728   0.000000
 
  0.1428571E+00  0.3785466E-15  0.3742002E-15  0.7653061E-02
    1      -10.129962   1.000000
    2       -9.108633   1.000000
    3       -9.061034   1.000000
    4       -8.553923   1.000000
    5       -8.351138   1.000000
    6       -8.049118   1.000000
    7       -2.263542   1.000000
    8       -1.986061   1.000000
    9       -1.709787   1.000000
   10       -0.865576   1.000000
   11       -0.042177   1.000000
   12        0.684666   1.000000
   13        0.913079   1.000000
   14        2.600426   1.000000
   15        2.730909   1.000000
   16        3.540525   1.000000
   17        3.681374   1.000000
   18        3.980482   1.000000
   19        4.542148   1.000000
   20        4.556512   1.000000
   21        5.044223   1.000000
   22        5.064049   1.000000
   23        5.527214   1.000000
   24        5.580208   1.000000
   25        5.793745   1.000000
   26        6.740663   1.000000
   27        6.781180   1.000000
   28        7.049644   1.000000
   29        8.832887   1.000000
   30        9.342053   1.000000
   31        9.389456   1.000000
   32       12.781833   0.000000
   33       13.100413   0.000000
   34       13.137359   0.000000
   35       13.411720   0.000000
   36       13.475678   0.000000
   37       14.489082   0.000000
   38       14.576760   0.000000
   39       14.719501   0.000000
   40       14.774901   0.000000
 
  0.2857143E+00  0.3445772E-15  0.3742002E-15  0.7653061E-02
    1      -10.018075   1.000000
    2       -9.328923   1.000000
    3       -9.126244   1.000000
    4       -8.647780   1.000000
    5       -8.243287   1.000000
    6       -7.824362   1.000000
    7       -2.630133   1.000000
    8       -1.950121   1.000000
    9       -1.549049   1.000000
   10       -0.591525   1.000000
   11       -0.233520   1.000000
   12        0.433698   1.000000
   13        1.260675   1.000000
   14        2.433404   1.000000
   15        2.694932   1.000000
   16        3.370445   1.000000
   17        3.739741   1.000000
   18        4.218092   1.000000
   19        4.618250   1.000000
   20        4.957229   1.000000
   21        4.958967   1.000000
   22        5.045571   1.000000
   23        5.476505   1.000000
   24        5.604763   1.000000
   25        5.863951   1.000000
   26        6.282872   1.000000
   27        6.440069   1.000000
   28        7.347191   1.000000
   29        8.661168   1.000000
   30        9.648743   0.999996
   31        9.853337   0.998924
   32       11.993344   0.000000
   33       12.899000   0.000000
   34       13.004007   0.000000
   35       13.478910   0.000000
   36       13.605163   0.000000
   37       14.213376   0.000000
   38       14.582836   0.000000
   39       14.670804   0.000000
   40       14.677128   0.000000
 
  0.4285714E+00  0.3779563E-15  0.3742002E-15  0.7653061E-02
    1       -9.843252   1.000000
    2       -9.585356   1.000000
    3       -9.169565   1.000000
    4       -8.677486   1.000000
    5       -8.164266   1.000000
    6       -7.695836   1.000000
    7       -2.845900   1.000000
    8       -1.917722   1.000000
    9       -1.341351   1.000000
   10       -0.748097   1.000000
   11       -0.185130   1.000000
   12        0.246225   1.000000
   13        1.802536   1.000000
   14        2.317895   1.000000
   15        2.421903   1.000000
   16        3.080798   1.000000
   17        4.044415   1.000000
   18        4.384808   1.000000
   19        4.709433   1.000000
   20        4.849067   1.000000
   21        5.031848   1.000000
   22        5.206771   1.000000
   23        5.451044   1.000000
   24        5.624155   1.000000
   25        5.883078   1.000000
   26        5.907422   1.000000
   27        6.251170   1.000000
   28        7.710077   1.000000
   29        8.401997   1.000000
   30        9.831841   0.995248
   31       10.429218   0.000001
   32       11.167745   0.000000
   33       12.759798   0.000000
   34       12.889599   0.000000
   35       13.616762   0.000000
   36       13.742885   0.000000
   37       13.996050   0.000000
   38       14.446317   0.000000
   39       14.536069   0.000000
   40       14.735542   0.000000
 
  0.1428571E+00  0.1428571E+00  0.3742002E-15  0.7653061E-02
    1      -10.054922   1.000000
    2       -9.208532   1.000000
    3       -9.180315   1.000000
    4       -8.595921   1.000000
    5       -8.294815   1.000000
    6       -7.872410   1.000000
    7       -2.554088   1.000000
    8       -1.933522   1.000000
    9       -1.598505   1.000000
   10       -0.668474   1.000000
   11       -0.214680   1.000000
   12        0.599727   1.000000
   13        1.083792   1.000000
   14        2.414236   1.000000
   15        2.846545   1.000000
   16        3.429689   1.000000
   17        3.598162   1.000000
   18        4.196805   1.000000
   19        4.598656   1.000000
   20        4.848920   1.000000
   21        4.996771   1.000000
   22        5.037385   1.000000
   23        5.495294   1.000000
   24        5.590869   1.000000
   25        5.848129   1.000000
   26        6.413138   1.000000
   27        6.529621   1.000000
   28        7.250046   1.000000
   29        8.722797   1.000000
   30        9.589713   1.000000
   31        9.694666   0.999941
   32       12.309039   0.000000
   33       12.654372   0.000000
   34       13.275158   0.000000
   35       13.344782   0.000000
   36       13.634979   0.000000
   37       14.348095   0.000000
   38       14.517095   0.000000
   39       14.624821   0.000000
   40       14.868578   0.000000
 
  0.2857143E+00  0.1428571E+00  0.3742002E-15  0.7653061E-02
    1       -9.909869   1.000000
    2       -9.439308   1.000000
    3       -9.266496   1.000000
    4       -8.584601   1.000000
    5       -8.233887   1.000000
    6       -7.713497   1.000000
    7       -2.824426   1.000000
    8       -1.833697   1.000000
    9       -1.396790   1.000000
   10       -0.748193   1.000000
   11       -0.438571   1.000000
   12        0.658643   1.000000
   13        1.448780   1.000000
   14        2.192458   1.000000
   15        2.819005   1.000000
   16        3.177149   1.000000
   17        3.726520   1.000000
   18        4.419013   1.000000
   19        4.676607   1.000000
   20        4.910967   1.000000
   21        5.003434   1.000000
   22        5.148263   1.000000
   23        5.479600   1.000000
   24        5.602941   1.000000
   25        5.900298   1.000000
   26        6.147944   1.000000
   27        6.176382   1.000000
   28        7.588494   1.000000
   29        8.504340   1.000000
   30        9.894972   1.026727
   31       10.099480  -0.028178
   32       11.548128   0.000000
   33       12.326161   0.000000
   34       13.138692   0.000000
   35       13.535635   0.000000
   36       13.858727   0.000000
   37       14.164417   0.000000
   38       14.323188   0.000000
   39       14.710259   0.000000
   40       14.773000   0.000000
 
  0.4285714E+00  0.1428571E+00  0.3742002E-15  0.7653061E-02
    1       -9.742620   1.000000
    2       -9.648970   1.000000
    3       -9.292783   1.000000
    4       -8.577320   1.000000
    5       -8.205417   1.000000
    6       -7.654005   1.000000
    7       -2.926589   1.000000
    8       -1.774030   1.000000
    9       -1.243884   1.000000
   10       -0.885935   1.000000
   11       -0.566834   1.000000
   12        0.698960   1.000000
   13        1.891702   1.000000
   14        1.975000   1.000000
   15        2.610605   1.000000
   16        3.073535   1.000000
   17        3.880463   1.000000
   18        4.503486   1.000000
   19        4.750225   1.000000
   20        4.828474   1.000000
   21        4.990327   1.000000
   22        5.252142   1.000000
   23        5.475933   1.000000
   24        5.607994   1.000000
   25        5.882272   1.000000
   26        5.920199   1.000000
   27        6.185762   1.000000
   28        7.850245   1.000000
   29        8.300807   1.000000
   30        9.959803   1.011606
   31       10.624311   0.000000
   32       10.879808   0.000000
   33       12.272235   0.000000
   34       13.039309   0.000000
   35       13.730167   0.000000
   36       13.846984   0.000000
   37       14.053038   0.000000
   38       14.304658   0.000000
   39       14.708882   0.000000
   40       14.710692   0.000000
 
 -0.4285714E+00  0.1428571E+00  0.3742002E-15  0.7653061E-02
    1       -9.909869   1.000000
    2       -9.439242   1.000000
    3       -9.266515   1.000000
    4       -8.584642   1.000000
    5       -8.233846   1.000000
    6       -7.713554   1.000000
    7       -2.824438   1.000000
    8       -1.831779   1.000000
    9       -1.403333   1.000000
   10       -0.734591   1.000000
   11       -0.447501   1.000000
   12        0.654937   1.000000
   13        1.448915   1.000000
   14        2.207548   1.000000
   15        2.863477   1.000000
   16        3.075617   1.000000
   17        3.769234   1.000000
   18        4.442795   1.000000
   19        4.676542   1.000000
   20        4.910773   1.000000
   21        5.003241   1.000000
   22        5.138331   1.000000
   23        5.480210   1.000000
   24        5.602954   1.000000
   25        5.900205   1.000000
   26        6.014030   1.000000
   27        6.300278   1.000000
   28        7.592868   1.000000
   29        8.501446   1.000000
   30        9.839573   0.995937
   31       10.168911  -0.016948
   32       11.489554   0.000000
   33       12.405073   0.000000
   34       13.123806   0.000000
   35       13.499240   0.000000
   36       13.856518   0.000000
   37       14.109406   0.000000
   38       14.434420   0.000000
   39       14.720982   0.000000
   40       14.741192   0.000000
 
  0.2857143E+00  0.2857143E+00  0.3742002E-15  0.7653061E-02
    1       -9.739455   1.000000
    2       -9.525606   1.000000
    3       -9.473548   1.000000
    4       -8.449108   1.000000
    5       -8.295440   1.000000
    6       -7.631399   1.000000
    7       -2.973312   1.000000
    8       -1.559339   1.000000
    9       -1.201832   1.000000
   10       -1.048566   1.000000
   11       -0.802499   1.000000
   12        1.191559   1.000000
   13        1.544530   1.000000
   14        1.904925   1.000000
   15        2.735786   1.000000
   16        3.245220   1.000000
   17        3.598482   1.000000
   18        4.546926   1.000000
   19        4.754603   1.000000
   20        4.877783   1.000000
   21        4.924281   1.000000
   22        5.269961   1.000000
   23        5.518427   1.000000
   24        5.576719   1.000000
   25        5.928926   1.000000
   26        6.002850   1.000000
   27        6.095851   1.000000
   28        7.909440   1.000000
   29        8.266068   1.000000
   30       10.140932  -0.042697
   31       10.428858   0.000001
   32       10.952145   0.000000
   33       12.001597   0.000000
   34       12.981770   0.000000
   35       13.754767   0.000000
   36       14.024392   0.000000
   37       14.085862   0.000000
   38       14.354815   0.000000
   39       14.668271   0.000000
   40       14.693904   0.000000
 
  0.3742002E-15  0.3742002E-15  0.6250000E-01  0.2551020E-02
    1      -10.116230   1.000000
    2       -8.980660   1.000000
    3       -8.980659   1.000000
    4       -8.363214   1.000000
    5       -8.363214   1.000000
    6       -8.216290   1.000000
    7       -1.957761   1.000000
    8       -1.957761   1.000000
    9       -1.706587   1.000000
   10       -1.080633   1.000000
   11        0.097711   1.000000
   12        0.836844   1.000000
   13        0.836844   1.000000
   14        2.734167   1.000000
   15        2.734167   1.000000
   16        3.550240   1.000000
   17        3.851206   1.000000
   18        3.851206   1.000000
   19        4.258184   1.000000
   20        4.260029   1.000000
   21        4.816713   1.000000
   22        4.816713   1.000000
   23        5.298433   1.000000
   24        5.298433   1.000000
   25        5.434695   1.000000
   26        6.981602   1.000000
   27        6.981602   1.000000
   28        7.109933   1.000000
   29        8.835978   1.000000
   30        9.292516   1.000000
   31        9.292516   1.000000
   32       12.959239   0.000000
   33       13.064238   0.000000
   34       13.064238   0.000000
   35       13.522166   0.000000
   36       13.522166   0.000000
   37       14.150719   0.000000
   38       14.407753   0.000000
   39       14.407769   0.000000
   40       14.417876   0.000000
 
  0.1428571E+00  0.3785466E-15  0.6250000E-01  0.1530612E-01
    1      -10.078313   1.000000
    2       -9.062936   1.000000
    3       -9.015602   1.000000
    4       -8.512518   1.000000
    5       -8.310287   1.000000
    6       -8.012736   1.000000
    7       -2.214786   1.000000
    8       -1.942221   1.000000
    9       -1.650087   1.000000
   10       -0.816900   1.000000
   11       -0.010858   1.000000
   12        0.716436   1.000000
   13        0.941995   1.000000
   14        2.647937   1.000000
   15        2.766680   1.000000
   16        3.549980   1.000000
   17        3.672480   1.000000
   18        3.982122   1.000000
   19        4.290605   1.000000
   20        4.521027   1.000000
   21        4.788088   1.000000
   22        4.809179   1.000000
   23        5.235551   1.000000
   24        5.320977   1.000000
   25        5.524310   1.000000
   26        6.768895   1.000000
   27        6.810485   1.000000
   28        7.203388   1.000000
   29        8.789355   1.000000
   30        9.438361   1.000000
   31        9.482076   1.000000
   32       12.800658   0.000000
   33       12.982554   0.000000
   34       13.063394   0.000000
   35       13.368439   0.000000
   36       13.496042   0.000000
   37       14.085823   0.000000
   38       14.356188   0.000000
   39       14.418962   0.000000
   40       14.476500   0.000000
 
  0.2857143E+00  0.3445772E-15  0.6250000E-01  0.1530612E-01
    1       -9.966907   1.000000
    2       -9.281629   1.000000
    3       -9.080069   1.000000
    4       -8.605987   1.000000
    5       -8.204063   1.000000
    6       -7.790149   1.000000
    7       -2.576116   1.000000
    8       -1.904004   1.000000
    9       -1.490674   1.000000
   10       -0.542893   1.000000
   11       -0.198454   1.000000
   12        0.466281   1.000000
   13        1.283161   1.000000
   14        2.481671   1.000000
   15        2.714488   1.000000
   16        3.358737   1.000000
   17        3.721611   1.000000
   18        4.203499   1.000000
   19        4.383184   1.000000
   20        4.647626   1.000000
   21        4.807019   1.000000
   22        4.958667   1.000000
   23        5.203735   1.000000
   24        5.366215   1.000000
   25        5.642910   1.000000
   26        6.328788   1.000000
   27        6.472938   1.000000
   28        7.464866   1.000000
   29        8.638955   1.000000
   30        9.703233   0.999906
   31        9.915561   1.045335
   32       12.062488   0.000000
   33       12.928423   0.000000
   34       12.955547   0.000000
   35       13.312598   0.000000
   36       13.583420   0.000000
   37       13.839400   0.000000
   38       14.258176   0.000000
   39       14.497178   0.000000
   40       14.557597   0.000000
 
  0.4285714E+00  0.3779563E-15  0.6250000E-01  0.1530612E-01
    1       -9.792944   1.000000
    2       -9.536431   1.000000
    3       -9.122992   1.000000
    4       -8.635588   1.000000
    5       -8.126260   1.000000
    6       -7.663063   1.000000
    7       -2.789535   1.000000
    8       -1.869480   1.000000
    9       -1.285063   1.000000
   10       -0.695383   1.000000
   11       -0.149849   1.000000
   12        0.278889   1.000000
   13        1.813571   1.000000
   14        2.366717   1.000000
   15        2.437245   1.000000
   16        3.080529   1.000000
   17        3.949618   1.000000
   18        4.336589   1.000000
   19        4.503747   1.000000
   20        4.582825   1.000000
   21        4.824302   1.000000
   22        5.139938   1.000000
   23        5.239539   1.000000
   24        5.395453   1.000000
   25        5.734434   1.000000
   26        5.933438   1.000000
   27        6.264694   1.000000
   28        7.783637   1.000000
   29        8.410924   1.000000
   30        9.859000   1.000974
   31       10.476952   0.000000
   32       11.231327   0.000000
   33       12.803364   0.000000
   34       12.932415   0.000000
   35       13.327990   0.000000
   36       13.594449   0.000000
   37       13.843932   0.000000
   38       14.108470   0.000000
   39       14.487488   0.000000
   40       14.579073   0.000000
 
  0.1428571E+00  0.1428571E+00  0.6250000E-01  0.1530612E-01
    1      -10.003607   1.000000
    2       -9.162031   1.000000
    3       -9.133864   1.000000
    4       -8.554582   1.000000
    5       -8.254923   1.000000
    6       -7.837747   1.000000
    7       -2.501331   1.000000
    8       -1.888176   1.000000
    9       -1.539968   1.000000
   10       -0.621067   1.000000
   11       -0.178942   1.000000
   12        0.630002   1.000000
   13        1.109955   1.000000
   14        2.459256   1.000000
   15        2.867543   1.000000
   16        3.422597   1.000000
   17        3.600976   1.000000
   18        4.161485   1.000000
   19        4.367086   1.000000
   20        4.705635   1.000000
   21        4.742050   1.000000
   22        4.895024   1.000000
   23        5.210345   1.000000
   24        5.346435   1.000000
   25        5.614775   1.000000
   26        6.449078   1.000000
   27        6.569474   1.000000
   28        7.379630   1.000000
   29        8.692175   1.000000
   30        9.661518   0.999992
   31        9.757934   0.998893
   32       12.380667   0.000000
   33       12.663373   0.000000
   34       13.124066   0.000000
   35       13.370493   0.000000
   36       13.501518   0.000000
   37       13.911672   0.000000
   38       14.315434   0.000000
   39       14.509399   0.000000
   40       14.572439   0.000000
 
  0.2857143E+00  0.1428571E+00  0.6250000E-01  0.1530612E-01
    1       -9.859274   1.000000
    2       -9.391311   1.000000
    3       -9.219467   1.000000
    4       -8.543467   1.000000
    5       -8.195184   1.000000
    6       -7.680538   1.000000
    7       -2.768730   1.000000
    8       -1.786734   1.000000
    9       -1.340303   1.000000
   10       -0.697640   1.000000
   11       -0.398233   1.000000
   12        0.684974   1.000000
   13        1.468425   1.000000
   14        2.233395   1.000000
   15        2.830982   1.000000
   16        3.171371   1.000000
   17        3.707807   1.000000
   18        4.306090   1.000000
   19        4.507369   1.000000
   20        4.613410   1.000000
   21        4.784902   1.000000
   22        5.111021   1.000000
   23        5.244257   1.000000
   24        5.368329   1.000000
   25        5.711093   1.000000
   26        6.187194   1.000000
   27        6.207357   1.000000
   28        7.677157   1.000000
   29        8.497603   1.000000
   30        9.915399   1.045216
   31       10.164559  -0.020755
   32       11.613713   0.000000
   33       12.376277   0.000000
   34       13.154135   0.000000
   35       13.341228   0.000000
   36       13.639547   0.000000
   37       13.806871   0.000000
   38       14.203881   0.000000
   39       14.531254   0.000000
   40       14.720729   0.000000
 
  0.4285714E+00  0.1428571E+00  0.6250000E-01  0.1530612E-01
    1       -9.692857   1.000000
    2       -9.599698   1.000000
    3       -9.245561   1.000000
    4       -8.536179   1.000000
    5       -8.167176   1.000000
    6       -7.621610   1.000000
    7       -2.869574   1.000000
    8       -1.725845   1.000000
    9       -1.189852   1.000000
   10       -0.831448   1.000000
   11       -0.525530   1.000000
   12        0.724479   1.000000
   13        1.895833   1.000000
   14        2.014709   1.000000
   15        2.635162   1.000000
   16        3.075335   1.000000
   17        3.823309   1.000000
   18        4.364731   1.000000
   19        4.523198   1.000000
   20        4.651099   1.000000
   21        4.780657   1.000000
   22        5.190173   1.000000
   23        5.249233   1.000000
   24        5.375628   1.000000
   25        5.771130   1.000000
   26        5.920208   1.000000
   27        6.200985   1.000000
   28        7.907285   1.000000
   29        8.317987   1.000000
   30        9.977122   0.935550
   31       10.668861   0.000000
   32       10.950269   0.000000
   33       12.319769   0.000000
   34       13.149996   0.000000
   35       13.337343   0.000000
   36       13.532024   0.000000
   37       14.001592   0.000000
   38       14.099893   0.000000
   39       14.545553   0.000000
   40       14.743075   0.000000
 
 -0.4285714E+00  0.1428571E+00  0.6250000E-01  0.1530612E-01
    1       -9.859280   1.000000
    2       -9.391260   1.000000
    3       -9.219484   1.000000
    4       -8.543458   1.000000
    5       -8.195141   1.000000
    6       -7.680629   1.000000
    7       -2.768704   1.000000
    8       -1.784643   1.000000
    9       -1.347156   1.000000
   10       -0.682963   1.000000
   11       -0.408131   1.000000
   12        0.681326   1.000000
   13        1.468320   1.000000
   14        2.247631   1.000000
   15        2.877855   1.000000
   16        3.074283   1.000000
   17        3.743007   1.000000
   18        4.314524   1.000000
   19        4.491696   1.000000
   20        4.687337   1.000000
   21        4.736268   1.000000
   22        5.122898   1.000000
   23        5.230450   1.000000
   24        5.368122   1.000000
   25        5.710904   1.000000
   26        6.054179   1.000000
   27        6.330336   1.000000
   28        7.680830   1.000000
   29        8.494783   1.000000
   30        9.879780   1.013351
   31       10.210486   0.003615
   32       11.564266   0.000000
   33       12.439943   0.000000
   34       13.210922   0.000000
   35       13.253229   0.000000
   36       13.651046   0.000000
   37       13.772058   0.000000
   38       14.258451   0.000000
   39       14.527115   0.000000
   40       14.724077   0.000000
 
  0.2857143E+00  0.2857143E+00  0.6250000E-01  0.1530612E-01
    1       -9.689742   1.000000
    2       -9.477116   1.000000
    3       -9.425369   1.000000
    4       -8.409044   1.000000
    5       -8.256506   1.000000
    6       -7.599253   1.000000
    7       -2.916237   1.000000
    8       -1.512136   1.000000
    9       -1.154293   1.000000
   10       -0.992020   1.000000
   11       -0.753745   1.000000
   12        1.207898   1.000000
   13        1.562230   1.000000
   14        1.939870   1.000000
   15        2.750724   1.000000
   16        3.238742   1.000000
   17        3.576391   1.000000
   18        4.374510   1.000000
   19        4.586651   1.000000
   20        4.640799   1.000000
   21        4.724318   1.000000
   22        5.231684   1.000000
   23        5.269573   1.000000
   24        5.335538   1.000000
   25        5.778097   1.000000
   26        6.033203   1.000000
   27        6.124427   1.000000
   28        7.961302   1.000000
   29        8.281310   1.000000
   30       10.135204  -0.046972
   31       10.497807   0.000000
   32       11.027293   0.000000
   33       12.041208   0.000000
   34       13.129590   0.000000
   35       13.349393   0.000000
   36       13.505844   0.000000
   37       13.972782   0.000000
   38       14.426457   0.000000
   39       14.548821   0.000000
   40       14.755110   0.000000
 
  0.3742002E-15  0.3742002E-15  0.1250000E+00  0.2551020E-02
    1       -9.962455   1.000000
    2       -8.847939   1.000000
    3       -8.847939   1.000000
    4       -8.241589   1.000000
    5       -8.241589   1.000000
    6       -8.109502   1.000000
    7       -1.834296   1.000000
    8       -1.834295   1.000000
    9       -1.527346   1.000000
   10       -0.920599   1.000000
   11        0.163411   1.000000
   12        0.916720   1.000000
   13        0.916720   1.000000
   14        2.873975   1.000000
   15        2.873975   1.000000
   16        3.524002   1.000000
   17        3.585160   1.000000
   18        3.831751   1.000000
   19        3.831751   1.000000
   20        4.061317   1.000000
   21        4.168177   1.000000
   22        4.168177   1.000000
   23        4.680769   1.000000
   24        4.680769   1.000000
   25        4.983182   1.000000
   26        7.003415   1.000000
   27        7.003415   1.000000
   28        7.395772   1.000000
   29        8.628181   1.000000
   30        9.546832   1.000000
   31        9.546833   1.000000
   32       12.263653   0.000000
   33       12.263653   0.000000
   34       12.372999   0.000000
   35       13.002667   0.000000
   36       13.776601   0.000000
   37       13.776601   0.000000
   38       14.013368   0.000000
   39       14.013368   0.000000
   40       14.915004   0.000000
 
  0.1428571E+00  0.3785466E-15  0.1250000E+00  0.1530612E-01
    1       -9.925111   1.000000
    2       -8.927948   1.000000
    3       -8.881613   1.000000
    4       -8.391648   1.000000
    5       -8.191056   1.000000
    6       -7.907762   1.000000
    7       -2.072650   1.000000
    8       -1.815942   1.000000
    9       -1.472321   1.000000
   10       -0.674395   1.000000
   11        0.069277   1.000000
   12        0.798712   1.000000
   13        1.016028   1.000000
   14        2.787154   1.000000
   15        2.842363   1.000000
   16        3.503092   1.000000
   17        3.586099   1.000000
   18        3.702902   1.000000
   19        3.910823   1.000000
   20        4.110528   1.000000
   21        4.215420   1.000000
   22        4.351017   1.000000
   23        4.600848   1.000000
   24        4.718230   1.000000
   25        5.141976   1.000000
   26        6.815592   1.000000
   27        6.855244   1.000000
   28        7.469307   1.000000
   29        8.602592   1.000000
   30        9.642833   0.999998
   31        9.688093   0.999959
   32       12.301035   0.000000
   33       12.344720   0.000000
   34       12.376834   0.000000
   35       13.020674   0.000000
   36       13.278429   0.000000
   37       13.533550   0.000000
   38       14.010656   0.000000
   39       14.129614   0.000000
   40       14.975734   0.000000
 
  0.2857143E+00  0.3445772E-15  0.1250000E+00  0.1530612E-01
    1       -9.815414   1.000000
    2       -9.141836   1.000000
    3       -8.943988   1.000000
    4       -8.484038   1.000000
    5       -8.089766   1.000000
    6       -7.691881   1.000000
    7       -2.417120   1.000000
    8       -1.771163   1.000000
    9       -1.317383   1.000000
   10       -0.402514   1.000000
   11       -0.103621   1.000000
   12        0.551375   1.000000
   13        1.336000   1.000000
   14        2.622220   1.000000
   15        2.726926   1.000000
   16        3.272578   1.000000
   17        3.485441   1.000000
   18        3.901453   1.000000
   19        3.970324   1.000000
   20        4.068978   1.000000
   21        4.392420   1.000000
   22        4.527447   1.000000
   23        4.695998   1.000000
   24        4.791036   1.000000
   25        5.423963   1.000000
   26        6.407315   1.000000
   27        6.530856   1.000000
   28        7.670910   1.000000
   29        8.511414   1.000000
   30        9.801095   0.996164
   31       10.053177   0.233341
   32       12.168677   0.000000
   33       12.347866   0.000000
   34       12.489154   0.000000
   35       12.638784   0.000000
   36       13.114195   0.000000
   37       13.218681   0.000000
   38       13.954532   0.000000
   39       14.216123   0.000000
   40       14.946526   0.000000
 
  0.4285714E+00  0.3779563E-15  0.1250000E+00  0.1530612E-01
    1       -9.644149   1.000000
    2       -9.391726   1.000000
    3       -8.985502   1.000000
    4       -8.513118   1.000000
    5       -8.015653   1.000000
    6       -7.568949   1.000000
    7       -2.622113   1.000000
    8       -1.730254   1.000000
    9       -1.118843   1.000000
   10       -0.540793   1.000000
   11       -0.052594   1.000000
   12        0.364842   1.000000
   13        1.826684   1.000000
   14        2.454637   1.000000
   15        2.511122   1.000000
   16        3.030873   1.000000
   17        3.459751   1.000000
   18        3.861376   1.000000
   19        3.977085   1.000000
   20        4.266606   1.000000
   21        4.546493   1.000000