 running on   16 total cores
 distrk:  each k-point on   16 cores,    1 groups
 distr:  one band on    4 cores,    4 groups
 using from now: INCAR     
 vasp.5.4.4.18Apr17-6-g9f103f2a35 (build Nov 01 2019 12:17:22) complex          
  
 POSCAR found type information on POSCAR  Si N 
 POSCAR found :  2 types and      14 ions
 WARNING: type information on POSCAR and POTCAR are incompatible
 POTCAR overwrites the type information in POSCAR
 typ   1 type information:  Si N 
 WARNING: type information on POSCAR and POTCAR are incompatible
 POTCAR overwrites the type information in POSCAR
 typ   2 type information:  N  Si
 LDA part: xc-table for Pade appr. of Perdew
 generate k-points for:    7    7   16
 POSCAR, INCAR and KPOINTS ok, starting setup
 FFT: planning ...
 WAVECAR not read
 entering main loop
       N       E                     dE             d eps       ncg     rms          rms(c)
DAV:   1     0.226194920478E+03    0.22619E+03   -0.25562E+04  6544   0.115E+03
DAV:   2    -0.827339230455E+02   -0.30893E+03   -0.29595E+03  8120   0.242E+02
DAV:   3    -0.104212135046E+03   -0.21478E+02   -0.21031E+02  8136   0.672E+01
DAV:   4    -0.104731399212E+03   -0.51926E+00   -0.51687E+00  8336   0.107E+01
DAV:   5    -0.104743671034E+03   -0.12272E-01   -0.12264E-01  8288   0.158E+00    0.235E+01
RMM:   6    -0.958206894274E+02    0.89230E+01   -0.45163E+01  6480   0.236E+01    0.107E+01
RMM:   7    -0.954018491821E+02    0.41884E+00   -0.12563E+00  6541   0.388E+00    0.602E+00
RMM:   8    -0.953064331740E+02    0.95416E-01   -0.64634E-01  6497   0.264E+00    0.859E-01
RMM:   9    -0.952971876722E+02    0.92455E-02   -0.15958E-01  6506   0.144E+00    0.540E-01
RMM:  10    -0.952949633949E+02    0.22243E-02   -0.12677E-02  6489   0.477E-01    0.141E-01
RMM:  11    -0.952959350485E+02   -0.97165E-03   -0.56208E-03  6512   0.283E-01    0.113E-01
RMM:  12    -0.952957202816E+02    0.21477E-03   -0.81086E-04  6198   0.113E-01    0.386E-02
RMM:  13    -0.952957324455E+02   -0.12164E-04   -0.20632E-04  4024   0.570E-02
   1 F= -.95295732E+02 E0= -.95295865E+02  d E =-.952957E+02
 curvature:   0.00 expect dE= 0.000E+00 dE for cont linesearch  0.000E+00
 trial: gam= 0.00000 g(F)=  0.257E-03 g(S)=  0.000E+00 ort = 0.000E+00 (trialstep = 0.100E+01)
 search vector abs. value=  0.257E-03
 bond charge predicted
       N       E                     dE             d eps       ncg     rms          rms(c)
DAV:   1    -0.952958368307E+02   -0.11655E-03   -0.32978E-02  7560   0.101E+00    0.390E-02
RMM:   2    -0.952958791426E+02   -0.42312E-04   -0.66225E-04  5261   0.116E-01
   2 F= -.95295879E+02 E0= -.95296008E+02  d E =-.146697E-03
 trial-energy change:   -0.000147  1 .order   -0.000125   -0.000257    0.000007
 step:   0.9728(harm=  0.9728)  dis= 0.00112  next Energy=   -95.295857 (dE=-0.125E-03)
 bond charge predicted
       N       E                     dE             d eps       ncg     rms          rms(c)
DAV:   1    -0.952958733246E+02   -0.36494E-04   -0.84317E-05  4992   0.481E-02    0.116E-02
RMM:   2    -0.952958724665E+02    0.85817E-06   -0.11182E-05  3085   0.184E-02
   3 F= -.95295872E+02 E0= -.95296002E+02  d E =-.140021E-03
 curvature:  -0.49 expect dE=-0.515E-04 dE for cont linesearch -0.158E-05
 trial: gam= 0.30044 g(F)=  0.106E-03 g(S)=  0.000E+00 ort = 0.288E-04 (trialstep = 0.995E+00)
 search vector abs. value=  0.146E-03
 reached required accuracy - stopping structural energy minimisation
