 vasp.5.4.4.18Apr17-6-g9f103f2a35 (build Nov 01 2019 12:17:22) complex          
  
 executed on             LinuxIFC date 2023.05.19  18:18:46
 running on   16 total cores
 distrk:  each k-point on   16 cores,    1 groups
 distr:  one band on NCORES_PER_BAND=   4 cores,    4 groups


--------------------------------------------------------------------------------------------------------


 INCAR:
 POTCAR:    PAW_PBE N 08Apr2002                   
 POTCAR:    PAW_PBE Si 05Jan2001                  
 POTCAR:    PAW_PBE N 08Apr2002                   
   VRHFIN =N: s2p3                                                              
   LEXCH  = PE                                                                  
   EATOM  =   264.5486 eV,   19.4438 Ry                                         
                                                                                
   TITEL  = PAW_PBE N 08Apr2002                                                 
   LULTRA =        F    use ultrasoft PP ?                                      
   IUNSCR =        1    unscreen: 0-lin 1-nonlin 2-no                           
   RPACOR =    1.200    partial core radius                                     
   POMASS =   14.001; ZVAL   =    5.000    mass and valenz                      
   RCORE  =    1.500    outmost cutoff radius                                   
   RWIGS  =    1.400; RWIGS  =    0.741    wigner-seitz radius (au A)           
   ENMAX  =  400.000; ENMIN  =  300.000 eV                                      
   ICORE  =        2    local potential                                         
   LCOR   =        T    correct aug charges                                     
   LPAW   =        T    paw PP                                                  
   EAUG   =  627.112                                                            
   DEXC   =    0.000                                                            
   RMAX   =    1.529    core radius for proj-oper                               
   RAUG   =    1.300    factor for augmentation sphere                          
   RDEP   =    1.514    radius for radial grids                                 
   RDEPT  =    1.338    core radius for aug-charge                              
                                                                                
   Atomic configuration                                                         
    4 entries                                                                   
     n  l   j            E        occ.                                          
     1  0  0.50      -384.7179   2.0000                                         
     2  0  0.50       -18.5828   2.0000                                         
     2  1  0.50        -7.0898   3.0000                                         
     3  2  1.50        -6.8029   0.0000                                         
   Description                                                                  
     l       E           TYP  RCUT    TYP  RCUT                                 
     0    -18.5828119     23  1.200                                             
     0    -13.5018863     23  1.200                                             
     1     -7.0897853     23  1.500                                             
     1      9.5240782     23  1.500                                             
     2     -6.8029130      7  1.500                                             
  local pseudopotential read in
  partial core-charges read in
  partial kinetic energy density read in
  atomic valenz-charges read in
  non local Contribution for L=           0  read in
    real space projection operators read in
  non local Contribution for L=           0  read in
    real space projection operators read in
  non local Contribution for L=           1  read in
    real space projection operators read in
  non local Contribution for L=           1  read in
    real space projection operators read in
    PAW grid and wavefunctions read in
 
   number of l-projection  operators is LMAX  =           4
   number of lm-projection operators is LMMAX =           8
 
 POTCAR:    PAW_PBE Si 05Jan2001                  
   VRHFIN =Si: s2p2                                                             
   LEXCH  = PE                                                                  
   EATOM  =   103.0669 eV,    7.5752 Ry                                         
                                                                                
   TITEL  = PAW_PBE Si 05Jan2001                                                
   LULTRA =        F    use ultrasoft PP ?                                      
   IUNSCR =        1    unscreen: 0-lin 1-nonlin 2-no                           
   RPACOR =    1.500    partial core radius                                     
   POMASS =   28.085; ZVAL   =    4.000    mass and valenz                      
   RCORE  =    1.900    outmost cutoff radius                                   
   RWIGS  =    2.480; RWIGS  =    1.312    wigner-seitz radius (au A)           
   ENMAX  =  245.345; ENMIN  =  184.009 eV                                      
   ICORE  =        2    local potential                                         
   LCOR   =        T    correct aug charges                                     
   LPAW   =        T    paw PP                                                  
   EAUG   =  322.069                                                            
   DEXC   =    0.000                                                            
   RMAX   =    1.950    core radius for proj-oper                               
   RAUG   =    1.300    factor for augmentation sphere                          
   RDEP   =    1.993    radius for radial grids                                 
   RDEPT  =    1.837    core radius for aug-charge                              
                                                                                
   Atomic configuration                                                         
    6 entries                                                                   
     n  l   j            E        occ.                                          
     1  0  0.50     -1785.8828   2.0000                                         
     2  0  0.50      -139.4969   2.0000                                         
     2  1  1.50       -95.5546   6.0000                                         
     3  0  0.50       -10.8127   2.0000                                         
     3  1  0.50        -4.0811   2.0000                                         
     3  2  1.50        -4.0817   0.0000                                         
   Description                                                                  
     l       E           TYP  RCUT    TYP  RCUT                                 
     0    -10.8127223     23  1.900                                             
     0     -7.6451159     23  1.900                                             
     1     -4.0811372     23  1.900                                             
     1      2.4879257     23  1.900                                             
     2     -4.0817478      7  1.900                                             
  local pseudopotential read in
  partial core-charges read in
  partial kinetic energy density read in
  atomic valenz-charges read in
  non local Contribution for L=           0  read in
    real space projection operators read in
  non local Contribution for L=           0  read in
    real space projection operators read in
  non local Contribution for L=           1  read in
    real space projection operators read in
  non local Contribution for L=           1  read in
    real space projection operators read in
    PAW grid and wavefunctions read in
 
   number of l-projection  operators is LMAX  =           4
   number of lm-projection operators is LMMAX =           8
 
 Optimization of the real space projectors (new method)

 maximal supplied QI-value         = 25.13
 optimisation between [QCUT,QGAM] = [ 10.05, 20.36] = [ 28.30,116.06] Ry 
 Optimized for a Real-space Cutoff    1.70 Angstroem

   l    n(q)    QCUT    max X(q) W(low)/X(q) W(high)/X(q)  e(spline) 
   0     10    10.053    79.467    0.61E-04    0.98E-04    0.61E-06
   0     10    10.053    66.151    0.60E-04    0.98E-04    0.61E-06
   1     10    10.053     8.350    0.17E-03    0.71E-03    0.45E-05
   1     10    10.053     5.531    0.18E-03    0.77E-03    0.49E-05
 Optimization of the real space projectors (new method)

 maximal supplied QI-value         = 19.84
 optimisation between [QCUT,QGAM] = [ 10.12, 20.44] = [ 28.68,116.96] Ry 
 Optimized for a Real-space Cutoff    1.38 Angstroem

   l    n(q)    QCUT    max X(q) W(low)/X(q) W(high)/X(q)  e(spline) 
   0      8    10.119   159.560    0.58E-04    0.11E-03    0.54E-07
   0      8    10.119   115.863    0.56E-04    0.11E-03    0.54E-07
   1      8    10.119    88.339    0.22E-03    0.17E-03    0.19E-06
   1      8    10.119    48.592    0.22E-03    0.17E-03    0.18E-06
  PAW_PBE N 08Apr2002                   :
 energy of atom  1       EATOM= -264.5486
 kinetic energy error for atom=    0.0736 (will be added to EATOM!!)
  PAW_PBE Si 05Jan2001                  :
 energy of atom  2       EATOM= -103.0669
 kinetic energy error for atom=    0.0012 (will be added to EATOM!!)
 
 
 POSCAR: Si6 N8                                  
  positions in direct lattice
  No initial velocities read in
 exchange correlation table for  LEXCH =        8
   RHO(1)=    0.500       N(1)  =     2000
   RHO(2)=  100.500       N(2)  =     4000
 


--------------------------------------------------------------------------------------------------------


 ion  position               nearest neighbor table
   1  0.197  0.832  0.750-   9 1.80  10 1.81  10 1.81   7 2.08
   2  0.366  0.197  0.250-  10 1.80  12 1.81  12 1.81   8 2.08
   3  0.832  0.634  0.250-  11 1.80   9 1.81   9 1.81   8 2.08
   4  0.168  0.366  0.750-  12 1.80  13 1.81  13 1.81   7 2.08
   5  0.634  0.803  0.750-  14 1.80  11 1.81  11 1.81   7 2.08
   6  0.803  0.168  0.250-  13 1.80  14 1.81  14 1.81   8 2.08
   7  0.333  0.667  0.750-   5 2.08   4 2.08   1 2.08  11 2.69  11 2.69  13 2.69  13 2.69  10 2.69
                            10 2.69  12 2.75  14 2.75   9 2.75
   8  0.667  0.333  0.250-   2 2.08   3 2.08   6 2.08  12 2.69  12 2.69   9 2.69   9 2.69  14 2.69
                            14 2.69  11 2.75  10 2.75  13 2.75
   9  0.964  0.612  0.750-   1 1.80   3 1.81   3 1.81  13 2.56  13 2.56   8 2.69   8 2.69   7 2.75

  10  0.351  0.964  0.250-   2 1.80   1 1.81   1 1.81  14 2.56  14 2.56   7 2.69   7 2.69   8 2.75

  11  0.612  0.649  0.250-   3 1.80   5 1.81   5 1.81  12 2.56  12 2.56   7 2.69   7 2.69   8 2.75

  12  0.388  0.351  0.750-   4 1.80   2 1.81   2 1.81  11 2.56  11 2.56   8 2.69   8 2.69   7 2.75

  13  0.036  0.388  0.250-   6 1.80   4 1.81   4 1.81   9 2.56   9 2.56   7 2.69   7 2.69   8 2.75

  14  0.649  0.036  0.750-   5 1.80   6 1.81   6 1.81  10 2.56  10 2.56   8 2.69   8 2.69   7 2.75

 
  LATTYP: Found a hexagonal cell.
 ALAT       =     7.9620556576
 C/A-ratio  =     0.3517300815
  
  Lattice vectors:
  
 A1 = (   3.9810278340,  -6.8953424628,   0.0000000000)
 A2 = (   3.9810278236,   6.8953424688,   0.0000000000)
 A3 = (   0.0000000000,   0.0000000000,   2.8004944850)


Analysis of symmetry for initial positions (statically):
=====================================================================
 Subroutine PRICEL returns:
 Original cell was already a primitive cell.
 

 Routine SETGRP: Setting up the symmetry group for a 
 hexagonal supercell.


 Subroutine GETGRP returns: Found 12 space group operations
 (whereof  6 operations were pure point group operations)
 out of a pool of 24 trial point group operations.


The static configuration has the point symmetry S_6 .
 The point group associated with its full space group is C_6h.


Analysis of symmetry for dynamics (positions and initial velocities):
=====================================================================
 Subroutine PRICEL returns:
 Original cell was already a primitive cell.
 

 Routine SETGRP: Setting up the symmetry group for a 
 hexagonal supercell.


 Subroutine GETGRP returns: Found 12 space group operations
 (whereof  6 operations were pure point group operations)
 out of a pool of 24 trial point group operations.


The dynamic configuration has the point symmetry S_6 .
 The point group associated with its full space group is C_6h.


 Subroutine INISYM returns: Found 12 space group operations
 (whereof  6 operations are pure point group operations),
 and found     1 'primitive' translations

 
 
 KPOINTS: Automatic mesh                          

Automatic generation of k-mesh.
 generate k-points for:    7    7   16
Space group operators:
 irot       det(A)        alpha          n_x          n_y          n_z        tau_x        tau_y        tau_z
    1     1.000000     0.000000     1.000000     0.000000     0.000000     0.000000     0.000000     0.000000
    2    -1.000000     0.000000     1.000000     0.000000     0.000000     0.000000     0.000000     0.000000
    3     1.000000   120.000000     0.000000     0.000000    -1.000000     0.000000     0.000000     0.000000
    4    -1.000000   120.000000     0.000000     0.000000    -1.000000     0.000000     0.000000     0.000000
    5     1.000000   120.000000     0.000000     0.000000     1.000000     0.000000     0.000000     0.000000
    6    -1.000000   120.000000     0.000000     0.000000     1.000000     0.000000     0.000000     0.000000
    7     1.000000    60.000000     0.000000     0.000000    -1.000000     0.000000     0.000000     0.500000
    8    -1.000000    60.000000     0.000000     0.000000    -1.000000     0.000000     0.000000     0.500000
    9     1.000000   179.999999     0.000000     0.000000     1.000000     0.000000     0.000000     0.500000
   10    -1.000000   179.999999     0.000000     0.000000     1.000000     0.000000     0.000000     0.500000
   11     1.000000    60.000000     0.000000     0.000000     1.000000     0.000000     0.000000     0.500000
   12    -1.000000    60.000000     0.000000     0.000000     1.000000     0.000000     0.000000     0.500000
 
 Subroutine IBZKPT returns following result:
 ===========================================
 
 Found     81 irreducible k-points:
 
 Following reciprocal coordinates:
            Coordinates               Weight
  0.000000  0.000000  0.000000      1.000000
  0.142857  0.000000  0.000000      6.000000
  0.285714  0.000000  0.000000      6.000000
  0.428571  0.000000  0.000000      6.000000
  0.142857  0.142857  0.000000      6.000000
  0.285714  0.142857  0.000000      6.000000
  0.428571  0.142857  0.000000      6.000000
 -0.428571  0.142857  0.000000      6.000000
  0.285714  0.285714  0.000000      6.000000
  0.000000  0.000000  0.062500      2.000000
  0.142857  0.000000  0.062500     12.000000
  0.285714  0.000000  0.062500     12.000000
  0.428571  0.000000  0.062500     12.000000
  0.142857  0.142857  0.062500     12.000000
  0.285714  0.142857  0.062500     12.000000
  0.428571  0.142857  0.062500     12.000000
 -0.428571  0.142857  0.062500     12.000000
  0.285714  0.285714  0.062500     12.000000
  0.000000  0.000000  0.125000      2.000000
  0.142857  0.000000  0.125000     12.000000
  0.285714  0.000000  0.125000     12.000000
  0.428571  0.000000  0.125000     12.000000
  0.142857  0.142857  0.125000     12.000000
  0.285714  0.142857  0.125000     12.000000
  0.428571  0.142857  0.125000     12.000000
 -0.428571  0.142857  0.125000     12.000000
  0.285714  0.285714  0.125000     12.000000
  0.000000  0.000000  0.187500      2.000000
  0.142857  0.000000  0.187500     12.000000
  0.285714  0.000000  0.187500     12.000000
  0.428571  0.000000  0.187500     12.000000
  0.142857  0.142857  0.187500     12.000000
  0.285714  0.142857  0.187500     12.000000
  0.428571  0.142857  0.187500     12.000000
 -0.428571  0.142857  0.187500     12.000000
  0.285714  0.285714  0.187500     12.000000
  0.000000  0.000000  0.250000      2.000000
  0.142857  0.000000  0.250000     12.000000
  0.285714  0.000000  0.250000     12.000000
  0.428571  0.000000  0.250000     12.000000
  0.142857  0.142857  0.250000     12.000000
  0.285714  0.142857  0.250000     12.000000
  0.428571  0.142857  0.250000     12.000000
 -0.428571  0.142857  0.250000     12.000000
  0.285714  0.285714  0.250000     12.000000
  0.000000  0.000000  0.312500      2.000000
  0.142857  0.000000  0.312500     12.000000
  0.285714  0.000000  0.312500     12.000000
  0.428571  0.000000  0.312500     12.000000
  0.142857  0.142857  0.312500     12.000000
  0.285714  0.142857  0.312500     12.000000
  0.428571  0.142857  0.312500     12.000000
 -0.428571  0.142857  0.312500     12.000000
  0.285714  0.285714  0.312500     12.000000
  0.000000  0.000000  0.375000      2.000000
  0.142857  0.000000  0.375000     12.000000
  0.285714  0.000000  0.375000     12.000000
  0.428571  0.000000  0.375000     12.000000
  0.142857  0.142857  0.375000     12.000000
  0.285714  0.142857  0.375000     12.000000
  0.428571  0.142857  0.375000     12.000000
 -0.428571  0.142857  0.375000     12.000000
  0.285714  0.285714  0.375000     12.000000
  0.000000  0.000000  0.437500      2.000000
  0.142857  0.000000  0.437500     12.000000
  0.285714  0.000000  0.437500     12.000000
  0.428571  0.000000  0.437500     12.000000
  0.142857  0.142857  0.437500     12.000000
  0.285714  0.142857  0.437500     12.000000
  0.428571  0.142857  0.437500     12.000000
 -0.428571  0.142857  0.437500     12.000000
  0.285714  0.285714  0.437500     12.000000
  0.000000  0.000000  0.500000      1.000000
  0.142857  0.000000  0.500000      6.000000
  0.285714  0.000000  0.500000      6.000000
  0.428571  0.000000  0.500000      6.000000
  0.142857  0.142857  0.500000      6.000000
  0.285714  0.142857  0.500000      6.000000
  0.428571  0.142857  0.500000      6.000000
 -0.428571  0.142857  0.500000      6.000000
  0.285714  0.285714  0.500000      6.000000
 
 Following cartesian coordinates:
            Coordinates               Weight
  0.000000  0.000000  0.000000      1.000000
  0.017942 -0.010359  0.000000      6.000000
  0.035884 -0.020718  0.000000      6.000000
  0.053827 -0.031077  0.000000      6.000000
  0.035884  0.000000  0.000000      6.000000
  0.053827 -0.010359  0.000000      6.000000
  0.071769 -0.020718  0.000000      6.000000
 -0.035884  0.041436  0.000000      6.000000
  0.071769  0.000000  0.000000      6.000000
  0.000000  0.000000  0.022317      2.000000
  0.017942 -0.010359  0.022317     12.000000
  0.035884 -0.020718  0.022317     12.000000
  0.053827 -0.031077  0.022317     12.000000
  0.035884  0.000000  0.022317     12.000000
  0.053827 -0.010359  0.022317     12.000000
  0.071769 -0.020718  0.022317     12.000000
 -0.035884  0.041436  0.022317     12.000000
  0.071769  0.000000  0.022317     12.000000
  0.000000  0.000000  0.044635      2.000000
  0.017942 -0.010359  0.044635     12.000000
  0.035884 -0.020718  0.044635     12.000000
  0.053827 -0.031077  0.044635     12.000000
  0.035884  0.000000  0.044635     12.000000
  0.053827 -0.010359  0.044635     12.000000
  0.071769 -0.020718  0.044635     12.000000
 -0.035884  0.041436  0.044635     12.000000
  0.071769  0.000000  0.044635     12.000000
  0.000000  0.000000  0.066952      2.000000
  0.017942 -0.010359  0.066952     12.000000
  0.035884 -0.020718  0.066952     12.000000
  0.053827 -0.031077  0.066952     12.000000
  0.035884  0.000000  0.066952     12.000000
  0.053827 -0.010359  0.066952     12.000000
  0.071769 -0.020718  0.066952     12.000000
 -0.035884  0.041436  0.066952     12.000000
  0.071769  0.000000  0.066952     12.000000
  0.000000  0.000000  0.089270      2.000000
  0.017942 -0.010359  0.089270     12.000000
  0.035884 -0.020718  0.089270     12.000000
  0.053827 -0.031077  0.089270     12.000000
  0.035884  0.000000  0.089270     12.000000
  0.053827 -0.010359  0.089270     12.000000
  0.071769 -0.020718  0.089270     12.000000
 -0.035884  0.041436  0.089270     12.000000
  0.071769  0.000000  0.089270     12.000000
  0.000000  0.000000  0.111587      2.000000
  0.017942 -0.010359  0.111587     12.000000
  0.035884 -0.020718  0.111587     12.000000
  0.053827 -0.031077  0.111587     12.000000
  0.035884  0.000000  0.111587     12.000000
  0.053827 -0.010359  0.111587     12.000000
  0.071769 -0.020718  0.111587     12.000000
 -0.035884  0.041436  0.111587     12.000000
  0.071769  0.000000  0.111587     12.000000
  0.000000  0.000000  0.133905      2.000000
  0.017942 -0.010359  0.133905     12.000000
  0.035884 -0.020718  0.133905     12.000000
  0.053827 -0.031077  0.133905     12.000000
  0.035884  0.000000  0.133905     12.000000
  0.053827 -0.010359  0.133905     12.000000
  0.071769 -0.020718  0.133905     12.000000
 -0.035884  0.041436  0.133905     12.000000
  0.071769  0.000000  0.133905     12.000000
  0.000000  0.000000  0.156222      2.000000
  0.017942 -0.010359  0.156222     12.000000
  0.035884 -0.020718  0.156222     12.000000
  0.053827 -0.031077  0.156222     12.000000
  0.035884  0.000000  0.156222     12.000000
  0.053827 -0.010359  0.156222     12.000000
  0.071769 -0.020718  0.156222     12.000000
 -0.035884  0.041436  0.156222     12.000000
  0.071769  0.000000  0.156222     12.000000
  0.000000  0.000000  0.178540      1.000000
  0.017942 -0.010359  0.178540      6.000000
  0.035884 -0.020718  0.178540      6.000000
  0.053827 -0.031077  0.178540      6.000000
  0.035884  0.000000  0.178540      6.000000
  0.053827 -0.010359  0.178540      6.000000
  0.071769 -0.020718  0.178540      6.000000
 -0.035884  0.041436  0.178540      6.000000
  0.071769  0.000000  0.178540      6.000000
 


--------------------------------------------------------------------------------------------------------




 Dimension of arrays:
   k-points           NKPTS =     81   k-points in BZ     NKDIM =     81   number of bands    NBANDS=     40
   number of dos      NEDOS =    301   number of ions     NIONS =     14
   non local maximal  LDIM  =      4   non local SUM 2l+1 LMDIM =      8
   total plane-waves  NPLWV =  52488
   max r-space proj   IRMAX =   7049   max aug-charges    IRDMAX=  11612
   dimension x,y,z NGX =    54 NGY =   54 NGZ =   18
   dimension x,y,z NGXF=   108 NGYF=  108 NGZF=   36
   support grid    NGXF=   108 NGYF=  108 NGZF=   36
   ions per type =               6   8
   NGX,Y,Z   is equivalent  to a cutoff of  11.28, 11.28, 10.69 a.u.
   NGXF,Y,Z  is equivalent  to a cutoff of  22.55, 22.55, 21.37 a.u.

 SYSTEM =  unknown system                          
 POSCAR =  Si6 N8                                  

 Startparameter for this run:
   NWRITE =      2    write-flag & timer
   PREC   = accura    normal or accurate (medium, high low for compatibility)
   ISTART =      0    job   : 0-new  1-cont  2-samecut
   ICHARG =      2    charge: 1-file 2-atom 10-const
   ISPIN  =      1    spin polarized calculation?
   LNONCOLLINEAR =      F non collinear calculations
   LSORBIT =      F    spin-orbit coupling
   INIWAV =      1    electr: 0-lowe 1-rand  2-diag
   LASPH  =      F    aspherical Exc in radial PAW
   METAGGA=      F    non-selfconsistent MetaGGA calc.

 Electronic Relaxation 1
   ENCUT  =  400.0 eV  29.40 Ry    5.42 a.u.  12.98 12.98  4.57*2*pi/ulx,y,z
   ENINI  =  400.0     initial cutoff
   ENAUG  =  627.1 eV  augmentation charge cutoff
   NELM   =     60;   NELMIN=  2; NELMDL= -5     # of ELM steps 
   EDIFF  = 0.1E-03   stopping-criterion for ELM
   LREAL  =      T    real-space projection
   NLSPLINE    = F    spline interpolate recip. space projectors
   LCOMPAT=      F    compatible to vasp.4.4
   GGA_COMPAT  = T    GGA compatible to vasp.4.4-vasp.4.6
   LMAXPAW     = -100 max onsite density
   LMAXMIX     =    2 max onsite mixed and CHGCAR
   VOSKOWN=      0    Vosko Wilk Nusair interpolation
   ROPT   =   -0.00025  -0.00025
 Ionic relaxation
   EDIFFG = 0.1E-02   stopping-criterion for IOM
   NSW    =    100    number of steps for IOM
   NBLOCK =      1;   KBLOCK =    100    inner block; outer block 
   IBRION =      2    ionic relax: 0-MD 1-quasi-New 2-CG
   NFREE  =      1    steps in history (QN), initial steepest desc. (CG)
   ISIF   =      2    stress and relaxation
   IWAVPR =     11    prediction:  0-non 1-charg 2-wave 3-comb
   ISYM   =      2    0-nonsym 1-usesym 2-fastsym
   LCORR  =      T    Harris-Foulkes like correction to forces

   POTIM  = 0.5000    time-step for ionic-motion
   TEIN   =    0.0    initial temperature
   TEBEG  =    0.0;   TEEND  =   0.0 temperature during run
   SMASS  =  -3.00    Nose mass-parameter (am)
   estimated Nose-frequenzy (Omega)   =  0.10E-29 period in steps =****** mass=  -0.145E-26a.u.
   SCALEE = 1.0000    scale energy and forces
   NPACO  =    256;   APACO  = 16.0  distance and # of slots for P.C.
   PSTRESS=    0.0 pullay stress

  Mass of Ions in am
   POMASS =  14.00 28.09
  Ionic Valenz
   ZVAL   =   5.00  4.00
  Atomic Wigner-Seitz radii
   RWIGS  =  -1.00 -1.00
  virtual crystal weights 
   VCA    =   1.00  1.00
   NELECT =      62.0000    total number of electrons
   NUPDOWN=      -1.0000    fix difference up-down

 DOS related values:
   EMIN   =  10.00;   EMAX   =-10.00  energy-range for DOS
   EFERMI =   0.00
   ISMEAR =     2;   SIGMA  =   0.10  broadening in eV -4-tet -1-fermi 0-gaus

 Electronic relaxation 2 (details)
   IALGO  =     68    algorithm
   LDIAG  =      T    sub-space diagonalisation (order eigenvalues)
   LSUBROT=      F    optimize rotation matrix (better conditioning)
   TURBO    =      0    0=normal 1=particle mesh
   IRESTART =      0    0=no restart 2=restart with 2 vectors
   NREBOOT  =      0    no. of reboots
   NMIN     =      0    reboot dimension
   EREF     =   0.00    reference energy to select bands
   IMIX   =      4    mixing-type and parameters
     AMIX     =   0.40;   BMIX     =  1.00
     AMIX_MAG =   1.60;   BMIX_MAG =  1.00
     AMIN     =   0.10
     WC   =   100.;   INIMIX=   1;  MIXPRE=   1;  MAXMIX= -45

 Intra band minimization:
   WEIMIN = 0.0010     energy-eigenvalue tresh-hold
   EBREAK =  0.63E-06  absolut break condition
   DEPER  =   0.30     relativ break condition  

   TIME   =   0.40     timestep for ELM

  volume/ion in A,a.u.               =      10.98        74.11
  Fermi-wavevector in a.u.,A,eV,Ry     =   1.209484  2.285593 19.903304  1.462852
  Thomas-Fermi vector in A             =   2.345060
 
 Write flags
   LWAVE        =      F    write WAVECAR
   LDOWNSAMPLE  =      F    k-point downsampling of WAVECAR
   LCHARG       =      F    write CHGCAR
   LVTOT        =      F    write LOCPOT, total local potential
   LVHAR        =      F    write LOCPOT, Hartree potential only
   LELF         =      F    write electronic localiz. function (ELF)
   LORBIT       =      0    0 simple, 1 ext, 2 COOP (PROOUT), +10 PAW based schemes


 Dipole corrections
   LMONO  =      F    monopole corrections only (constant potential shift)
   LDIPOL =      F    correct potential (dipole corrections)
   IDIPOL =      0    1-x, 2-y, 3-z, 4-all directions 
   EPSILON=  1.0000000 bulk dielectric constant

 Exchange correlation treatment:
   GGA     =    --    GGA type
   LEXCH   =     8    internal setting for exchange type
   VOSKOWN=      0    Vosko Wilk Nusair interpolation
   LHFCALC =     F    Hartree Fock is set to
   LHFONE  =     F    Hartree Fock one center treatment
   AEXX    =    0.0000 exact exchange contribution

 Linear response parameters
   LEPSILON=     F    determine dielectric tensor
   LRPA    =     F    only Hartree local field effects (RPA)
   LNABLA  =     F    use nabla operator in PAW spheres
   LVEL    =     F    velocity operator in full k-point grid
   LINTERFAST=   F  fast interpolation
   KINTER  =     0    interpolate to denser k-point grid
   CSHIFT  =0.1000    complex shift for real part using Kramers Kronig
   OMEGAMAX=  -1.0    maximum frequency
   DEG_THRESHOLD= 0.2000000E-02 threshold for treating states as degnerate
   RTIME   =   -0.100 relaxation time in fs
  (WPLASMAI=    0.000 imaginary part of plasma frequency in eV, 0.658/RTIME)
   DFIELD  = 0.0000000 0.0000000 0.0000000 field for delta impulse in time
 
 Orbital magnetization related:
   ORBITALMAG=     F  switch on orbital magnetization
   LCHIMAG   =     F  perturbation theory with respect to B field
   DQ        =  0.001000  dq finite difference perturbation B field
   LLRAUG    =     F  two centre corrections for induced B field



--------------------------------------------------------------------------------------------------------


 conjugate gradient relaxation of ions
 charge density and potential will be updated during run
 non-spin polarized calculation
 RMM-DIIS sequential band-by-band and
  variant of blocked Davidson during initial phase
 perform sub-space diagonalisation
    before iterative eigenvector-optimisation
 modified Broyden-mixing scheme, WC =      100.0
 initial mixing is a Kerker type mixing with AMIX =  0.4000 and BMIX =      1.0000
 Hartree-type preconditioning will be used
 using additional bands            9
 real space projection scheme for non local part
 use partial core corrections
 calculate Harris-corrections to forces 
   (improved forces if not selfconsistent)
 use gradient corrections 
 use of overlap-Matrix (Vanderbilt PP)
 Methfessel and Paxton  Order N= 2 SIGMA  =   0.10


--------------------------------------------------------------------------------------------------------


  energy-cutoff  :      400.00
  volume of cell :      153.75
      direct lattice vectors                 reciprocal lattice vectors
     3.981027834 -6.895342463  0.000000000     0.125595706 -0.072512714  0.000000000
     3.981027824  6.895342469  0.000000000     0.125595706  0.072512715  0.000000000
     0.000000000  0.000000000  2.800494485     0.000000000  0.000000000  0.357079796

  length of vectors
     7.962055658  7.962055658  2.800494485     0.145025429  0.145025429  0.357079796


 
 k-points in units of 2pi/SCALE and weight: Automatic mesh                          
   0.00000000  0.00000000  0.00000000       0.001
   0.01794224 -0.01035896  0.00000000       0.008
   0.03588449 -0.02071792  0.00000000       0.008
   0.05382673 -0.03107688  0.00000000       0.008
   0.03588449  0.00000000  0.00000000       0.008
   0.05382673 -0.01035896  0.00000000       0.008
   0.07176897 -0.02071792  0.00000000       0.008
  -0.03588449  0.04143584  0.00000000       0.008
   0.07176897  0.00000000  0.00000000       0.008
   0.00000000  0.00000000  0.02231749       0.003
   0.01794224 -0.01035896  0.02231749       0.015
   0.03588449 -0.02071792  0.02231749       0.015
   0.05382673 -0.03107688  0.02231749       0.015
   0.03588449  0.00000000  0.02231749       0.015
   0.05382673 -0.01035896  0.02231749       0.015
   0.07176897 -0.02071792  0.02231749       0.015
  -0.03588449  0.04143584  0.02231749       0.015
   0.07176897  0.00000000  0.02231749       0.015
   0.00000000  0.00000000  0.04463497       0.003
   0.01794224 -0.01035896  0.04463497       0.015
   0.03588449 -0.02071792  0.04463497       0.015
   0.05382673 -0.03107688  0.04463497       0.015
   0.03588449  0.00000000  0.04463497       0.015
   0.05382673 -0.01035896  0.04463497       0.015
   0.07176897 -0.02071792  0.04463497       0.015
  -0.03588449  0.04143584  0.04463497       0.015
   0.07176897  0.00000000  0.04463497       0.015
   0.00000000  0.00000000  0.06695246       0.003
   0.01794224 -0.01035896  0.06695246       0.015
   0.03588449 -0.02071792  0.06695246       0.015
   0.05382673 -0.03107688  0.06695246       0.015
   0.03588449  0.00000000  0.06695246       0.015
   0.05382673 -0.01035896  0.06695246       0.015
   0.07176897 -0.02071792  0.06695246       0.015
  -0.03588449  0.04143584  0.06695246       0.015
   0.07176897  0.00000000  0.06695246       0.015
   0.00000000  0.00000000  0.08926995       0.003
   0.01794224 -0.01035896  0.08926995       0.015
   0.03588449 -0.02071792  0.08926995       0.015
   0.05382673 -0.03107688  0.08926995       0.015
   0.03588449  0.00000000  0.08926995       0.015
   0.05382673 -0.01035896  0.08926995       0.015
   0.07176897 -0.02071792  0.08926995       0.015
  -0.03588449  0.04143584  0.08926995       0.015
   0.07176897  0.00000000  0.08926995       0.015
   0.00000000  0.00000000  0.11158744       0.003
   0.01794224 -0.01035896  0.11158744       0.015
   0.03588449 -0.02071792  0.11158744       0.015
   0.05382673 -0.03107688  0.11158744       0.015
   0.03588449  0.00000000  0.11158744       0.015
   0.05382673 -0.01035896  0.11158744       0.015
   0.07176897 -0.02071792  0.11158744       0.015
  -0.03588449  0.04143584  0.11158744       0.015
   0.07176897  0.00000000  0.11158744       0.015
   0.00000000  0.00000000  0.13390492       0.003
   0.01794224 -0.01035896  0.13390492       0.015
   0.03588449 -0.02071792  0.13390492       0.015
   0.05382673 -0.03107688  0.13390492       0.015
   0.03588449  0.00000000  0.13390492       0.015
   0.05382673 -0.01035896  0.13390492       0.015
   0.07176897 -0.02071792  0.13390492       0.015
  -0.03588449  0.04143584  0.13390492       0.015
   0.07176897  0.00000000  0.13390492       0.015
   0.00000000  0.00000000  0.15622241       0.003
   0.01794224 -0.01035896  0.15622241       0.015
   0.03588449 -0.02071792  0.15622241       0.015
   0.05382673 -0.03107688  0.15622241       0.015
   0.03588449  0.00000000  0.15622241       0.015
   0.05382673 -0.01035896  0.15622241       0.015
   0.07176897 -0.02071792  0.15622241       0.015
  -0.03588449  0.04143584  0.15622241       0.015
   0.07176897  0.00000000  0.15622241       0.015
   0.00000000  0.00000000  0.17853990       0.001
   0.01794224 -0.01035896  0.17853990       0.008
   0.03588449 -0.02071792  0.17853990       0.008
   0.05382673 -0.03107688  0.17853990       0.008
   0.03588449  0.00000000  0.17853990       0.008
   0.05382673 -0.01035896  0.17853990       0.008
   0.07176897 -0.02071792  0.17853990       0.008
  -0.03588449  0.04143584  0.17853990       0.008
   0.07176897  0.00000000  0.17853990       0.008
 
 k-points in reciprocal lattice and weights: Automatic mesh                          
   0.00000000  0.00000000  0.00000000       0.001
   0.14285714  0.00000000  0.00000000       0.008
   0.28571429  0.00000000  0.00000000       0.008
   0.42857143  0.00000000  0.00000000       0.008
   0.14285714  0.14285714  0.00000000       0.008
   0.28571429  0.14285714  0.00000000       0.008
   0.42857143  0.14285714  0.00000000       0.008
  -0.42857143  0.14285714  0.00000000       0.008
   0.28571429  0.28571429  0.00000000       0.008
   0.00000000  0.00000000  0.06250000       0.003
   0.14285714  0.00000000  0.06250000       0.015
   0.28571429  0.00000000  0.06250000       0.015
   0.42857143  0.00000000  0.06250000       0.015
   0.14285714  0.14285714  0.06250000       0.015
   0.28571429  0.14285714  0.06250000       0.015
   0.42857143  0.14285714  0.06250000       0.015
  -0.42857143  0.14285714  0.06250000       0.015
   0.28571429  0.28571429  0.06250000       0.015
   0.00000000  0.00000000  0.12500000       0.003
   0.14285714  0.00000000  0.12500000       0.015
   0.28571429  0.00000000  0.12500000       0.015
   0.42857143  0.00000000  0.12500000       0.015
   0.14285714  0.14285714  0.12500000       0.015
   0.28571429  0.14285714  0.12500000       0.015
   0.42857143  0.14285714  0.12500000       0.015
  -0.42857143  0.14285714  0.12500000       0.015
   0.28571429  0.28571429  0.12500000       0.015
   0.00000000  0.00000000  0.18750000       0.003
   0.14285714  0.00000000  0.18750000       0.015
   0.28571429  0.00000000  0.18750000       0.015
   0.42857143  0.00000000  0.18750000       0.015
   0.14285714  0.14285714  0.18750000       0.015
   0.28571429  0.14285714  0.18750000       0.015
   0.42857143  0.14285714  0.18750000       0.015
  -0.42857143  0.14285714  0.18750000       0.015
   0.28571429  0.28571429  0.18750000       0.015
   0.00000000  0.00000000  0.25000000       0.003
   0.14285714  0.00000000  0.25000000       0.015
   0.28571429  0.00000000  0.25000000       0.015
   0.42857143  0.00000000  0.25000000       0.015
   0.14285714  0.14285714  0.25000000       0.015
   0.28571429  0.14285714  0.25000000       0.015
   0.42857143  0.14285714  0.25000000       0.015
  -0.42857143  0.14285714  0.25000000       0.015
   0.28571429  0.28571429  0.25000000       0.015
   0.00000000  0.00000000  0.31250000       0.003
   0.14285714  0.00000000  0.31250000       0.015
   0.28571429  0.00000000  0.31250000       0.015
   0.42857143  0.00000000  0.31250000       0.015
   0.14285714  0.14285714  0.31250000       0.015
   0.28571429  0.14285714  0.31250000       0.015
   0.42857143  0.14285714  0.31250000       0.015
  -0.42857143  0.14285714  0.31250000       0.015
   0.28571429  0.28571429  0.31250000       0.015
   0.00000000  0.00000000  0.37500000       0.003
   0.14285714  0.00000000  0.37500000       0.015
   0.28571429  0.00000000  0.37500000       0.015
   0.42857143  0.00000000  0.37500000       0.015
   0.14285714  0.14285714  0.37500000       0.015
   0.28571429  0.14285714  0.37500000       0.015
   0.42857143  0.14285714  0.37500000       0.015
  -0.42857143  0.14285714  0.37500000       0.015
   0.28571429  0.28571429  0.37500000       0.015
   0.00000000  0.00000000  0.43750000       0.003
   0.14285714  0.00000000  0.43750000       0.015
   0.28571429  0.00000000  0.43750000       0.015
   0.42857143  0.00000000  0.43750000       0.015
   0.14285714  0.14285714  0.43750000       0.015
   0.28571429  0.14285714  0.43750000       0.015
   0.42857143  0.14285714  0.43750000       0.015
  -0.42857143  0.14285714  0.43750000       0.015
   0.28571429  0.28571429  0.43750000       0.015
   0.00000000  0.00000000  0.50000000       0.001
   0.14285714  0.00000000  0.50000000       0.008
   0.28571429  0.00000000  0.50000000       0.008
   0.42857143  0.00000000  0.50000000       0.008
   0.14285714  0.14285714  0.50000000       0.008
   0.28571429  0.14285714  0.50000000       0.008
   0.42857143  0.14285714  0.50000000       0.008
  -0.42857143  0.14285714  0.50000000       0.008
   0.28571429  0.28571429  0.50000000       0.008
 
 position of ions in fractional coordinates (direct lattice) 
   0.19708959  0.83151770  0.75000000
   0.36557189  0.19708959  0.25000000
   0.83151770  0.63442811  0.25000000
   0.16848230  0.36557189  0.75000000
   0.63442811  0.80291041  0.75000000
   0.80291041  0.16848230  0.25000000
   0.33333333  0.66666667  0.75000000
   0.66666667  0.33333333  0.25000000
   0.96358754  0.61246345  0.75000000
   0.35112409  0.96358754  0.25000000
   0.61246345  0.64887591  0.25000000
   0.38753655  0.35112409  0.75000000
   0.03641246  0.38753655  0.25000000
   0.64887591  0.03641246  0.75000000
 
 position of ions in cartesian coordinates  (Angst):
   4.09491426  4.37459909  2.10037086
   2.23997102 -1.16174314  0.70012362
   5.83597108 -1.35900023  0.70012362
   2.12608458  1.35900024  2.10037086
   5.72208464  1.16174314  2.10037086
   3.86714139 -4.37459909  0.70012362
   3.98102783  2.29844749  2.10037086
   3.98102783 -2.29844749  0.70012362
   6.27430286 -2.42112085  2.10037086
   5.23390359  4.22314524  0.70012362
   5.02142709  0.25107638  0.70012362
   2.94062857 -0.25107637  2.10037086
   1.68775280  2.42112086  0.70012362
   2.72815207 -4.22314523  2.10037086
 


--------------------------------------------------------------------------------------------------------


 k-point  1 :   0.0000 0.0000 0.0000  plane waves:    2775
 k-point  2 :   0.1429 0.0000 0.0000  plane waves:    2799
 k-point  3 :   0.2857 0.0000 0.0000  plane waves:    2802
 k-point  4 :   0.4286 0.0000 0.0000  plane waves:    2820
 k-point  5 :   0.1429 0.1429 0.0000  plane waves:    2801
 k-point  6 :   0.2857 0.1429 0.0000  plane waves:    2807
 k-point  7 :   0.4286 0.1429 0.0000  plane waves:    2819
 k-point  8 :  -0.4286 0.1429 0.0000  plane waves:    2807
 k-point  9 :   0.2857 0.2857 0.0000  plane waves:    2805
 k-point 10 :   0.0000 0.0000 0.0625  plane waves:    2799
 k-point 11 :   0.1429 0.0000 0.0625  plane waves:    2797
 k-point 12 :   0.2857 0.0000 0.0625  plane waves:    2791
 k-point 13 :   0.4286 0.0000 0.0625  plane waves:    2812
 k-point 14 :   0.1429 0.1429 0.0625  plane waves:    2800
 k-point 15 :   0.2857 0.1429 0.0625  plane waves:    2818
 k-point 16 :   0.4286 0.1429 0.0625  plane waves:    2813
 k-point 17 :  -0.4286 0.1429 0.0625  plane waves:    2818
 k-point 18 :   0.2857 0.2857 0.0625  plane waves:    2818
 k-point 19 :   0.0000 0.0000 0.1250  plane waves:    2805
 k-point 20 :   0.1429 0.0000 0.1250  plane waves:    2795
 k-point 21 :   0.2857 0.0000 0.1250  plane waves:    2806
 k-point 22 :   0.4286 0.0000 0.1250  plane waves:    2802
 k-point 23 :   0.1429 0.1429 0.1250  plane waves:    2801
 k-point 24 :   0.2857 0.1429 0.1250  plane waves:    2814
 k-point 25 :   0.4286 0.1429 0.1250  plane waves:    2804
 k-point 26 :  -0.4286 0.1429 0.1250  plane waves:    2814
 k-point 27 :   0.2857 0.2857 0.1250  plane waves:    2808
 k-point 28 :   0.0000 0.0000 0.1875  plane waves:    2799
 k-point 29 :   0.1429 0.0000 0.1875  plane waves:    2804
 k-point 30 :   0.2857 0.0000 0.1875  plane waves:    2802
 k-point 31 :   0.4286 0.0000 0.1875  plane waves:    2803
 k-point 32 :   0.1429 0.1429 0.1875  plane waves:    2801
 k-point 33 :   0.2857 0.1429 0.1875  plane waves:    2806
 k-point 34 :   0.4286 0.1429 0.1875  plane waves:    2799
 k-point 35 :  -0.4286 0.1429 0.1875  plane waves:    2806
 k-point 36 :   0.2857 0.2857 0.1875  plane waves:    2800
 k-point 37 :   0.0000 0.0000 0.2500  plane waves:    2769
 k-point 38 :   0.1429 0.0000 0.2500  plane waves:    2795
 k-point 39 :   0.2857 0.0000 0.2500  plane waves:    2792
 k-point 40 :   0.4286 0.0000 0.2500  plane waves:    2790
 k-point 41 :   0.1429 0.1429 0.2500  plane waves:    2800
 k-point 42 :   0.2857 0.1429 0.2500  plane waves:    2795
 k-point 43 :   0.4286 0.1429 0.2500  plane waves:    2796
 k-point 44 :  -0.4286 0.1429 0.2500  plane waves:    2795
 k-point 45 :   0.2857 0.2857 0.2500  plane waves:    2802
 k-point 46 :   0.0000 0.0000 0.3125  plane waves:    2787
 k-point 47 :   0.1429 0.0000 0.3125  plane waves:    2787
 k-point 48 :   0.2857 0.0000 0.3125  plane waves:    2786
 k-point 49 :   0.4286 0.0000 0.3125  plane waves:    2777
 k-point 50 :   0.1429 0.1429 0.3125  plane waves:    2791
 k-point 51 :   0.2857 0.1429 0.3125  plane waves:    2786
 k-point 52 :   0.4286 0.1429 0.3125  plane waves:    2798
 k-point 53 :  -0.4286 0.1429 0.3125  plane waves:    2786
 k-point 54 :   0.2857 0.2857 0.3125  plane waves:    2802
 k-point 55 :   0.0000 0.0000 0.3750  plane waves:    2781
 k-point 56 :   0.1429 0.0000 0.3750  plane waves:    2768
 k-point 57 :   0.2857 0.0000 0.3750  plane waves:    2779
 k-point 58 :   0.4286 0.0000 0.3750  plane waves:    2783
 k-point 59 :   0.1429 0.1429 0.3750  plane waves:    2770
 k-point 60 :   0.2857 0.1429 0.3750  plane waves:    2783
 k-point 61 :   0.4286 0.1429 0.3750  plane waves:    2789
 k-point 62 :  -0.4286 0.1429 0.3750  plane waves:    2783
 k-point 63 :   0.2857 0.2857 0.3750  plane waves:    2793
 k-point 64 :   0.0000 0.0000 0.4375  plane waves:    2776
 k-point 65 :   0.1429 0.0000 0.4375  plane waves:    2761
 k-point 66 :   0.2857 0.0000 0.4375  plane waves:    2769
 k-point 67 :   0.4286 0.0000 0.4375  plane waves:    2769
 k-point 68 :   0.1429 0.1429 0.4375  plane waves:    2770
 k-point 69 :   0.2857 0.1429 0.4375  plane waves:    2779
 k-point 70 :   0.4286 0.1429 0.4375  plane waves:    2772
 k-point 71 :  -0.4286 0.1429 0.4375  plane waves:    2779
 k-point 72 :   0.2857 0.2857 0.4375  plane waves:    2777
 k-point 73 :   0.0000 0.0000 0.5000  plane waves:    2794
 k-point 74 :   0.1429 0.0000 0.5000  plane waves:    2772
 k-point 75 :   0.2857 0.0000 0.5000  plane waves:    2764
 k-point 76 :   0.4286 0.0000 0.5000  plane waves:    2764
 k-point 77 :   0.1429 0.1429 0.5000  plane waves:    2782
 k-point 78 :   0.2857 0.1429 0.5000  plane waves:    2774
 k-point 79 :   0.4286 0.1429 0.5000  plane waves:    2768
 k-point 80 :  -0.4286 0.1429 0.5000  plane waves:    2774
 k-point 81 :   0.2857 0.2857 0.5000  plane waves:    2776

 maximum and minimum number of plane-waves per node :       726      676

 maximum number of plane-waves:      2820
 maximum index in each direction: 
   IXMAX=   13   IYMAX=   12   IZMAX=    4
   IXMIN=  -13   IYMIN=  -13   IZMIN=   -5


 real space projection operators:
  total allocation   :       4383.75 KBytes
  max/ min on nodes  :       1134.00       1058.75


 parallel 3D FFT for wavefunctions:
    minimum data exchange during FFTs selected (reduces bandwidth)
 parallel 3D FFT for charge:
    minimum data exchange during FFTs selected (reduces bandwidth)


 total amount of memory used by VASP MPI-rank0    46120. kBytes
=======================================================================

   base      :      30000. kBytes
   nonlr-proj:       3064. kBytes
   fftplans  :       1366. kBytes
   grid      :       2140. kBytes
   one-center:         12. kBytes
   wavefun   :       9538. kBytes
 
     INWAV:  cpu time    0.0000: real time    0.0000
 Broyden mixing: mesh for mixing (old mesh)
   NGX = 25   NGY = 25   NGZ =  9
  (NGX  =108   NGY  =108   NGZ  = 36)
  gives a total of   5625 points

 initial charge density was supplied:
 charge density of overlapping atoms calculated
 number of electron      62.0000000 magnetization 
 keeping initial charge density in first step


--------------------------------------------------------------------------------------------------------


 Maximum index for non-local projection operator         1802
 Maximum index for augmentation-charges          885 (set IRDMAX)


--------------------------------------------------------------------------------------------------------


 First call to EWALD:  gamma=   0.331
 Maximum number of real-space cells 2x 2x 5
 Maximum number of reciprocal cells 4x 4x 2

    FEWALD:  cpu time    0.0019: real time    0.0023


--------------------------------------- Iteration      1(   1)  ---------------------------------------


    POTLOK:  cpu time    0.0198: real time    0.0259
    SETDIJ:  cpu time    0.0023: real time    0.0023
     EDDAV:  cpu time    3.0013: real time    3.0011
       DOS:  cpu time    0.0029: real time    0.0029
    --------------------------------------------
      LOOP:  cpu time    3.0264: real time    3.0323

 eigenvalue-minimisations  :  6544
 total energy-change (2. order) : 0.2261949E+03  (-0.2556174E+04)
 number of electron      62.0000000 magnetization 
 augmentation part       62.0000000 magnetization 

 Free energy of the ion-electron system (eV)
  ---------------------------------------------------
  alpha Z        PSCENC =        79.28787618
  Ewald energy   TEWEN  =     -2246.10524739
  -Hartree energ DENC   =      -513.46630709
  -exchange      EXHF   =         0.00000000
  -V(xc)+E(xc)   XCENC  =        53.14338241
  PAW double counting   =      1934.58678659    -1800.98643654
  entropy T*S    EENTRO =        -0.00015748
  eigenvalues    EBANDS =       308.35903948
  atomic energy  EATOM  =      2411.37598431
  Solvation  Ediel_sol  =         0.00000000
  ---------------------------------------------------
  free energy    TOTEN  =       226.19492048 eV

  energy without entropy =      226.19507796  energy(sigma->0) =      226.19495985


--------------------------------------------------------------------------------------------------------




--------------------------------------- Iteration      1(   2)  ---------------------------------------


     EDDAV:  cpu time    3.5741: real time    3.5756
       DOS:  cpu time    0.0032: real time    0.0032
    --------------------------------------------
      LOOP:  cpu time    3.5773: real time    3.5788

 eigenvalue-minimisations  :  8120
 total energy-change (2. order) :-0.3089288E+03  (-0.2959535E+03)
 number of electron      62.0000000 magnetization 
 augmentation part       62.0000000 magnetization 

 Free energy of the ion-electron system (eV)
  ---------------------------------------------------
  alpha Z        PSCENC =        79.28787618
  Ewald energy   TEWEN  =     -2246.10524739
  -Hartree energ DENC   =      -513.46630709
  -exchange      EXHF   =         0.00000000
  -V(xc)+E(xc)   XCENC  =        53.14338241
  PAW double counting   =      1934.58678659    -1800.98643654
  entropy T*S    EENTRO =         0.00046740
  eigenvalues    EBANDS =        -0.57042892
  atomic energy  EATOM  =      2411.37598431
  Solvation  Ediel_sol  =         0.00000000
  ---------------------------------------------------
  free energy    TOTEN  =       -82.73392305 eV

  energy without entropy =      -82.73439045  energy(sigma->0) =      -82.73403990


--------------------------------------------------------------------------------------------------------




--------------------------------------- Iteration      1(   3)  ---------------------------------------


     EDDAV:  cpu time    3.6281: real time    3.6302
       DOS:  cpu time    0.0032: real time    0.0032
    --------------------------------------------
      LOOP:  cpu time    3.6313: real time    3.6334

 eigenvalue-minimisations  :  8136
 total energy-change (2. order) :-0.2147821E+02  (-0.2103113E+02)
 number of electron      62.0000000 magnetization 
 augmentation part       62.0000000 magnetization 

 Free energy of the ion-electron system (eV)
  ---------------------------------------------------
  alpha Z        PSCENC =        79.28787618
  Ewald energy   TEWEN  =     -2246.10524739
  -Hartree energ DENC   =      -513.46630709
  -exchange      EXHF   =         0.00000000
  -V(xc)+E(xc)   XCENC  =        53.14338241
  PAW double counting   =      1934.58678659    -1800.98643654
  entropy T*S    EENTRO =         0.00038868
  eigenvalues    EBANDS =       -22.04856220
  atomic energy  EATOM  =      2411.37598431
  Solvation  Ediel_sol  =         0.00000000
  ---------------------------------------------------
  free energy    TOTEN  =      -104.21213505 eV

  energy without entropy =     -104.21252372  energy(sigma->0) =     -104.21223221


--------------------------------------------------------------------------------------------------------




--------------------------------------- Iteration      1(   4)  ---------------------------------------


     EDDAV:  cpu time    6.3853: real time    6.3835
       DOS:  cpu time    0.0033: real time    0.0033
    --------------------------------------------
      LOOP:  cpu time    6.3886: real time    6.3869

 eigenvalue-minimisations  :  8336
 total energy-change (2. order) :-0.5192642E+00  (-0.5168727E+00)
 number of electron      62.0000000 magnetization 
 augmentation part       62.0000000 magnetization 

 Free energy of the ion-electron system (eV)
  ---------------------------------------------------
  alpha Z        PSCENC =        79.28787618
  Ewald energy   TEWEN  =     -2246.10524739
  -Hartree energ DENC   =      -513.46630709
  -exchange      EXHF   =         0.00000000
  -V(xc)+E(xc)   XCENC  =        53.14338241
  PAW double counting   =      1934.58678659    -1800.98643654
  entropy T*S    EENTRO =         0.00010539
  eigenvalues    EBANDS =       -22.56754308
  atomic energy  EATOM  =      2411.37598431
  Solvation  Ediel_sol  =         0.00000000
  ---------------------------------------------------
  free energy    TOTEN  =      -104.73139921 eV

  energy without entropy =     -104.73150461  energy(sigma->0) =     -104.73142556


--------------------------------------------------------------------------------------------------------




--------------------------------------- Iteration      1(   5)  ---------------------------------------


     EDDAV:  cpu time   58.2972: real time   58.2445
       DOS:  cpu time    0.0034: real time    0.0034
    CHARGE:  cpu time    0.1665: real time    0.1665
    MIXING:  cpu time    0.0007: real time    0.0007
    --------------------------------------------
      LOOP:  cpu time   58.4677: real time   58.4150

 eigenvalue-minimisations  :  8288
 total energy-change (2. order) :-0.1227182E-01  (-0.1226419E-01)
 number of electron      62.0000010 magnetization 
 augmentation part        0.4104463 magnetization 

 Broyden mixing:
  rms(total) = 0.23455E+01    rms(broyden)= 0.23449E+01
  rms(prec ) = 0.33896E+01
  weight for this iteration     100.00

 Free energy of the ion-electron system (eV)
  ---------------------------------------------------
  alpha Z        PSCENC =        79.28787618
  Ewald energy   TEWEN  =     -2246.10524739
  -Hartree energ DENC   =      -513.46630709
  -exchange      EXHF   =         0.00000000
  -V(xc)+E(xc)   XCENC  =        53.14338241
  PAW double counting   =      1934.58678659    -1800.98643654
  entropy T*S    EENTRO =         0.00010113
  eigenvalues    EBANDS =       -22.57981064
  atomic energy  EATOM  =      2411.37598431
  Solvation  Ediel_sol  =         0.00000000
  ---------------------------------------------------
  free energy    TOTEN  =      -104.74367103 eV

  energy without entropy =     -104.74377216  energy(sigma->0) =     -104.74369632


--------------------------------------------------------------------------------------------------------




--------------------------------------- Iteration      1(   6)  ---------------------------------------


    POTLOK:  cpu time    0.0208: real time    0.0222
    SETDIJ:  cpu time    0.0023: real time    0.0023
    EDDIAG:  cpu time    0.4214: real time    0.4214
  RMM-DIIS:  cpu time    2.0678: real time    2.0676
    ORTHCH:  cpu time    0.0362: real time    0.0362
       DOS:  cpu time    0.0030: real time    0.0030
    CHARGE:  cpu time    0.1672: real time    0.1672
    MIXING:  cpu time    0.0006: real time    0.0006
    --------------------------------------------
      LOOP:  cpu time    2.7194: real time    2.7205

 eigenvalue-minimisations  :  6480
 total energy-change (2. order) : 0.8922982E+01  (-0.4516319E+01)
 number of electron      62.0000011 magnetization 
 augmentation part       -0.3372385 magnetization 

 Broyden mixing:
  rms(total) = 0.10723E+01    rms(broyden)= 0.10715E+01
  rms(prec ) = 0.12616E+01
  weight for this iteration     100.00

 eigenvalues of (default mixing * dielectric matrix)
  average eigenvalue GAMMA=   1.0830
  1.0830

 Free energy of the ion-electron system (eV)
  ---------------------------------------------------
  alpha Z        PSCENC =        79.28787618
  Ewald energy   TEWEN  =     -2246.10524739
  -Hartree energ DENC   =      -591.99361915
  -exchange      EXHF   =         0.00000000
  -V(xc)+E(xc)   XCENC  =        58.75617050
  PAW double counting   =      3930.57614978    -3797.85417610
  entropy T*S    EENTRO =         0.00087953
  eigenvalues    EBANDS =        60.13529291
  atomic energy  EATOM  =      2411.37598431
  Solvation  Ediel_sol  =         0.00000000
  ---------------------------------------------------
  free energy    TOTEN  =       -95.82068943 eV

  energy without entropy =      -95.82156895  energy(sigma->0) =      -95.82090931


--------------------------------------------------------------------------------------------------------




--------------------------------------- Iteration      1(   7)  ---------------------------------------


    POTLOK:  cpu time    0.0187: real time    0.0187
    SETDIJ:  cpu time    0.0023: real time    0.0023
    EDDIAG:  cpu time    0.4092: real time    0.4092
  RMM-DIIS:  cpu time    2.0451: real time    2.0449
    ORTHCH:  cpu time    0.0367: real time    0.0367
       DOS:  cpu time    0.0032: real time    0.0032
    CHARGE:  cpu time    0.1665: real time    0.1665
    MIXING:  cpu time    0.0006: real time    0.0006
    --------------------------------------------
      LOOP:  cpu time    2.6822: real time    2.6821

 eigenvalue-minimisations  :  6541
 total energy-change (2. order) : 0.4188402E+00  (-0.1256301E+00)
 number of electron      62.0000011 magnetization 
 augmentation part       -0.3463084 magnetization 

 Broyden mixing:
  rms(total) = 0.60215E+00    rms(broyden)= 0.60211E+00
  rms(prec ) = 0.70472E+00
  weight for this iteration     100.00

 eigenvalues of (default mixing * dielectric matrix)
  average eigenvalue GAMMA=   1.5937
  1.0306  2.1568

 Free energy of the ion-electron system (eV)
  ---------------------------------------------------
  alpha Z        PSCENC =        79.28787618
  Ewald energy   TEWEN  =     -2246.10524739
  -Hartree energ DENC   =      -594.91365111
  -exchange      EXHF   =         0.00000000
  -V(xc)+E(xc)   XCENC  =        59.17897435
  PAW double counting   =      5537.07926144    -5404.65225226
  entropy T*S    EENTRO =         0.00126178
  eigenvalues    EBANDS =        63.34594352
  atomic energy  EATOM  =      2411.37598431
  Solvation  Ediel_sol  =         0.00000000
  ---------------------------------------------------
  free energy    TOTEN  =       -95.40184918 eV

  energy without entropy =      -95.40311096  energy(sigma->0) =      -95.40216463


--------------------------------------------------------------------------------------------------------




--------------------------------------- Iteration      1(   8)  ---------------------------------------


    POTLOK:  cpu time    0.0195: real time    0.0195
    SETDIJ:  cpu time    0.0023: real time    0.0023
    EDDIAG:  cpu time    0.4127: real time    0.4127
  RMM-DIIS:  cpu time    2.0293: real time    2.0293
    ORTHCH:  cpu time    0.0372: real time    0.0372
       DOS:  cpu time    0.0031: real time    0.0031
    CHARGE:  cpu time    0.1702: real time    0.1702
    MIXING:  cpu time    0.0006: real time    0.0006
    --------------------------------------------
      LOOP:  cpu time    2.6750: real time    2.6750

 eigenvalue-minimisations  :  6497
 total energy-change (2. order) : 0.9541601E-01  (-0.6463368E-01)
 number of electron      62.0000010 magnetization 
 augmentation part       -0.3083828 magnetization 

 Broyden mixing:
  rms(total) = 0.85929E-01    rms(broyden)= 0.85806E-01
  rms(prec ) = 0.15492E+00
  weight for this iteration     100.00

 eigenvalues of (default mixing * dielectric matrix)
  average eigenvalue GAMMA=   1.5268
  2.3619  1.1092  1.1092

 Free energy of the ion-electron system (eV)
  ---------------------------------------------------
  alpha Z        PSCENC =        79.28787618
  Ewald energy   TEWEN  =     -2246.10524739
  -Hartree energ DENC   =      -598.86940740
  -exchange      EXHF   =         0.00000000
  -V(xc)+E(xc)   XCENC  =        59.77369043
  PAW double counting   =      7821.90795416    -7689.84116390
  entropy T*S    EENTRO =         0.00015285
  eigenvalues    EBANDS =        67.16372760
  atomic energy  EATOM  =      2411.37598431
  Solvation  Ediel_sol  =         0.00000000
  ---------------------------------------------------
  free energy    TOTEN  =       -95.30643317 eV

  energy without entropy =      -95.30658602  energy(sigma->0) =      -95.30647139


--------------------------------------------------------------------------------------------------------




--------------------------------------- Iteration      1(   9)  ---------------------------------------


    POTLOK:  cpu time    0.0183: real time    0.0189
    SETDIJ:  cpu time    0.0022: real time    0.0022
    EDDIAG:  cpu time    0.4073: real time    0.4075
  RMM-DIIS:  cpu time    2.0450: real time    2.0450
    ORTHCH:  cpu time    0.0369: real time    0.0369
       DOS:  cpu time    0.0033: real time    0.0033
    CHARGE:  cpu time    0.1639: real time    0.1639
    MIXING:  cpu time    0.0006: real time    0.0006
    --------------------------------------------
      LOOP:  cpu time    2.6775: real time    2.6784

 eigenvalue-minimisations  :  6506
 total energy-change (2. order) : 0.9245502E-02  (-0.1595801E-01)
 number of electron      62.0000010 magnetization 
 augmentation part       -0.3525346 magnetization 

 Broyden mixing:
  rms(total) = 0.54027E-01    rms(broyden)= 0.53980E-01
  rms(prec ) = 0.75661E-01
  weight for this iteration     100.00

 eigenvalues of (default mixing * dielectric matrix)
  average eigenvalue GAMMA=   1.6639
  2.3354  2.3354  0.9925  0.9925

 Free energy of the ion-electron system (eV)
  ---------------------------------------------------
  alpha Z        PSCENC =        79.28787618
  Ewald energy   TEWEN  =     -2246.10524739
  -Hartree energ DENC   =      -604.78436694
  -exchange      EXHF   =         0.00000000
  -V(xc)+E(xc)   XCENC  =        60.21366359
  PAW double counting   =      8055.50728984    -7923.50582268
  entropy T*S    EENTRO =         0.00047444
  eigenvalues    EBANDS =        72.71296098
  atomic energy  EATOM  =      2411.37598431
  Solvation  Ediel_sol  =         0.00000000
  ---------------------------------------------------
  free energy    TOTEN  =       -95.29718767 eV

  energy without entropy =      -95.29766211  energy(sigma->0) =      -95.29730628


--------------------------------------------------------------------------------------------------------




--------------------------------------- Iteration      1(  10)  ---------------------------------------


    POTLOK:  cpu time    0.0173: real time    0.0191
    SETDIJ:  cpu time    0.0022: real time    0.0022
    EDDIAG:  cpu time    0.4147: real time    0.4146
  RMM-DIIS:  cpu time    2.0624: real time    2.0622
    ORTHCH:  cpu time    0.0364: real time    0.0364
       DOS:  cpu time    0.0032: real time    0.0032
    CHARGE:  cpu time    0.1656: real time    0.1656
    MIXING:  cpu time    0.0006: real time    0.0006
    --------------------------------------------
      LOOP:  cpu time    2.7025: real time    2.7040

 eigenvalue-minimisations  :  6489
 total energy-change (2. order) : 0.2224277E-02  (-0.1267738E-02)
 number of electron      62.0000010 magnetization 
 augmentation part       -0.3442182 magnetization 

 Broyden mixing:
  rms(total) = 0.14066E-01    rms(broyden)= 0.14065E-01
  rms(prec ) = 0.22269E-01
  weight for this iteration     100.00

 eigenvalues of (default mixing * dielectric matrix)
  average eigenvalue GAMMA=   1.6980
  2.5597  2.5597  1.0173  1.0173  1.3364

 Free energy of the ion-electron system (eV)
  ---------------------------------------------------
  alpha Z        PSCENC =        79.28787618
  Ewald energy   TEWEN  =     -2246.10524739
  -Hartree energ DENC   =      -603.48538661
  -exchange      EXHF   =         0.00000000
  -V(xc)+E(xc)   XCENC  =        60.11626655
  PAW double counting   =      7909.68868592    -7777.66883740
  entropy T*S    EENTRO =         0.00056869
  eigenvalues    EBANDS =        71.49512637
  atomic energy  EATOM  =      2411.37598431
  Solvation  Ediel_sol  =         0.00000000
  ---------------------------------------------------
  free energy    TOTEN  =       -95.29496339 eV

  energy without entropy =      -95.29553208  energy(sigma->0) =      -95.29510557


--------------------------------------------------------------------------------------------------------




--------------------------------------- Iteration      1(  11)  ---------------------------------------


    POTLOK:  cpu time    0.0176: real time    0.0193
    SETDIJ:  cpu time    0.0022: real time    0.0022
    EDDIAG:  cpu time    0.4158: real time    0.4158
  RMM-DIIS:  cpu time    2.0010: real time    2.0009
    ORTHCH:  cpu time    0.0349: real time    0.0349
       DOS:  cpu time    0.0032: real time    0.0032
    CHARGE:  cpu time    0.1603: real time    0.1603
    MIXING:  cpu time    0.0006: real time    0.0006
    --------------------------------------------
      LOOP:  cpu time    2.6358: real time    2.6373

 eigenvalue-minimisations  :  6512
 total energy-change (2. order) :-0.9716535E-03  (-0.5620820E-03)
 number of electron      62.0000010 magnetization 
 augmentation part       -0.3373192 magnetization 

 Broyden mixing:
  rms(total) = 0.11336E-01    rms(broyden)= 0.11325E-01
  rms(prec ) = 0.17426E-01
  weight for this iteration     100.00

 eigenvalues of (default mixing * dielectric matrix)
  average eigenvalue GAMMA=   1.6712
  2.7308  2.4334  1.9276  0.9469  0.9942  0.9942

 Free energy of the ion-electron system (eV)
  ---------------------------------------------------
  alpha Z        PSCENC =        79.28787618
  Ewald energy   TEWEN  =     -2246.10524739
  -Hartree energ DENC   =      -603.38531153
  -exchange      EXHF   =         0.00000000
  -V(xc)+E(xc)   XCENC  =        60.10986208
  PAW double counting   =      7890.42458484    -7758.40588000
  entropy T*S    EENTRO =         0.00051780
  eigenvalues    EBANDS =        71.40167867
  atomic energy  EATOM  =      2411.37598431
  Solvation  Ediel_sol  =         0.00000000
  ---------------------------------------------------
  free energy    TOTEN  =       -95.29593505 eV

  energy without entropy =      -95.29645285  energy(sigma->0) =      -95.29606450


--------------------------------------------------------------------------------------------------------




--------------------------------------- Iteration      1(  12)  ---------------------------------------


    POTLOK:  cpu time    0.0168: real time    0.0516
    SETDIJ:  cpu time    0.0874: real time    0.1332
    EDDIAG:  cpu time    4.8018: real time    4.7975
  RMM-DIIS:  cpu time    1.9190: real time    1.9189
    ORTHCH:  cpu time    0.0350: real time    0.0350
       DOS:  cpu time    0.0031: real time    0.0031
    CHARGE:  cpu time    0.1617: real time    0.1617
    MIXING:  cpu time    0.0007: real time    0.0007
    --------------------------------------------
      LOOP:  cpu time    7.0256: real time    7.1017

 eigenvalue-minimisations  :  6198
 total energy-change (2. order) : 0.2147668E-03  (-0.8108619E-04)
 number of electron      62.0000010 magnetization 
 augmentation part       -0.3393490 magnetization 

 Broyden mixing:
  rms(total) = 0.38607E-02    rms(broyden)= 0.38602E-02
  rms(prec ) = 0.57921E-02
  weight for this iteration     100.00

 eigenvalues of (default mixing * dielectric matrix)
  average eigenvalue GAMMA=   1.7255
  3.0156  2.4862  1.7566  1.7566  1.0386  1.0386  0.9865

 Free energy of the ion-electron system (eV)
  ---------------------------------------------------
  alpha Z        PSCENC =        79.28787618
  Ewald energy   TEWEN  =     -2246.10524739
  -Hartree energ DENC   =      -603.84086917
  -exchange      EXHF   =         0.00000000
  -V(xc)+E(xc)   XCENC  =        60.13751517
  PAW double counting   =      7882.10700630    -7750.08890980
  entropy T*S    EENTRO =         0.00051774
  eigenvalues    EBANDS =        71.83040638
  atomic energy  EATOM  =      2411.37598431
  Solvation  Ediel_sol  =         0.00000000
  ---------------------------------------------------
  free energy    TOTEN  =       -95.29572028 eV

  energy without entropy =      -95.29623802  energy(sigma->0) =      -95.29584972


--------------------------------------------------------------------------------------------------------




--------------------------------------- Iteration      1(  13)  ---------------------------------------


    POTLOK:  cpu time    0.0169: real time    0.0189
    SETDIJ:  cpu time    0.0022: real time    0.0022
    EDDIAG:  cpu time    0.3997: real time    0.3996
  RMM-DIIS:  cpu time    1.4165: real time    1.4167
    ORTHCH:  cpu time    0.0363: real time    0.0363
       DOS:  cpu time    0.0034: real time    0.0034
    --------------------------------------------
      LOOP:  cpu time    1.8750: real time    1.8772

 eigenvalue-minimisations  :  4024
 total energy-change (2. order) :-0.1216384E-04  (-0.2063162E-04)
 number of electron      62.0000010 magnetization 
 augmentation part       -0.3393490 magnetization 

 Free energy of the ion-electron system (eV)
  ---------------------------------------------------
  alpha Z        PSCENC =        79.28787618
  Ewald energy   TEWEN  =     -2246.10524739
  -Hartree energ DENC   =      -603.94549368
  -exchange      EXHF   =         0.00000000
  -V(xc)+E(xc)   XCENC  =        60.14369348
  PAW double counting   =      7881.59032119    -7749.57138895
  entropy T*S    EENTRO =         0.00053072
  eigenvalues    EBANDS =        71.92799171
  atomic energy  EATOM  =      2411.37598431
  Solvation  Ediel_sol  =         0.00000000
  ---------------------------------------------------
  free energy    TOTEN  =       -95.29573245 eV

  energy without entropy =      -95.29626316  energy(sigma->0) =      -95.29586512


--------------------------------------------------------------------------------------------------------




 average (electrostatic) potential at core
  the test charge radii are     0.7089  0.9892
  (the norm of the test charge is              1.0000)
       1 -60.2564       2 -60.2564       3 -60.2564       4 -60.2564       5 -60.2564
       6 -60.2564       7 -81.5274       8 -81.5274       9 -80.9019      10 -80.9019
      11 -80.9019      12 -80.9019      13 -80.9019      14 -80.9019
 
 
 
 E-fermi :  10.0194     XC(G=0): -11.0478     alpha+bet :-15.8704


 k-point     1 :       0.0000    0.0000    0.0000
  band No.  band energies     occupation 
      1     -10.1659      2.00000
      2      -9.0224      2.00000
      3      -9.0224      2.00000
      4      -8.4024      2.00000
      5      -8.4024      2.00000
      6      -8.2497      2.00000
      7      -2.0014      2.00000
      8      -2.0014      2.00000
      9      -1.7692      2.00000
     10      -1.1330      2.00000
     11       0.0714      2.00000
     12       0.8100      2.00000
     13       0.8100      2.00000
     14       2.6880      2.00000
     15       2.6880      2.00000
     16       3.5378      2.00000
     17       3.8493      2.00000
     18       3.8493      2.00000
     19       4.2838      2.00000
     20       4.5381      2.00000
     21       5.0765      2.00000
     22       5.0765      2.00000
     23       5.5705      2.00000
     24       5.5705      2.00000
     25       5.7480      2.00000
     26       6.9378      2.00000
     27       6.9666      2.00000
     28       6.9666      2.00000
     29       8.8850      2.00000
     30       9.1696      2.00000
     31       9.1696      2.00000
     32      13.0329      0.00000
     33      13.2690      0.00000
     34      13.2691      0.00000
     35      13.3854      0.00000
     36      13.3856      0.00000
     37      14.5567      0.00000
     38      14.7492      0.00000
     39      14.7903      0.00000
     40      15.2505      0.00000

 k-point     2 :       0.1429    0.0000    0.0000
  band No.  band energies     occupation 
      1     -10.1279      2.00000
      2      -9.1056      2.00000
      3      -9.0580      2.00000
      4      -8.5511      2.00000
      5      -8.3486      2.00000
      6      -8.0460      2.00000
      7      -2.2643      2.00000
      8      -1.9870      2.00000
      9      -1.7123      2.00000
     10      -0.8655      2.00000
     11      -0.0411      2.00000
     12       0.6872      2.00000
     13       0.9165      2.00000
     14       2.6004      2.00000
     15       2.7314      2.00000
     16       3.5394      2.00000
     17       3.6855      2.00000
     18       3.9845      2.00000
     19       4.5433      2.00000
     20       4.5587      2.00000
     21       5.0467      2.00000
     22       5.0665      2.00000
     23       5.5298      2.00000
     24       5.5827      2.00000
     25       5.7967      2.00000
     26       6.7395      2.00000
     27       6.7803      2.00000
     28       7.0486      2.00000
     29       8.8313      2.00000
     30       9.3350      2.00000
     31       9.3826      2.00000
     32      12.7790      0.00000
     33      13.1004      0.00000
     34      13.1353      0.00000
     35      13.4100      0.00000
     36      13.4736      0.00000
     37      14.4943      0.00000
     38      14.6076      0.00000
     39      14.7289      0.00000
     40      15.0289      0.00000

 k-point     3 :       0.2857    0.0000    0.0000
  band No.  band energies     occupation 
      1     -10.0159      2.00000
      2      -9.3262      2.00000
      3      -9.1234      2.00000
      4      -8.6447      2.00000
      5      -8.2403      2.00000
      6      -7.8212      2.00000
      7      -2.6308      2.00000
      8      -1.9509      2.00000
      9      -1.5516      2.00000
     10      -0.5943      2.00000
     11      -0.2293      2.00000
     12       0.4345      2.00000
     13       1.2641      2.00000
     14       2.4335      2.00000
     15       2.6973      2.00000
     16       3.3742      2.00000
     17       3.7410      2.00000
     18       4.2220      2.00000
     19       4.6205      2.00000
     20       4.9556      2.00000
     21       4.9614      2.00000
     22       5.0480      2.00000
     23       5.4793      2.00000
     24       5.6074      2.00000
     25       5.8668      2.00000
     26       6.2809      2.00000
     27       6.4394      2.00000
     28       7.3464      2.00000
     29       8.6598      2.00000
     30       9.6410      1.99999
     31       9.8467      1.99820
     32      11.9891      0.00000
     33      12.8964      0.00000
     34      13.0044      0.00000
     35      13.4776      0.00000
     36      13.6076      0.00000
     37      14.2192      0.00000
     38      14.6129      0.00000
     39      14.8449      0.00000
     40      14.9470      0.00000

 k-point     4 :       0.4286    0.0000    0.0000
  band No.  band energies     occupation 
      1      -9.8410      2.00000
      2      -9.5829      2.00000
      3      -9.1668      2.00000
      4      -8.6744      2.00000
      5      -8.1610      2.00000
      6      -7.6927      2.00000
      7      -2.8466      2.00000
      8      -1.9183      2.00000
      9      -1.3439      2.00000
     10      -0.7512      2.00000
     11      -0.1804      2.00000
     12       0.2460      2.00000
     13       1.8062      2.00000
     14       2.3181      2.00000
     15       2.4252      2.00000
     16       3.0844      2.00000
     17       4.0470      2.00000
     18       4.3881      2.00000
     19       4.7117      2.00000
     20       4.8514      2.00000
     21       5.0342      2.00000
     22       5.2043      2.00000
     23       5.4538      2.00000
     24       5.6269      2.00000
     25       5.8799      2.00000
     26       5.9102      2.00000
     27       6.2511      2.00000
     28       7.7096      2.00000
     29       8.4009      2.00000
     30       9.8231      1.99035
     31      10.4224      0.00000
     32      11.1629      0.00000
     33      12.7578      0.00000
     34      12.8893      0.00000
     35      13.6166      0.00000
     36      13.7498      0.00000
     37      14.0056      0.00000
     38      14.4969      0.00000
     39      14.6179      0.00000
     40      14.7681      0.00000

 k-point     5 :       0.1429    0.1429    0.0000
  band No.  band energies     occupation 
      1     -10.0528      2.00000
      2      -9.2056      2.00000
      3      -9.1776      2.00000
      4      -8.5929      2.00000
      5      -8.2920      2.00000
      6      -7.8693      2.00000
      7      -2.5548      2.00000
      8      -1.9344      2.00000
      9      -1.6010      2.00000
     10      -0.6697      2.00000
     11      -0.2124      2.00000
     12       0.6012      2.00000
     13       1.0872      2.00000
     14       2.4150      2.00000
     15       2.8474      2.00000
     16       3.4334      2.00000
     17       3.5996      2.00000
     18       4.2005      2.00000
     19       4.6008      2.00000
     20       4.8478      2.00000
     21       4.9992      2.00000
     22       5.0398      2.00000
     23       5.4980      2.00000
     24       5.5935      2.00000
     25       5.8510      2.00000
     26       6.4119      2.00000
     27       6.5283      2.00000
     28       7.2491      2.00000
     29       8.7214      2.00000
     30       9.5824      2.00000
     31       9.6878      1.99988
     32      12.3042      0.00000
     33      12.6541      0.00000
     34      13.2740      0.00000
     35      13.3428      0.00000
     36      13.6344      0.00000
     37      14.3533      0.00000
     38      14.5681      0.00000
     39      14.6896      0.00000
     40      14.8811      0.00000

 k-point     6 :       0.2857    0.1429    0.0000
  band No.  band energies     occupation 
      1      -9.9077      2.00000
      2      -9.4367      2.00000
      3      -9.2638      2.00000
      4      -8.5814      2.00000
      5      -8.2308      2.00000
      6      -7.7104      2.00000
      7      -2.8251      2.00000
      8      -1.8345      2.00000
      9      -1.3992      2.00000
     10      -0.7511      2.00000
     11      -0.4356      2.00000
     12       0.6601      2.00000
     13       1.4519      2.00000
     14       2.1946      2.00000
     15       2.8203      2.00000
     16       3.1809      2.00000
     17       3.7291      2.00000
     18       4.4216      2.00000
     19       4.6788      2.00000
     20       4.9133      2.00000
     21       5.0058      2.00000
     22       5.1465      2.00000
     23       5.4824      2.00000
     24       5.6056      2.00000
     25       5.9031      2.00000
     26       6.1456      2.00000
     27       6.1757      2.00000
     28       7.5878      2.00000
     29       8.5033      2.00000
     30       9.8865      2.05102
     31      10.0928     -0.05852
     32      11.5426      0.00000
     33      12.3259      0.00000
     34      13.1379      0.00000
     35      13.5348      0.00000
     36      13.8608      0.00000
     37      14.1728      0.00000
     38      14.3355      0.00000
     39      14.7335      0.00000
     40      14.8935      0.00000

 k-point     7 :       0.4286    0.1429    0.0000
  band No.  band energies     occupation 
      1      -9.7404      2.00000
      2      -9.6464      2.00000
      3      -9.2901      2.00000
      4      -8.5741      2.00000
      5      -8.2021      2.00000
      6      -7.6509      2.00000
      7      -2.9272      2.00000
      8      -1.7746      2.00000
      9      -1.2465      2.00000
     10      -0.8887      2.00000
     11      -0.5644      2.00000
     12       0.7007      2.00000
     13       1.8955      2.00000
     14       1.9772      2.00000
     15       2.6120      2.00000
     16       3.0769      2.00000
     17       3.8837      2.00000
     18       4.5051      2.00000
     19       4.7525      2.00000
     20       4.8308      2.00000
     21       4.9927      2.00000
     22       5.2513      2.00000
     23       5.4787      2.00000
     24       5.6107      2.00000
     25       5.8789      2.00000
     26       5.9230      2.00000
     27       6.1852      2.00000
     28       7.8498      2.00000
     29       8.2998      2.00000
     30       9.9508      2.03370
     31      10.6161      0.00000
     32      10.8754      0.00000
     33      12.2724      0.00000
     34      13.0385      0.00000
     35      13.7303      0.00000
     36      13.8508      0.00000
     37      14.0527      0.00000
     38      14.3188      0.00000
     39      14.7394      0.00000
     40      14.8166      0.00000

 k-point     8 :      -0.4286    0.1429    0.0000
  band No.  band energies     occupation 
      1      -9.9077      2.00000
      2      -9.4367      2.00000
      3      -9.2638      2.00000
      4      -8.5815      2.00000
      5      -8.2307      2.00000
      6      -7.7104      2.00000
      7      -2.8251      2.00000
      8      -1.8325      2.00000
[...]
     39      13.3879      0.00000
     40      13.3909      0.00000

 k-point    75 :       0.2857    0.0000    0.5000
  band No.  band energies     occupation 
      1      -7.7177      2.00000
      2      -7.7177      2.00000
      3      -7.2560      2.00000
      4      -7.2560      2.00000
      5      -7.2329      2.00000
      6      -7.2329      2.00000
      7      -1.3657      2.00000
      8      -1.3657      2.00000
      9      -0.7719      2.00000
     10      -0.7719      2.00000
     11      -0.2600      2.00000
     12      -0.2600      2.00000
     13       1.2060      2.00000
     14       1.2060      2.00000
     15       1.6447      2.00000
     16       1.6447      2.00000
     17       1.9484      2.00000
     18       1.9484      2.00000
     19       2.5901      2.00000
     20       2.5901      2.00000
     21       4.3618      2.00000
     22       4.3618      2.00000
     23       4.5278      2.00000
     24       4.5278      2.00000
     25       5.7552      2.00000
     26       5.7552      2.00000
     27       6.3940      2.00000
     28       6.3940      2.00000
     29       6.8349      2.00000
     30       6.8349      2.00000
     31       8.6808      2.00000
     32       8.6808      2.00000
     33      10.6458      0.00000
     34      10.6458      0.00000
     35      11.8642      0.00000
     36      11.8642      0.00000
     37      12.5209      0.00000
     38      12.5209      0.00000
     39      13.2673      0.00000
     40      13.2673      0.00000

 k-point    76 :       0.4286    0.0000    0.5000
  band No.  band energies     occupation 
      1      -7.7045      2.00000
      2      -7.7045      2.00000
      3      -7.2714      2.00000
      4      -7.2714      2.00000
      5      -7.2344      2.00000
      6      -7.2344      2.00000
      7      -1.4672      2.00000
      8      -1.4672      2.00000
      9      -0.6340      2.00000
     10      -0.6340      2.00000
     11      -0.1067      2.00000
     12      -0.1067      2.00000
     13       1.0269      2.00000
     14       1.0269      2.00000
     15       1.6519      2.00000
     16       1.6519      2.00000
     17       1.8048      2.00000
     18       1.8048      2.00000
     19       2.6891      2.00000
     20       2.6891      2.00000
     21       4.2780      2.00000
     22       4.2780      2.00000
     23       4.5412      2.00000
     24       4.5412      2.00000
     25       5.7926      2.00000
     26       5.7926      2.00000
     27       6.2684      2.00000
     28       6.2684      2.00000
     29       7.0173      2.00000
     30       7.0173      2.00000
     31       8.9068      2.00000
     32       8.9068      2.00000
     33      10.6250      0.00000
     34      10.6250      0.00000
     35      11.5447      0.00000
     36      11.5447      0.00000
     37      12.6066      0.00000
     38      12.6066      0.00000
     39      13.2199      0.00000
     40      13.2199      0.00000

 k-point    77 :       0.1429    0.1429    0.5000
  band No.  band energies     occupation 
      1      -7.7221      2.00000
      2      -7.7221      2.00000
      3      -7.2506      2.00000
      4      -7.2506      2.00000
      5      -7.2328      2.00000
      6      -7.2328      2.00000
      7      -1.3239      2.00000
      8      -1.3239      2.00000
      9      -0.8075      2.00000
     10      -0.8075      2.00000
     11      -0.3337      2.00000
     12      -0.3337      2.00000
     13       1.2839      2.00000
     14       1.2839      2.00000
     15       1.6364      2.00000
     16       1.6364      2.00000
     17       2.0081      2.00000
     18       2.0081      2.00000
     19       2.5345      2.00000
     20       2.5345      2.00000
     21       4.3944      2.00000
     22       4.3944      2.00000
     23       4.5163      2.00000
     24       4.5163      2.00000
     25       5.7550      2.00000
     26       5.7550      2.00000
     27       6.4084      2.00000
     28       6.4084      2.00000
     29       6.8063      2.00000
     30       6.8063      2.00000
     31       8.5934      2.00000
     32       8.5934      2.00000
     33      10.6481      0.00000
     34      10.6481      0.00000
     35      11.9640      0.00000
     36      11.9640      0.00000
     37      12.4811      0.00000
     38      12.4811      0.00000
     39      13.3069      0.00000
     40      13.3084      0.00000

 k-point    78 :       0.2857    0.1429    0.5000
  band No.  band energies     occupation 
      1      -7.7075      2.00000
      2      -7.7075      2.00000
      3      -7.2670      2.00000
      4      -7.2670      2.00000
      5      -7.2350      2.00000
      6      -7.2350      2.00000
      7      -1.4489      2.00000
      8      -1.4489      2.00000
      9      -0.6509      2.00000
     10      -0.6509      2.00000
     11      -0.1585      2.00000
     12      -0.1585      2.00000
     13       1.0558      2.00000
     14       1.0558      2.00000
     15       1.6739      2.00000
     16       1.6739      2.00000
     17       1.8543      2.00000
     18       1.8543      2.00000
     19       2.6381      2.00000
     20       2.6381      2.00000
     21       4.3161      2.00000
     22       4.3161      2.00000
     23       4.5221      2.00000
     24       4.5221      2.00000
     25       5.7763      2.00000
     26       5.7763      2.00000
     27       6.2598      2.00000
     28       6.2598      2.00000
     29       7.0606      2.00000
     30       7.0606      2.00000
     31       8.7974      2.00000
     32       8.7974      2.00000
     33      10.6318      0.00000
     34      10.6318      0.00000
     35      11.6109      0.00000
     36      11.6109      0.00000
     37      12.6424      0.00000
     38      12.6424      0.00000
     39      13.2415      0.00000
     40      13.2415      0.00000

 k-point    79 :       0.4286    0.1429    0.5000
  band No.  band energies     occupation 
      1      -7.7007      2.00000
      2      -7.7007      2.00000
      3      -7.2747      2.00000
      4      -7.2747      2.00000
      5      -7.2360      2.00000
      6      -7.2360      2.00000
      7      -1.4938      2.00000
      8      -1.4938      2.00000
      9      -0.5524      2.00000
     10      -0.5524      2.00000
     11      -0.1304      2.00000
     12      -0.1304      2.00000
     13       0.9995      2.00000
     14       0.9995      2.00000
     15       1.6654      2.00000
     16       1.6654      2.00000
     17       1.7915      2.00000
     18       1.7915      2.00000
     19       2.6693      2.00000
     20       2.6693      2.00000
     21       4.2719      2.00000
     22       4.2719      2.00000
     23       4.5302      2.00000
     24       4.5302      2.00000
     25       5.7975      2.00000
     26       5.7975      2.00000
     27       6.1977      2.00000
     28       6.1977      2.00000
     29       7.1814      2.00000
     30       7.1814      2.00000
     31       8.8787      2.00000
     32       8.8787      2.00000
     33      10.6199      0.00000
     34      10.6199      0.00000
     35      11.4517      0.00000
     36      11.4517      0.00000
     37      12.6886      0.00000
     38      12.6886      0.00000
     39      13.2113      0.00000
     40      13.2113      0.00000

 k-point    80 :      -0.4286    0.1429    0.5000
  band No.  band energies     occupation 
      1      -7.7076      2.00000
      2      -7.7076      2.00000
      3      -7.2670      2.00000
      4      -7.2670      2.00000
      5      -7.2350      2.00000
      6      -7.2350      2.00000
      7      -1.4489      2.00000
      8      -1.4489      2.00000
      9      -0.6508      2.00000
     10      -0.6508      2.00000
     11      -0.1586      2.00000
     12      -0.1586      2.00000
     13       1.0570      2.00000
     14       1.0570      2.00000
     15       1.6662      2.00000
     16       1.6662      2.00000
     17       1.8623      2.00000
     18       1.8623      2.00000
     19       2.6368      2.00000
     20       2.6368      2.00000
     21       4.3095      2.00000
     22       4.3095      2.00000
     23       4.5316      2.00000
     24       4.5316      2.00000
     25       5.7596      2.00000
     26       5.7596      2.00000
     27       6.2791      2.00000
     28       6.2791      2.00000
     29       7.0541      2.00000
     30       7.0541      2.00000
     31       8.7965      2.00000
     32       8.7965      2.00000
     33      10.6331      0.00000
     34      10.6331      0.00000
     35      11.6280      0.00000
     36      11.6280      0.00000
     37      12.5972      0.00000
     38      12.5972      0.00000
     39      13.2621      0.00000
     40      13.2621      0.00000

 k-point    81 :       0.2857    0.2857    0.5000
  band No.  band energies     occupation 
      1      -7.6991      2.00000
      2      -7.6991      2.00000
      3      -7.2753      2.00000
      4      -7.2753      2.00000
      5      -7.2375      2.00000
      6      -7.2375      2.00000
      7      -1.5065      2.00000
      8      -1.5065      2.00000
      9      -0.4764      2.00000
     10      -0.4764      2.00000
     11      -0.1935      2.00000
     12      -0.1935      2.00000
     13       0.9945      2.00000
     14       0.9945      2.00000
     15       1.6882      2.00000
     16       1.6882      2.00000
     17       1.7976      2.00000
     18       1.7976      2.00000
     19       2.6329      2.00000
     20       2.6329      2.00000
     21       4.2816      2.00000
     22       4.2816      2.00000
     23       4.5150      2.00000
     24       4.5150      2.00000
     25       5.7868      2.00000
     26       5.7868      2.00000
     27       6.1629      2.00000
     28       6.1629      2.00000
     29       7.3217      2.00000
     30       7.3217      2.00000
     31       8.7969      2.00000
     32       8.7969      2.00000
     33      10.6209      0.00000
     34      10.6209      0.00000
     35      11.4112      0.00000
     36      11.4112      0.00000
     37      12.8092      0.00000
     38      12.8092      0.00000
     39      13.1409      0.00000
     40      13.1409      0.00000


--------------------------------------------------------------------------------------------------------


 soft charge-density along one line, spin component           1
         0         1         2         3         4         5         6         7         8         9
 total charge-density along one line
 
 pseudopotential strength for first ion, spin component:           1
 12.311  14.753   0.001   0.000  -0.001   0.005   0.000  -0.001
 14.753  17.680   0.002   0.000  -0.001   0.006   0.000  -0.002
  0.001   0.002  -5.716   0.000   0.001  -7.581   0.000   0.002
  0.000   0.000   0.000  -5.725  -0.000   0.000  -7.595  -0.000
 -0.001  -0.001   0.001  -0.000  -5.740   0.002  -0.000  -7.619
  0.005   0.006  -7.581   0.000   0.002  -9.330   0.000   0.002
  0.000   0.000   0.000  -7.595  -0.000   0.000  -9.351  -0.000
 -0.001  -0.002   0.002  -0.000  -7.619   0.002  -0.000  -9.389
 total augmentation occupancy for first ion, spin component:           1
  7.253  -3.365  -0.261  -0.000   0.093   0.119   0.000  -0.037
 -3.365   1.756   0.249  -0.000  -0.075  -0.100   0.000   0.028
 -0.261   0.249   1.973   0.000  -0.039  -0.281   0.000   0.011
  0.000   0.000  -0.000   2.246  -0.000  -0.000  -0.368  -0.000
  0.093  -0.075  -0.039   0.000   2.332   0.011   0.000  -0.427
  0.119  -0.100  -0.281  -0.000   0.011   0.055   0.000  -0.004
  0.000   0.000   0.000  -0.368  -0.000   0.000   0.071   0.000
 -0.037   0.028   0.011  -0.000  -0.427  -0.004   0.000   0.093


------------------------ aborting loop because EDIFF is reached ----------------------------------------


    CHARGE:  cpu time    0.1636: real time    0.1637
    FORLOC:  cpu time    0.0027: real time    0.0027
    FORNL :  cpu time    1.0483: real time    1.0490
    STRESS:  cpu time    3.1511: real time    3.1522
    FORCOR:  cpu time    0.0193: real time    0.0193
    FORHAR:  cpu time    0.0060: real time    0.0061
    MIXING:  cpu time    0.0005: real time    0.0005
    OFIELD:  cpu time    0.0000: real time    0.0000

  FORCE on cell =-STRESS in cart. coord.  units (eV):
  Direction    XX          YY          ZZ          XY          YZ          ZX
  --------------------------------------------------------------------------------------
  Alpha Z    79.28788    79.28788    79.28788
  Ewald    -855.59060  -855.59060  -534.55517    -0.00000     0.00000    -0.00000
  Hartree   130.73659   130.73659   342.82901    -0.00000     0.00000    -0.00000
  E(xc)    -238.07107  -238.07107  -238.10307     0.00000    -0.00000    -0.00000
  Local    -136.39276  -136.39251  -671.84240     0.00000     0.00000     0.00000
  n-local   206.63627   206.66124   209.97676    -0.52087     0.16494    -0.45520
  augment   -37.07748   -37.07772   -36.90427     0.00162     0.00000     0.00000
  Kinetic   850.94574   854.17908   849.21867    -0.47927     0.18266     0.42022
  Fock        0.00000     0.00000     0.00000     0.00000     0.00000     0.00000
  -------------------------------------------------------------------------------------
  Total       2.10373     2.10373    -0.09260    -0.00000     0.00000     0.00000
  in kB      21.92228    21.92228    -0.96495    -0.00000     0.00000     0.00000
  external pressure =       14.29 kB  Pullay stress =        0.00 kB


 VOLUME and BASIS-vectors are now :
 -----------------------------------------------------------------------------
  energy-cutoff  :      400.00
  volume of cell :      153.75
      direct lattice vectors                 reciprocal lattice vectors
     3.981027834 -6.895342463  0.000000000     0.125595706 -0.072512714  0.000000000
     3.981027824  6.895342469  0.000000000     0.125595706  0.072512715  0.000000000
     0.000000000  0.000000000  2.800494485     0.000000000  0.000000000  0.357079796

  length of vectors
     7.962055658  7.962055658  2.800494485     0.145025429  0.145025429  0.357079796


 FORCES acting on ions
    electron-ion (+dipol)            ewald-force                    non-local-force                 convergence-correction
 -----------------------------------------------------------------------------------------------
   0.110E+02 -.772E+02 -.629E-07   -.125E+02 0.839E+02 0.385E-14   0.146E+01 -.666E+01 -.177E-19   0.633E-02 0.625E-02 -.369E-12
   0.724E+02 -.291E+02 -.383E-07   -.789E+02 0.311E+02 0.393E-14   0.650E+01 -.207E+01 -.580E-18   -.225E-02 0.861E-02 0.356E-12
   -.614E+02 -.482E+02 0.337E-07   0.664E+02 0.528E+02 0.641E-14   -.504E+01 -.460E+01 -.252E-17   0.858E-02 -.236E-02 0.711E-12
   0.614E+02 0.482E+02 -.337E-07   -.664E+02 -.528E+02 0.481E-14   0.504E+01 0.460E+01 0.253E-17   -.858E-02 0.236E-02 0.409E-12
   -.724E+02 0.291E+02 0.383E-07   0.789E+02 -.311E+02 0.448E-14   -.650E+01 0.207E+01 0.266E-18   0.225E-02 -.861E-02 -.131E-11
   -.110E+02 0.772E+02 0.629E-07   0.125E+02 -.839E+02 0.475E-14   -.146E+01 0.666E+01 0.606E-19   -.633E-02 -.625E-02 -.233E-12
   0.341E-06 -.494E-06 -.508E-07   -.142E-13 0.197E-10 -.196E-14   0.640E-19 -.255E-16 0.788E-18   0.358E-07 -.256E-07 -.391E-13
   -.341E-06 0.494E-06 0.508E-07   0.000E+00 -.198E-10 -.240E-14   -.330E-16 0.186E-16 0.172E-17   -.358E-07 0.256E-07 -.772E-14
   -.232E+01 0.106E+02 0.237E-07   0.429E+00 -.136E+02 -.296E-14   0.188E+01 0.298E+01 0.179E-17   0.407E-03 0.122E-02 -.457E-13
   -.103E+02 0.328E+01 -.945E-07   0.120E+02 -.641E+01 -.369E-14   -.165E+01 0.312E+01 -.129E-17   -.853E-03 0.962E-03 0.528E-13
   0.800E+01 0.730E+01 -.149E-06   -.115E+02 -.716E+01 -.368E-14   0.352E+01 -.135E+00 0.134E-16   0.126E-02 0.257E-03 0.146E-12
   -.800E+01 -.730E+01 0.149E-06   0.115E+02 0.716E+01 -.246E-14   -.352E+01 0.135E+00 -.134E-16   -.126E-02 -.257E-03 -.354E-13
   0.232E+01 -.106E+02 -.237E-07   -.429E+00 0.136E+02 -.386E-14   -.188E+01 -.298E+01 -.377E-17   -.407E-03 -.122E-02 -.325E-13
   0.103E+02 -.328E+01 0.945E-07   -.120E+02 0.641E+01 -.270E-14   0.165E+01 -.312E+01 -.739E-17   0.853E-03 -.962E-03 -.559E-13
 -----------------------------------------------------------------------------------------------
   -.813E-12 0.119E-11 0.975E-12   0.338E-13 0.178E-14 0.452E-14   0.666E-15 0.000E+00 -.850E-17   0.508E-12 0.137E-11 -.454E-12
 
 
 POSITION                                       TOTAL-FORCE (eV/Angst)
 -----------------------------------------------------------------------------------
      4.09405      4.37386      2.10037        -0.008536     -0.003389      0.000000
      2.24018     -1.16286      0.70012        -0.001333     -0.009087      0.000000
      5.83490     -1.35862      0.70012        -0.007203      0.005698     -0.000000
      2.12716      1.35862      2.10037         0.007203     -0.005698      0.000000
      5.72187      1.16286      2.10037         0.001333      0.009087     -0.000000
      3.86800     -4.37386      0.70012         0.008536      0.003389      0.000000
      3.98103      2.29845      2.10037         0.000000     -0.000000     -0.000000
      3.98103     -2.29845      0.70012         0.000000     -0.000000      0.000000
      6.27442     -2.42032      2.10037        -0.016274     -0.004096      0.000000
      5.23327      4.22365      0.70012        -0.004590     -0.016142     -0.000000
      5.02218      0.25138      0.70012        -0.011684      0.012046     -0.000000
      2.93987     -0.25138      2.10037         0.011684     -0.012046      0.000000
      1.68763      2.42032      0.70012         0.016274      0.004096      0.000000
      2.72879     -4.22365      2.10037         0.004590      0.016142     -0.000000
 -----------------------------------------------------------------------------------
    total drift:                               -0.000000      0.000000      0.000000


--------------------------------------------------------------------------------------------------------



  FREE ENERGIE OF THE ION-ELECTRON SYSTEM (eV)
  ---------------------------------------------------
  free  energy   TOTEN  =       -95.29587247 eV

  energy  without entropy=      -95.29639083  energy(sigma->0) =      -95.29600206
 
 d Force =-0.2947541E-06[-0.785E-06, 0.196E-06]  d Energy =-0.6676123E-05 0.638E-05
 d Force = 0.1045878E-01[ 0.105E-01, 0.105E-01]  d Ewald  = 0.1045878E-01-0.127E-10


--------------------------------------------------------------------------------------------------------


    POTLOK:  cpu time    0.0192: real time    0.0192


--------------------------------------------------------------------------------------------------------




--------------------------------------------------------------------------------------------------------


  
 reached required accuracy - stopping structural energy minimisation
     LOOP+:  cpu time    8.7883: real time    8.7980
    4ORBIT:  cpu time    0.0000: real time    0.0000

 total amount of memory used by VASP MPI-rank0    46120. kBytes
=======================================================================

   base      :      30000. kBytes
   nonlr-proj:       3064. kBytes
   fftplans  :       1366. kBytes
   grid      :       2140. kBytes
   one-center:         12. kBytes
   wavefun   :       9538. kBytes
 
  
  
 General timing and accounting informations for this job:
 ========================================================
  
                  Total CPU time used (sec):      209.769
                            User time (sec):      209.146
                          System time (sec):        0.623
                         Elapsed time (sec):      210.431
  
                   Maximum memory used (kb):       61164.
                   Average memory used (kb):           0.
  
                          Minor page faults:        35033
                          Major page faults:            0
                 Voluntary context switches:         5796
