<?xml version="1.0" encoding="ISO-8859-1"?>
<modeling>
 <generator>
  <i name="program" type="string">vasp </i>
  <i name="version" type="string">5.4.4.18Apr17-6-g9f103f2a35  </i>
  <i name="subversion" type="string">(build Nov 01 2019 12:17:22) complex            parallel </i>
  <i name="platform" type="string">LinuxIFC </i>
  <i name="date" type="string">2023 05 19 </i>
  <i name="time" type="string">18:18:46 </i>
 </generator>
 <incar>
  <i type="string" name="PREC">accurate</i>
  <i type="string" name="ALGO"> Fast</i>
  <i type="int" name="IBRION">     2</i>
  <i type="int" name="NSW">   100</i>
  <i type="int" name="ISIF">     2</i>
  <i type="string" name="LREAL"> Auto</i>
  <i type="int" name="ISMEAR">     2</i>
  <i name="SIGMA">      0.10000000</i>
  <i type="logical" name="LWAVE"> F  </i>
  <i type="logical" name="LCHARG"> F  </i>
  <v type="int" name="KPOINT_BSE">    -1     0     0     0</v>
 </incar>
 <structure name="primitive_cell" >
  <crystal>
   <varray name="basis" >
    <v>       3.98102783      -6.89534246       0.00000000 </v>
    <v>       3.98102782       6.89534247       0.00000000 </v>
    <v>       0.00000000       0.00000000       2.80049448 </v>
   </varray>
   <i name="volume">    153.75022914 </i>
   <varray name="rec_basis" >
    <v>       0.12559571      -0.07251271       0.00000000 </v>
    <v>       0.12559571       0.07251271       0.00000000 </v>
    <v>       0.00000000       0.00000000       0.35707980 </v>
   </varray>
  </crystal>
  <varray name="positions" >
   <v>       0.19708959      -0.16848230      -0.25000000 </v>
   <v>      -0.03641246      -0.38753655      -0.25000000 </v>
   <v>       0.35112409      -0.03641246       0.25000000 </v>
   <v>       0.33333333      -0.33333333      -0.25000000 </v>
   <v>      -0.16848230      -0.36557189       0.25000000 </v>
   <v>       0.36557189       0.19708959       0.25000000 </v>
   <v>      -0.35112409       0.03641246      -0.25000000 </v>
   <v>       0.03641246       0.38753655       0.25000000 </v>
   <v>       0.16848230       0.36557189      -0.25000000 </v>
   <v>      -0.36557189      -0.19708959      -0.25000000 </v>
   <v>       0.38753655       0.35112409      -0.25000000 </v>
   <v>      -0.33333333       0.33333333       0.25000000 </v>
   <v>      -0.38753655      -0.35112409       0.25000000 </v>
   <v>      -0.19708959       0.16848230       0.25000000 </v>
  </varray>
 </structure>
 <varray name="primitive_index" >
  <v type="int" >        1 </v>
  <v type="int" >        9 </v>
  <v type="int" >       10 </v>
  <v type="int" >        7 </v>
  <v type="int" >        3 </v>
  <v type="int" >        2 </v>
  <v type="int" >       14 </v>
  <v type="int" >       13 </v>
  <v type="int" >        4 </v>
  <v type="int" >        5 </v>
  <v type="int" >       12 </v>
  <v type="int" >        8 </v>
  <v type="int" >       11 </v>
  <v type="int" >        6 </v>
 </varray>
 <kpoints>
  <generation param="Auto">
   <i name="subdivisionlength">     45.00000000 </i>
   <v type="int" name="divisions">       7        7       16 </v>
   <v name="usershift">      0.00000000       0.00000000       0.00000000 </v>
   <v name="genvec1">      0.14285714      -0.00000000       0.00000000 </v>
   <v name="genvec2">     -0.00000000       0.14285714       0.00000000 </v>
   <v name="genvec3">      0.00000000       0.00000000       0.06250000 </v>
   <v name="shift">      0.00000000       0.00000000       0.00000000 </v>
  </generation>
  <varray name="kpointlist" >
   <v>       0.00000000       0.00000000       0.00000000 </v>
   <v>       0.14285714       0.00000000       0.00000000 </v>
   <v>       0.28571429       0.00000000       0.00000000 </v>
   <v>       0.42857143       0.00000000       0.00000000 </v>
   <v>       0.14285714       0.14285714       0.00000000 </v>
   <v>       0.28571429       0.14285714       0.00000000 </v>
   <v>       0.42857143       0.14285714       0.00000000 </v>
   <v>      -0.42857143       0.14285714       0.00000000 </v>
   <v>       0.28571429       0.28571429       0.00000000 </v>
   <v>       0.00000000       0.00000000       0.06250000 </v>
   <v>       0.14285714       0.00000000       0.06250000 </v>
   <v>       0.28571429       0.00000000       0.06250000 </v>
   <v>       0.42857143       0.00000000       0.06250000 </v>
   <v>       0.14285714       0.14285714       0.06250000 </v>
   <v>       0.28571429       0.14285714       0.06250000 </v>
   <v>       0.42857143       0.14285714       0.06250000 </v>
   <v>      -0.42857143       0.14285714       0.06250000 </v>
   <v>       0.28571429       0.28571429       0.06250000 </v>
   <v>       0.00000000       0.00000000       0.12500000 </v>
   <v>       0.14285714       0.00000000       0.12500000 </v>
   <v>       0.28571429       0.00000000       0.12500000 </v>
   <v>       0.42857143       0.00000000       0.12500000 </v>
   <v>       0.14285714       0.14285714       0.12500000 </v>
   <v>       0.28571429       0.14285714       0.12500000 </v>
   <v>       0.42857143       0.14285714       0.12500000 </v>
   <v>      -0.42857143       0.14285714       0.12500000 </v>
   <v>       0.28571429       0.28571429       0.12500000 </v>
   <v>       0.00000000       0.00000000       0.18750000 </v>
   <v>       0.14285714       0.00000000       0.18750000 </v>
   <v>       0.28571429       0.00000000       0.18750000 </v>
   <v>       0.42857143       0.00000000       0.18750000 </v>
   <v>       0.14285714       0.14285714       0.18750000 </v>
   <v>       0.28571429       0.14285714       0.18750000 </v>
   <v>       0.42857143       0.14285714       0.18750000 </v>
   <v>      -0.42857143       0.14285714       0.18750000 </v>
   <v>       0.28571429       0.28571429       0.18750000 </v>
   <v>       0.00000000       0.00000000       0.25000000 </v>
   <v>       0.14285714       0.00000000       0.25000000 </v>
   <v>       0.28571429       0.00000000       0.25000000 </v>
   <v>       0.42857143       0.00000000       0.25000000 </v>
   <v>       0.14285714       0.14285714       0.25000000 </v>
   <v>       0.28571429       0.14285714       0.25000000 </v>
   <v>       0.42857143       0.14285714       0.25000000 </v>
   <v>      -0.42857143       0.14285714       0.25000000 </v>
   <v>       0.28571429       0.28571429       0.25000000 </v>
   <v>       0.00000000       0.00000000       0.31250000 </v>
   <v>       0.14285714       0.00000000       0.31250000 </v>
   <v>       0.28571429       0.00000000       0.31250000 </v>
   <v>       0.42857143       0.00000000       0.31250000 </v>
   <v>       0.14285714       0.14285714       0.31250000 </v>
   <v>       0.28571429       0.14285714       0.31250000 </v>
   <v>       0.42857143       0.14285714       0.31250000 </v>
   <v>      -0.42857143       0.14285714       0.31250000 </v>
   <v>       0.28571429       0.28571429       0.31250000 </v>
   <v>       0.00000000       0.00000000       0.37500000 </v>
   <v>       0.14285714       0.00000000       0.37500000 </v>
   <v>       0.28571429       0.00000000       0.37500000 </v>
   <v>       0.42857143       0.00000000       0.37500000 </v>
   <v>       0.14285714       0.14285714       0.37500000 </v>
   <v>       0.28571429       0.14285714       0.37500000 </v>
   <v>       0.42857143       0.14285714       0.37500000 </v>
   <v>      -0.42857143       0.14285714       0.37500000 </v>
   <v>       0.28571429       0.28571429       0.37500000 </v>
   <v>       0.00000000       0.00000000       0.43750000 </v>
   <v>       0.14285714       0.00000000       0.43750000 </v>
   <v>       0.28571429       0.00000000       0.43750000 </v>
   <v>       0.42857143       0.00000000       0.43750000 </v>
   <v>       0.14285714       0.14285714       0.43750000 </v>
   <v>       0.28571429       0.14285714       0.43750000 </v>
   <v>       0.42857143       0.14285714       0.43750000 </v>
   <v>      -0.42857143       0.14285714       0.43750000 </v>
   <v>       0.28571429       0.28571429       0.43750000 </v>
   <v>       0.00000000       0.00000000       0.50000000 </v>
   <v>       0.14285714       0.00000000       0.50000000 </v>
   <v>       0.28571429       0.00000000       0.50000000 </v>
   <v>       0.42857143       0.00000000       0.50000000 </v>
   <v>       0.14285714       0.14285714       0.50000000 </v>
   <v>       0.28571429       0.14285714       0.50000000 </v>
   <v>       0.42857143       0.14285714       0.50000000 </v>
   <v>      -0.42857143       0.14285714       0.50000000 </v>
   <v>       0.28571429       0.28571429       0.50000000 </v>
  </varray>
  <varray name="weights" >
   <v>       0.00127551 </v>
   <v>       0.00765306 </v>
   <v>       0.00765306 </v>
   <v>       0.00765306 </v>
   <v>       0.00765306 </v>
   <v>       0.00765306 </v>
   <v>       0.00765306 </v>
   <v>       0.00765306 </v>
   <v>       0.00765306 </v>
   <v>       0.00255102 </v>
   <v>       0.01530612 </v>
   <v>       0.01530612 </v>
   <v>       0.01530612 </v>
   <v>       0.01530612 </v>
   <v>       0.01530612 </v>
   <v>       0.01530612 </v>
   <v>       0.01530612 </v>
   <v>       0.01530612 </v>
   <v>       0.00255102 </v>
   <v>       0.01530612 </v>
   <v>       0.01530612 </v>
   <v>       0.01530612 </v>
   <v>       0.01530612 </v>
   <v>       0.01530612 </v>
   <v>       0.01530612 </v>
   <v>       0.01530612 </v>
   <v>       0.01530612 </v>
   <v>       0.00255102 </v>
   <v>       0.01530612 </v>
   <v>       0.01530612 </v>
   <v>       0.01530612 </v>
   <v>       0.01530612 </v>
   <v>       0.01530612 </v>
   <v>       0.01530612 </v>
   <v>       0.01530612 </v>
   <v>       0.01530612 </v>
   <v>       0.00255102 </v>
   <v>       0.01530612 </v>
   <v>       0.01530612 </v>
   <v>       0.01530612 </v>
   <v>       0.01530612 </v>
   <v>       0.01530612 </v>
   <v>       0.01530612 </v>
   <v>       0.01530612 </v>
   <v>       0.01530612 </v>
   <v>       0.00255102 </v>
   <v>       0.01530612 </v>
   <v>       0.01530612 </v>
   <v>       0.01530612 </v>
   <v>       0.01530612 </v>
   <v>       0.01530612 </v>
   <v>       0.01530612 </v>
   <v>       0.01530612 </v>
   <v>       0.01530612 </v>
   <v>       0.00255102 </v>
   <v>       0.01530612 </v>
   <v>       0.01530612 </v>
   <v>       0.01530612 </v>
   <v>       0.01530612 </v>
   <v>       0.01530612 </v>
   <v>       0.01530612 </v>
   <v>       0.01530612 </v>
   <v>       0.01530612 </v>
   <v>       0.00255102 </v>
   <v>       0.01530612 </v>
   <v>       0.01530612 </v>
   <v>       0.01530612 </v>
   <v>       0.01530612 </v>
   <v>       0.01530612 </v>
   <v>       0.01530612 </v>
   <v>       0.01530612 </v>
   <v>       0.01530612 </v>
   <v>       0.00127551 </v>
   <v>       0.00765306 </v>
   <v>       0.00765306 </v>
   <v>       0.00765306 </v>
   <v>       0.00765306 </v>
   <v>       0.00765306 </v>
   <v>       0.00765306 </v>
   <v>       0.00765306 </v>
   <v>       0.00765306 </v>
  </varray>
 </kpoints>
 <parameters>
  <separator name="general" >
   <i type="string" name="SYSTEM">unknown system</i>
   <i type="logical" name="LCOMPAT"> F  </i>
  </separator>
  <separator name="electronic" >
   <i type="string" name="PREC">accura</i>
   <i name="ENMAX">    400.00000000</i>
   <i name="ENAUG">    627.11200000</i>
   <i name="EDIFF">      0.00010000</i>
   <i type="int" name="IALGO">    68</i>
   <i type="int" name="IWAVPR">    11</i>
   <i type="int" name="NBANDS">    40</i>
   <i name="NELECT">     62.00000000</i>
   <i type="int" name="TURBO">     0</i>
   <i type="int" name="IRESTART">     0</i>
   <i type="int" name="NREBOOT">     0</i>
   <i type="int" name="NMIN">     0</i>
   <i name="EREF">      0.00000000</i>
   <separator name="electronic smearing" >
    <i type="int" name="ISMEAR">     2</i>
    <i name="SIGMA">      0.10000000</i>
    <i name="KSPACING">      0.50000000</i>
    <i type="logical" name="KGAMMA"> T  </i>
   </separator>
   <separator name="electronic projectors" >
    <i type="logical" name="LREAL"> T  </i>
    <v name="ROPT">     -0.00025000     -0.00025000</v>
    <i type="int" name="LMAXPAW">  -100</i>
    <i type="int" name="LMAXMIX">     2</i>
    <i type="logical" name="NLSPLINE"> F  </i>
   </separator>
   <separator name="electronic startup" >
    <i type="int" name="ISTART">     0</i>
    <i type="int" name="ICHARG">     2</i>
    <i type="int" name="INIWAV">     1</i>
   </separator>
   <separator name="electronic spin" >
    <i type="int" name="ISPIN">     1</i>
    <i type="logical" name="LNONCOLLINEAR"> F  </i>
    <v name="MAGMOM">      1.00000000      1.00000000      1.00000000      1.00000000      1.00000000      1.00000000      1.00000000      1.00000000      1.00000000      1.00000000      1.00000000      1.00000000      1.00000000      1.00000000</v>
    <i name="NUPDOWN">     -1.00000000</i>
    <i type="logical" name="LSORBIT"> F  </i>
    <v name="SAXIS">      0.00000000      0.00000000      1.00000000</v>
    <i type="logical" name="LSPIRAL"> F  </i>
    <v name="QSPIRAL">      0.00000000      0.00000000      0.00000000</v>
    <i type="logical" name="LZEROZ"> F  </i>
   </separator>
   <separator name="electronic exchange-correlation" >
    <i type="logical" name="LASPH"> F  </i>
    <i type="logical" name="LMETAGGA"> F  </i>
   </separator>
   <separator name="electronic convergence" >
    <i type="int" name="NELM">    60</i>
    <i type="int" name="NELMDL">    -5</i>
    <i type="int" name="NELMIN">     2</i>
    <i name="ENINI">    400.00000000</i>
    <separator name="electronic convergence detail" >
     <i type="logical" name="LDIAG"> T  </i>
     <i type="logical" name="LSUBROT"> F  </i>
     <i name="WEIMIN">      0.00100000</i>
     <i name="EBREAK">      0.00000063</i>
     <i name="DEPER">      0.30000000</i>
     <i type="int" name="NRMM">     4</i>
     <i name="TIME">      0.40000000</i>
    </separator>
   </separator>
   <separator name="electronic mixer" >
    <i name="AMIX">      0.40000000</i>
    <i name="BMIX">      1.00000000</i>
    <i name="AMIN">      0.10000000</i>
    <i name="AMIX_MAG">      1.60000000</i>
    <i name="BMIX_MAG">      1.00000000</i>
    <separator name="electronic mixer details" >
     <i type="int" name="IMIX">     4</i>
     <i type="logical" name="MIXFIRST"> F  </i>
     <i type="int" name="MAXMIX">   -45</i>
     <i name="WC">    100.00000000</i>
     <i type="int" name="INIMIX">     1</i>
     <i type="int" name="MIXPRE">     1</i>
     <i type="int" name="MREMOVE">     5</i>
    </separator>
   </separator>
   <separator name="electronic dipolcorrection" >
    <i type="logical" name="LDIPOL"> F  </i>
    <i type="logical" name="LMONO"> F  </i>
    <i type="int" name="IDIPOL">     0</i>
    <i name="EPSILON">      1.00000000</i>
    <v name="DIPOL">   -100.00000000   -100.00000000   -100.00000000</v>
    <i name="EFIELD">      0.00000000</i>
   </separator>
  </separator>
  <separator name="grids" >
   <i type="int" name="NGX">    54</i>
   <i type="int" name="NGY">    54</i>
   <i type="int" name="NGZ">    18</i>
   <i type="int" name="NGXF">   108</i>
   <i type="int" name="NGYF">   108</i>
   <i type="int" name="NGZF">    36</i>
   <i type="logical" name="ADDGRID"> F  </i>
  </separator>
  <separator name="ionic" >
   <i type="int" name="NSW">   100</i>
   <i type="int" name="IBRION">     2</i>
   <i type="int" name="MDALGO">     0</i>
   <i type="int" name="ISIF">     2</i>
   <i name="PSTRESS">      0.00000000</i>
   <i name="EDIFFG">      0.00100000</i>
   <i type="int" name="NFREE">     1</i>
   <i name="POTIM">      0.50000000</i>
   <i name="SMASS">     -3.00000000</i>
   <i name="SCALEE">      1.00000000</i>
  </separator>
  <separator name="ionic md" >
   <i name="TEBEG">      0.00010000</i>
   <i name="TEEND">      0.00010000</i>
   <i type="int" name="NBLOCK">     1</i>
   <i type="int" name="KBLOCK">   100</i>
   <i type="int" name="NPACO">   256</i>
   <i name="APACO">     16.00000000</i>
  </separator>
  <separator name="symmetry" >
   <i type="int" name="ISYM">     2</i>
   <i name="SYMPREC">      0.00001000</i>
  </separator>
  <separator name="dos" >
   <i type="int" name="LORBIT">     0</i>
   <v name="RWIGS">     -1.00000000     -1.00000000</v>
   <i type="int" name="NEDOS">   301</i>
   <i name="EMIN">     10.00000000</i>
   <i name="EMAX">    -10.00000000</i>
   <i name="EFERMI">      0.00000000</i>
  </separator>
  <separator name="writing" >
   <i type="int" name="NWRITE">     2</i>
   <i type="logical" name="LWAVE"> F  </i>
   <i type="logical" name="LDOWNSAMPLE"> F  </i>
   <i type="logical" name="LCHARG"> F  </i>
   <i type="logical" name="LPARD"> F  </i>
   <i type="logical" name="LVTOT"> F  </i>
   <i type="logical" name="LVHAR"> F  </i>
   <i type="logical" name="LELF"> F  </i>
   <i type="logical" name="LOPTICS"> F  </i>
   <v name="STM">      0.00000000      0.00000000      0.00000000      0.00000000      0.00000000      0.00000000      0.00000000</v>
  </separator>
  <separator name="performance" >
   <i type="int" name="NPAR">     4</i>
   <i type="int" name="NSIM">     4</i>
   <i type="int" name="NBLK">    -1</i>
   <i type="logical" name="LPLANE"> T  </i>
   <i type="logical" name="LSCALAPACK"> F  </i>
   <i type="logical" name="LSCAAWARE"> F  </i>
   <i type="logical" name="LSCALU"> F  </i>
   <i type="logical" name="LASYNC"> F  </i>
   <i type="logical" name="LORBITALREAL"> F  </i>
  </separator>
  <separator name="miscellaneous" >
   <i type="int" name="IDIOT">     3</i>
   <i type="int" name="ISPECIAL">     0</i>
   <i type="logical" name="LMUSIC"> F  </i>
   <v name="POMASS">     14.00100000     28.08500000</v>
   <v name="DARWINR">      0.00000000      0.00000000</v>
   <v name="DARWINV">      1.00000000      1.00000000</v>
   <i type="logical" name="LCORR"> T  </i>
  </separator>
  <i type="logical" name="GGA_COMPAT"> T  </i>
  <i type="logical" name="LBERRY"> F  </i>
  <i type="int" name="ICORELEVEL">     0</i>
  <i type="logical" name="LDAU"> F  </i>
  <i type="int" name="I_CONSTRAINED_M">     0</i>
  <separator name="electronic exchange-correlation" >
   <i type="string" name="GGA">--</i>
   <i type="int" name="VOSKOWN">     0</i>
   <i type="logical" name="LHFCALC"> F  </i>
   <i type="string" name="PRECFOCK"></i>
   <i type="logical" name="LSYMGRAD"> F  </i>
   <i type="logical" name="LHFONE"> F  </i>
   <i type="logical" name="LRHFCALC"> F  </i>
   <i type="logical" name="LTHOMAS"> F  </i>
   <i type="logical" name="LMODELHF"> F  </i>
   <i name="ENCUT4O">     -1.00000000</i>
   <i type="int" name="EXXOEP">     0</i>
   <i type="int" name="FOURORBIT">     0</i>
   <i name="AEXX">      0.00000000</i>
   <i name="HFALPHA">      0.00000000</i>
   <i name="MCALPHA">      0.00000000</i>
   <i name="ALDAX">      1.00000000</i>
   <i name="AGGAX">      1.00000000</i>
   <i name="ALDAC">      1.00000000</i>
   <i name="AGGAC">      1.00000000</i>
   <i type="int" name="NKREDX">     1</i>
   <i type="int" name="NKREDY">     1</i>
   <i type="int" name="NKREDZ">     1</i>
   <i type="logical" name="SHIFTRED"> F  </i>
   <i type="logical" name="ODDONLY"> F  </i>
   <i type="logical" name="EVENONLY"> F  </i>
   <i type="int" name="LMAXFOCK">     0</i>
   <i type="int" name="NMAXFOCKAE">     0</i>
   <i type="logical" name="LFOCKAEDFT"> F  </i>
   <i name="HFSCREEN">      0.00000000</i>
   <i name="HFSCREENC">      0.00000000</i>
   <i type="int" name="NBANDSGWLOW">     0</i>
  </separator>
  <separator name="vdW DFT" >
   <i type="logical" name="LUSE_VDW"> F  </i>
   <i name="Zab_VDW">     -0.84910000</i>
   <i name="PARAM1">      0.12340000</i>
   <i name="PARAM2">      1.00000000</i>
   <i name="PARAM3">      0.00000000</i>
  </separator>
  <separator name="model GW" >
   <i type="int" name="MODEL_GW">     0</i>
   <i name="MODEL_EPS0">      6.58929553</i>
   <i name="MODEL_ALPHA">      1.00000000</i>
  </separator>
  <separator name="linear response parameters" >
   <i type="logical" name="LEPSILON"> F  </i>
   <i type="logical" name="LRPA"> F  </i>
   <i type="logical" name="LNABLA"> F  </i>
   <i type="logical" name="LVEL"> F  </i>
   <i type="int" name="KINTER">     0</i>
   <i name="CSHIFT">      0.10000000</i>
   <i name="OMEGAMAX">     -1.00000000</i>
   <i name="DEG_THRESHOLD">      0.00200000</i>
   <i name="RTIME">     -0.10000000</i>
   <i name="WPLASMAI">      0.00000000</i>
   <v name="DFIELD">      0.00000000      0.00000000      0.00000000</v>
   <v name="WPLASMA">      0.00000000      0.00000000      0.00000000      0.00000000      0.00000000      0.00000000      0.00000000      0.00000000      0.00000000</v>
  </separator>
  <separator name="orbital magnetization" >
   <i type="logical" name="NUCIND"> F  </i>
   <v name="MAGPOS">      0.00000000      0.00000000      0.00000000</v>
   <i type="logical" name="LNICSALL"> T  </i>
   <i type="logical" name="ORBITALMAG"> F  </i>
   <i type="logical" name="LMAGBLOCH"> F  </i>
   <i type="logical" name="LCHIMAG"> F  </i>
   <i type="logical" name="LGAUGE"> T  </i>
   <i type="int" name="MAGATOM">     0</i>
   <v name="MAGDIPOL">      0.00000000      0.00000000      0.00000000</v>
   <v name="AVECCONST">      0.00000000      0.00000000      0.00000000</v>
  </separator>
  <separator name="response functions" >
   <i type="logical" name="LADDER"> F  </i>
   <i type="logical" name="LRPAFORCE"> F  </i>
   <i type="logical" name="LFXC"> F  </i>
   <i type="logical" name="LHARTREE"> T  </i>
   <i type="int" name="IBSE">     0</i>
   <v type="int" name="KPOINT">    -1     0     0     0</v>
   <i type="logical" name="LTCTE"> F  </i>
   <i type="logical" name="LTETE"> F  </i>
   <i type="logical" name="LTRIPLET"> F  </i>
   <i type="logical" name="LFXCEPS"> F  </i>
   <i type="logical" name="LFXHEG"> F  </i>
   <i type="int" name="NATURALO">     2</i>
   <i type="logical" name="L2ORDER"> F  </i>
   <i type="logical" name="LMP2LT"> F  </i>
   <i type="logical" name="LUSEW"> F  </i>
   <i name="ENCUTGW">     -2.00000000</i>
   <i name="ENCUTGWSOFT">     -2.00000000</i>
   <i name="ENCUTLF">     -1.00000000</i>
   <i type="int" name="LMAXMP2">    -1</i>
   <i name="SCISSOR">      0.00000000</i>
   <i type="int" name="NOMEGA">     0</i>
   <i type="int" name="NOMEGAR">     0</i>
   <i type="int" name="NBANDSGW">    -1</i>
   <i type="int" name="NBANDSO">    -1</i>
   <i type="int" name="NBANDSV">    -1</i>
   <i type="int" name="NELM">     1</i>
   <i type="int" name="NELMHF">     1</i>
   <i type="int" name="DIM">     3</i>
   <i type="int" name="ANTIRES">     0</i>
   <i name="OMEGAMAX">    -30.00000000</i>
   <i name="OMEGAMIN">    -30.00000000</i>
   <i name="OMEGATL">   -200.00000000</i>
   <i type="int" name="OMEGAGRID">   140</i>
   <i name="CSHIFT">     -0.10000000</i>
   <i type="logical" name="SELFENERGY"> F  </i>
   <i type="logical" name="LSPECTRAL"> F  </i>
   <i type="logical" name="LSPECTRALGW"> F  </i>
   <i type="logical" name="LSINGLES"> F  </i>
   <i type="logical" name="LFERMIGW"> F  </i>
   <i type="logical" name="ODDONLYGW"> F  </i>
   <i type="logical" name="EVENONLYGW"> F  </i>
   <i type="int" name="NKREDLFX">     1</i>
   <i type="int" name="NKREDLFY">     1</i>
   <i type="int" name="NKREDLFZ">     1</i>
   <i type="int" name="MAXMEM">  2800</i>
   <i type="int" name="TELESCOPE">     0</i>
   <i type="int" name="TAUPAR">     1</i>
   <i type="int" name="OMEGAPAR">    -1</i>
   <i name="LAMBDA">      1.00000000</i>
  </separator>
  <separator name="External order field" >
   <i name="OFIELD_KAPPA">      0.00000000</i>
   <v name="OFIELD_K">      0.00000000      0.00000000      0.00000000</v>
   <i name="OFIELD_Q6_NEAR">      0.00000000</i>
   <i name="OFIELD_Q6_FAR">      0.00000000</i>
   <i name="OFIELD_A">      0.00000000</i>
  </separator>
 </parameters>
 <atominfo>
  <atoms>      14 </atoms>
  <types>       2 </types>
  <array name="atoms" >
   <dimension dim="1">ion</dimension>
   <field type="string">element</field>
   <field type="int">atomtype</field>
   <set>
    <rc><c>N </c><c>   1</c></rc>
    <rc><c>N </c><c>   1</c></rc>
    <rc><c>N </c><c>   1</c></rc>
    <rc><c>N </c><c>   1</c></rc>
    <rc><c>N </c><c>   1</c></rc>
    <rc><c>N </c><c>   1</c></rc>
    <rc><c>Si</c><c>   2</c></rc>
    <rc><c>Si</c><c>   2</c></rc>
    <rc><c>Si</c><c>   2</c></rc>
    <rc><c>Si</c><c>   2</c></rc>
    <rc><c>Si</c><c>   2</c></rc>
    <rc><c>Si</c><c>   2</c></rc>
    <rc><c>Si</c><c>   2</c></rc>
    <rc><c>Si</c><c>   2</c></rc>
   </set>
  </array>
  <array name="atomtypes" >
   <dimension dim="1">type</dimension>
   <field type="int">atomspertype</field>
   <field type="string">element</field>
   <field>mass</field>
   <field>valence</field>
   <field type="string">pseudopotential</field>
   <set>
    <rc><c>   6</c><c>N </c><c>     14.00100000</c><c>      5.00000000</c><c>  PAW_PBE N 08Apr2002                   </c></rc>
    <rc><c>   8</c><c>Si</c><c>     28.08500000</c><c>      4.00000000</c><c>  PAW_PBE Si 05Jan2001                  </c></rc>
   </set>
  </array>
 </atominfo>
 <structure name="initialpos" >
  <crystal>
   <varray name="basis" >
    <v>       3.98102783      -6.89534246       0.00000000 </v>
    <v>       3.98102782       6.89534247       0.00000000 </v>
    <v>       0.00000000       0.00000000       2.80049448 </v>
   </varray>
   <i name="volume">    153.75022914 </i>
   <varray name="rec_basis" >
    <v>       0.12559571      -0.07251271       0.00000000 </v>
    <v>       0.12559571       0.07251271       0.00000000 </v>
    <v>       0.00000000       0.00000000       0.35707980 </v>
   </varray>
  </crystal>
  <varray name="positions" >
   <v>       0.19708959       0.83151770       0.75000000 </v>
   <v>       0.36557189       0.19708959       0.25000000 </v>
   <v>       0.83151770       0.63442811       0.25000000 </v>
   <v>       0.16848230       0.36557189       0.75000000 </v>
   <v>       0.63442811       0.80291041       0.75000000 </v>
   <v>       0.80291041       0.16848230       0.25000000 </v>
   <v>       0.33333333       0.66666667       0.75000000 </v>
   <v>       0.66666667       0.33333333       0.25000000 </v>
   <v>       0.96358754       0.61246345       0.75000000 </v>
   <v>       0.35112409       0.96358754       0.25000000 </v>
   <v>       0.61246345       0.64887591       0.25000000 </v>
   <v>       0.38753655       0.35112409       0.75000000 </v>
   <v>       0.03641246       0.38753655       0.25000000 </v>
   <v>       0.64887591       0.03641246       0.75000000 </v>
  </varray>
 </structure>
 <calculation>
  <scstep>
   <time name="dav">    3.00    3.00</time>
   <time name="total">    3.03    3.03</time>
   <energy>
    <i name="alphaZ">     79.28787618 </i>
    <i name="ewald">  -2246.10524739 </i>
    <i name="hartreedc">   -513.46630709 </i>
    <i name="XCdc">     53.14338241 </i>
    <i name="pawpsdc">   1934.58678659 </i>
    <i name="pawaedc">  -1800.98643654 </i>
    <i name="eentropy">     -0.00015748 </i>
    <i name="bandstr">    308.35903948 </i>
    <i name="atom">   2411.37598431 </i>
    <i name="e_fr_energy">    226.19492048 </i>
    <i name="e_wo_entrp">    226.19507796 </i>
    <i name="e_0_energy">    226.19495985 </i>
   </energy>
  </scstep>
  <scstep>
   <time name="dav">    3.57    3.58</time>
   <time name="total">    3.58    3.58</time>
   <energy>
    <i name="e_fr_energy">    -82.73392305 </i>
    <i name="e_wo_entrp">    -82.73439045 </i>
    <i name="e_0_energy">    -82.73403990 </i>
   </energy>
  </scstep>
  <scstep>
   <time name="dav">    3.63    3.63</time>
   <time name="total">    3.63    3.63</time>
   <energy>
    <i name="e_fr_energy">   -104.21213505 </i>
    <i name="e_wo_entrp">   -104.21252372 </i>
    <i name="e_0_energy">   -104.21223221 </i>
   </energy>
  </scstep>
  <scstep>
   <time name="dav">    6.39    6.38</time>
   <time name="total">    6.39    6.39</time>
   <energy>
    <i name="e_fr_energy">   -104.73139921 </i>
    <i name="e_wo_entrp">   -104.73150461 </i>
    <i name="e_0_energy">   -104.73142556 </i>
   </energy>
  </scstep>
  <scstep>
   <time name="dav">   58.30   58.24</time>
   <time name="total">   58.47   58.42</time>
   <energy>
    <i name="e_fr_energy">   -104.74367103 </i>
    <i name="e_wo_entrp">   -104.74377216 </i>
    <i name="e_0_energy">   -104.74369632 </i>
   </energy>
  </scstep>
  <scstep>
   <time name="diag">    0.42    0.42</time>
   <time name="diis">    2.07    2.07</time>
   <time name="orth">    0.04    0.04</time>
   <time name="total">    2.72    2.72</time>
   <energy>
    <i name="e_fr_energy">    -95.82068943 </i>
    <i name="e_wo_entrp">    -95.82156895 </i>
    <i name="e_0_energy">    -95.82090931 </i>
   </energy>
  </scstep>
  <scstep>
   <time name="diag">    0.41    0.41</time>
   <time name="diis">    2.05    2.04</time>
   <time name="orth">    0.04    0.04</time>
   <time name="total">    2.68    2.68</time>
   <energy>
    <i name="e_fr_energy">    -95.40184918 </i>
    <i name="e_wo_entrp">    -95.40311096 </i>
    <i name="e_0_energy">    -95.40216463 </i>
   </energy>
  </scstep>
  <scstep>
   <time name="diag">    0.41    0.41</time>
   <time name="diis">    2.03    2.03</time>
   <time name="orth">    0.04    0.04</time>
   <time name="total">    2.67    2.68</time>
   <energy>
    <i name="e_fr_energy">    -95.30643317 </i>
    <i name="e_wo_entrp">    -95.30658602 </i>
    <i name="e_0_energy">    -95.30647139 </i>
   </energy>
  </scstep>
  <scstep>
   <time name="diag">    0.41    0.41</time>
   <time name="diis">    2.05    2.05</time>
   <time name="orth">    0.04    0.04</time>
   <time name="total">    2.68    2.68</time>
   <energy>
    <i name="e_fr_energy">    -95.29718767 </i>
    <i name="e_wo_entrp">    -95.29766211 </i>
    <i name="e_0_energy">    -95.29730628 </i>
   </energy>
  </scstep>
  <scstep>
   <time name="diag">    0.41    0.41</time>
   <time name="diis">    2.06    2.06</time>
   <time name="orth">    0.04    0.04</time>
   <time name="total">    2.70    2.70</time>
   <energy>
    <i name="e_fr_energy">    -95.29496339 </i>
    <i name="e_wo_entrp">    -95.29553208 </i>
    <i name="e_0_energy">    -95.29510557 </i>
   </energy>
  </scstep>
  <scstep>
   <time name="diag">    0.42    0.42</time>
   <time name="diis">    2.00    2.00</time>
   <time name="orth">    0.03    0.03</time>
   <time name="total">    2.64    2.64</time>
   <energy>
    <i name="e_fr_energy">    -95.29593505 </i>
    <i name="e_wo_entrp">    -95.29645285 </i>
    <i name="e_0_energy">    -95.29606450 </i>
   </energy>
  </scstep>
  <scstep>
   <time name="diag">    4.80    4.80</time>
   <time name="diis">    1.92    1.92</time>
   <time name="orth">    0.03    0.03</time>
   <time name="total">    7.03    7.10</time>
   <energy>
    <i name="e_fr_energy">    -95.29572028 </i>
    <i name="e_wo_entrp">    -95.29623802 </i>
    <i name="e_0_energy">    -95.29584972 </i>
   </energy>
  </scstep>
  <scstep>
   <time name="diag">    0.40    0.40</time>
   <time name="diis">    1.42    1.42</time>
   <time name="orth">    0.04    0.04</time>
   <time name="total">    1.88    1.88</time>
   <energy>
    <i name="alphaZ">     79.28787618 </i>
    <i name="ewald">  -2246.10524739 </i>
    <i name="hartreedc">   -603.94549368 </i>
    <i name="XCdc">     60.14369348 </i>
    <i name="pawpsdc">   7881.59032119 </i>
    <i name="pawaedc">  -7749.57138895 </i>
    <i name="eentropy">      0.00053072 </i>
    <i name="bandstr">     71.92799171 </i>
    <i name="atom">   2411.37598431 </i>
    <i name="e_fr_energy">    -95.29573245 </i>
    <i name="e_wo_entrp">    -95.29626316 </i>
    <i name="e_0_energy">    -95.29586512 </i>
   </energy>
  </scstep>
  <structure>
   <crystal>
    <varray name="basis" >
     <v>       3.98102783      -6.89534246       0.00000000 </v>
     <v>       3.98102782       6.89534247       0.00000000 </v>
     <v>       0.00000000       0.00000000       2.80049448 </v>
    </varray>
    <i name="volume">    153.75022914 </i>
    <varray name="rec_basis" >
     <v>       0.12559571      -0.07251271       0.00000000 </v>
     <v>       0.12559571       0.07251271       0.00000000 </v>
     <v>       0.00000000       0.00000000       0.35707980 </v>
    </varray>
   </crystal>
   <varray name="positions" >
    <v>       0.19708959       0.83151770       0.75000000 </v>
    <v>       0.36557189       0.19708959       0.25000000 </v>
    <v>       0.83151770       0.63442811       0.25000000 </v>
    <v>       0.16848230       0.36557189       0.75000000 </v>
    <v>       0.63442811       0.80291041       0.75000000 </v>
    <v>       0.80291041       0.16848230       0.25000000 </v>
    <v>       0.33333333       0.66666667       0.75000000 </v>
    <v>       0.66666667       0.33333333       0.25000000 </v>
    <v>       0.96358754       0.61246345       0.75000000 </v>
    <v>       0.35112409       0.96358754       0.25000000 </v>
    <v>       0.61246345       0.64887591       0.25000000 </v>
    <v>       0.38753655       0.35112409       0.75000000 </v>
    <v>       0.03641246       0.38753655       0.25000000 </v>
    <v>       0.64887591       0.03641246       0.75000000 </v>
   </varray>
  </structure>
  <varray name="forces" >
   <v>      -0.01838815      -0.01581058      -0.00000000 </v>
   <v>       0.00449828      -0.02382990      -0.00000000 </v>
   <v>      -0.02288644       0.00801932      -0.00000000 </v>
   <v>       0.02288644      -0.00801932      -0.00000000 </v>
   <v>      -0.00449828       0.02382990       0.00000000 </v>
   <v>       0.01838815       0.01581058       0.00000000 </v>
   <v>       0.00000000       0.00000000       0.00000000 </v>
   <v>       0.00000000       0.00000000       0.00000000 </v>
   <v>       0.00251402       0.01709244       0.00000000 </v>
   <v>      -0.01354548       0.01072342      -0.00000000 </v>
   <v>       0.01605949       0.00636902      -0.00000000 </v>
   <v>      -0.01605949      -0.00636902       0.00000000 </v>
   <v>      -0.00251402      -0.01709244      -0.00000000 </v>
   <v>       0.01354548      -0.01072342       0.00000000 </v>
  </varray>
  <varray name="stress" >
   <v>      21.70487867       0.00000017       0.00000000 </v>
   <v>      -0.00000017      21.70487867       0.00000000 </v>
   <v>       0.00000000      -0.00000000      -0.85530006 </v>
  </varray>
  <energy>
   <i name="e_fr_energy">    -95.29573245 </i>
   <i name="e_wo_entrp">    -95.29586512 </i>
   <i name="e_0_energy">      0.00053072 </i>
  </energy>
  <time name="totalsc">  105.03  105.07</time>
 </calculation>
 <calculation>
  <scstep>
   <time name="dav">   12.80   12.79</time>
   <time name="total">   13.29   13.33</time>
   <energy>
    <i name="alphaZ">     79.28787618 </i>
    <i name="ewald">  -2245.72114311 </i>
    <i name="hartreedc">   -604.25422148 </i>
    <i name="XCdc">     60.15205430 </i>
    <i name="pawpsdc">   7885.02733680 </i>
    <i name="pawaedc">  -7753.00850722 </i>
    <i name="eentropy">      0.00051601 </i>
    <i name="bandstr">     71.84426737 </i>
    <i name="atom">   2411.37598431 </i>
    <i name="e_fr_energy">    -95.29583683 </i>
    <i name="e_wo_entrp">    -95.29635284 </i>
    <i name="e_0_energy">    -95.29596583 </i>
   </energy>
  </scstep>
  <scstep>
   <time name="diag">    0.41    0.41</time>
   <time name="diis">    1.72    1.72</time>
   <time name="orth">    0.04    0.04</time>
   <time name="total">    2.19    2.19</time>
   <energy>
    <i name="alphaZ">     79.28787618 </i>
    <i name="ewald">  -2245.72114311 </i>
    <i name="hartreedc">   -604.25329701 </i>
    <i name="XCdc">     60.15112059 </i>
    <i name="pawpsdc">   7883.83164944 </i>
    <i name="pawaedc">  -7751.81310006 </i>
    <i name="eentropy">      0.00051509 </i>
    <i name="bandstr">     71.84451543 </i>
    <i name="atom">   2411.37598431 </i>
    <i name="e_fr_energy">    -95.29587914 </i>
    <i name="e_wo_entrp">    -95.29639423 </i>
    <i name="e_0_energy">    -95.29600792 </i>
   </energy>
  </scstep>
  <structure>
   <crystal>
    <varray name="basis" >
     <v>       3.98102783      -6.89534246       0.00000000 </v>
     <v>       3.98102782       6.89534247       0.00000000 </v>
     <v>       0.00000000       0.00000000       2.80049448 </v>
    </varray>
    <i name="volume">    153.75022914 </i>
    <varray name="rec_basis" >
     <v>       0.12559571      -0.07251271       0.00000000 </v>
     <v>       0.12559571       0.07251271       0.00000000 </v>
     <v>       0.00000000       0.00000000       0.35707980 </v>
    </varray>
   </crystal>
   <varray name="positions" >
    <v>       0.19703349       0.83135098       0.75000000 </v>
    <v>       0.36568251       0.19703349       0.25000000 </v>
    <v>       0.83135098       0.63431749       0.25000000 </v>
    <v>       0.16864902       0.36568251       0.75000000 </v>
    <v>       0.63431749       0.80296651       0.75000000 </v>
    <v>       0.80296651       0.16864902       0.25000000 </v>
    <v>       0.33333333       0.66666667       0.75000000 </v>
    <v>       0.66666667       0.33333333       0.25000000 </v>
    <v>       0.96354298       0.61253848       0.75000000 </v>
    <v>       0.35100451       0.96354298       0.25000000 </v>
    <v>       0.61253848       0.64899549       0.25000000 </v>
    <v>       0.38746152       0.35100451       0.75000000 </v>
    <v>       0.03645702       0.38746152       0.25000000 </v>
    <v>       0.64899549       0.03645702       0.75000000 </v>
   </varray>
  </structure>
  <varray name="forces" >
   <v>      -0.00275451      -0.00284270       0.00000000 </v>
   <v>       0.00108460      -0.00380682       0.00000000 </v>
   <v>      -0.00383910       0.00096412      -0.00000000 </v>
   <v>       0.00383910      -0.00096412      -0.00000000 </v>
   <v>      -0.00108460       0.00380682      -0.00000000 </v>
   <v>       0.00275451       0.00284270      -0.00000000 </v>
   <v>      -0.00000000      -0.00000000       0.00000000 </v>
   <v>      -0.00000000       0.00000000      -0.00000000 </v>
   <v>      -0.01659067      -0.00460440       0.00000000 </v>
   <v>      -0.00430781      -0.01667014      -0.00000000 </v>
   <v>      -0.01228286       0.01206574       0.00000000 </v>
   <v>       0.01228286      -0.01206574      -0.00000000 </v>
   <v>       0.01659067       0.00460440       0.00000000 </v>
   <v>       0.00430781       0.01667014       0.00000000 </v>
  </varray>
  <varray name="stress" >
   <v>      22.10193540      -0.00000004       0.00000000 </v>
   <v>       0.00000004      22.10193540      -0.00000000 </v>
   <v>       0.00000000      -0.00000000      -0.70108398 </v>
  </varray>
  <energy>
   <i name="e_fr_energy">    -95.29587914 </i>
   <i name="e_wo_entrp">    -95.29600792 </i>
   <i name="e_0_energy">      0.00051509 </i>
  </energy>
  <time name="totalsc">   20.30   20.35</time>
 </calculation>
 <calculation>
  <scstep>
   <time name="dav">    2.49    2.49</time>
   <time name="total">    2.68    2.69</time>
   <energy>
    <i name="alphaZ">     79.28787618 </i>
    <i name="ewald">  -2245.73160189 </i>
    <i name="hartreedc">   -604.27266769 </i>
    <i name="XCdc">     60.15216569 </i>
    <i name="pawpsdc">   7884.72610381 </i>
    <i name="pawaedc">  -7752.70807925 </i>
    <i name="eentropy">      0.00051781 </i>
    <i name="bandstr">     71.87382770 </i>
    <i name="atom">   2411.37598431 </i>
    <i name="e_fr_energy">    -95.29587332 </i>
    <i name="e_wo_entrp">    -95.29639113 </i>
    <i name="e_0_energy">    -95.29600278 </i>
   </energy>
  </scstep>
  <scstep>
   <time name="diag">    0.41    0.41</time>
   <time name="diis">    1.21    1.21</time>
   <time name="orth">    0.04    0.04</time>
   <time name="total">    1.68    1.68</time>
   <energy>
    <i name="alphaZ">     79.28787618 </i>
    <i name="ewald">  -2245.73160189 </i>
    <i name="hartreedc">   -604.28324219 </i>
    <i name="XCdc">     60.15261033 </i>
    <i name="pawpsdc">   7885.53714111 </i>
    <i name="pawaedc">  -7753.51933367 </i>
    <i name="eentropy">      0.00051836 </i>
    <i name="bandstr">     71.88417499 </i>
    <i name="atom">   2411.37598431 </i>
    <i name="e_fr_energy">    -95.29587247 </i>
    <i name="e_wo_entrp">    -95.29639083 </i>
    <i name="e_0_energy">    -95.29600206 </i>
   </energy>
  </scstep>
  <structure>
   <crystal>
    <varray name="basis" >
     <v>       3.98102783      -6.89534246       0.00000000 </v>
     <v>       3.98102782       6.89534247       0.00000000 </v>
     <v>       0.00000000       0.00000000       2.80049448 </v>
    </varray>
    <i name="volume">    153.75022914 </i>
    <varray name="rec_basis" >
     <v>       0.12559571      -0.07251271       0.00000000 </v>
     <v>       0.12559571       0.07251271       0.00000000 </v>
     <v>       0.00000000       0.00000000       0.35707980 </v>
    </varray>
   </crystal>
   <varray name="positions" >
    <v>       0.19703501       0.83135552       0.75000000 </v>
    <v>       0.36567950       0.19703501       0.25000000 </v>
    <v>       0.83135552       0.63432050       0.25000000 </v>
    <v>       0.16864448       0.36567950       0.75000000 </v>
    <v>       0.63432050       0.80296499       0.75000000 </v>
    <v>       0.80296499       0.16864448       0.25000000 </v>
    <v>       0.33333333       0.66666667       0.75000000 </v>
    <v>       0.66666667       0.33333333       0.25000000 </v>
    <v>       0.96354419       0.61253643       0.75000000 </v>
    <v>       0.35100776       0.96354419       0.25000000 </v>
    <v>       0.61253643       0.64899224       0.25000000 </v>
    <v>       0.38746357       0.35100776       0.75000000 </v>
    <v>       0.03645581       0.38746357       0.25000000 </v>
    <v>       0.64899224       0.03645581       0.75000000 </v>
   </varray>
  </structure>
  <varray name="forces" >
   <v>      -0.00853571      -0.00338919       0.00000000 </v>
   <v>      -0.00133273      -0.00908674       0.00000000 </v>
   <v>      -0.00720298       0.00569755      -0.00000000 </v>
   <v>       0.00720298      -0.00569755       0.00000000 </v>
   <v>       0.00133273       0.00908674      -0.00000000 </v>
   <v>       0.00853571       0.00338919       0.00000000 </v>
   <v>       0.00000000      -0.00000000      -0.00000000 </v>
   <v>       0.00000000      -0.00000000       0.00000000 </v>
   <v>      -0.01627431      -0.00409610       0.00000000 </v>
   <v>      -0.00458983      -0.01614202      -0.00000000 </v>
   <v>      -0.01168449       0.01204592      -0.00000000 </v>
   <v>       0.01168449      -0.01204592       0.00000000 </v>
   <v>       0.01627431       0.00409610       0.00000000 </v>
   <v>       0.00458983       0.01614202      -0.00000000 </v>
  </varray>
  <varray name="stress" >
   <v>      21.92227818       0.00000002       0.00000000 </v>
   <v>      -0.00000002      21.92227818       0.00000000 </v>
   <v>       0.00000000       0.00000000      -0.96494996 </v>
  </varray>
  <energy>
   <i name="e_fr_energy">    -95.29587247 </i>
   <i name="e_wo_entrp">    -95.29600206 </i>
   <i name="e_0_energy">      0.00051836 </i>
  </energy>
  <time name="totalsc">    8.79    8.80</time>
  <eigenvalues>
   <array>
    <dimension dim="1">band</dimension>
    <dimension dim="2">kpoint</dimension>
    <dimension dim="3">spin</dimension>
    <field>eigene</field>
    <field>occ</field>
    <set>
     <set comment="spin 1">
      <set comment="kpoint 1">
       <r>  -10.1680    1.0000 </r>
       <r>   -9.0256    1.0000 </r>
       <r>   -9.0256    1.0000 </r>
       <r>   -8.4048    1.0000 </r>
       <r>   -8.4048    1.0000 </r>
       <r>   -8.2532    1.0000 </r>
       <r>   -2.0004    1.0000 </r>
       <r>   -2.0004    1.0000 </r>
       <r>   -1.7667    1.0000 </r>
       <r>   -1.1337    1.0000 </r>
       <r>    0.0707    1.0000 </r>
       <r>    0.8065    1.0000 </r>
       <r>    0.8065    1.0000 </r>
       <r>    2.6882    1.0000 </r>
       <r>    2.6882    1.0000 </r>
       <r>    3.5418    1.0000 </r>
       <r>    3.8451    1.0000 </r>
       <r>    3.8451    1.0000 </r>
       <r>    4.2801    1.0000 </r>
       <r>    4.5359    1.0000 </r>
       <r>    5.0740    1.0000 </r>
       <r>    5.0740    1.0000 </r>
       <r>    5.5680    1.0000 </r>
       <r>    5.5680    1.0000 </r>
       <r>    5.7449    1.0000 </r>
       <r>    6.9389    1.0000 </r>
       <r>    6.9673    1.0000 </r>
       <r>    6.9673    1.0000 </r>
       <r>    8.8867    1.0000 </r>
       <r>    9.1766    1.0000 </r>
       <r>    9.1766    1.0000 </r>
       <r>   13.0346    0.0000 </r>
       <r>   13.2685    0.0000 </r>
       <r>   13.2685    0.0000 </r>
       <r>   13.3891    0.0000 </r>
       <r>   13.3891    0.0000 </r>
       <r>   14.5519    0.0000 </r>
       <r>   14.7476    0.0000 </r>
       <r>   14.7480    0.0000 </r>
       <r>   14.8137    0.0000 </r>
      </set>
      <set comment="kpoint 2">
       <r>  -10.1300    1.0000 </r>
       <r>   -9.1086    1.0000 </r>
       <r>   -9.0610    1.0000 </r>
       <r>   -8.5539    1.0000 </r>
       <r>   -8.3511    1.0000 </r>
       <r>   -8.0491    1.0000 </r>
       <r>   -2.2635    1.0000 </r>
       <r>   -1.9861    1.0000 </r>
       <r>   -1.7098    1.0000 </r>
       <r>   -0.8656    1.0000 </r>
       <r>   -0.0422    1.0000 </r>
       <r>    0.6847    1.0000 </r>
       <r>    0.9131    1.0000 </r>
       <r>    2.6004    1.0000 </r>
       <r>    2.7309    1.0000 </r>
       <r>    3.5405    1.0000 </r>
       <r>    3.6814    1.0000 </r>
       <r>    3.9805    1.0000 </r>
       <r>    4.5421    1.0000 </r>
       <r>    4.5565    1.0000 </r>
       <r>    5.0442    1.0000 </r>
       <r>    5.0640    1.0000 </r>
       <r>    5.5272    1.0000 </r>
       <r>    5.5802    1.0000 </r>
       <r>    5.7937    1.0000 </r>
       <r>    6.7407    1.0000 </r>
       <r>    6.7812    1.0000 </r>
       <r>    7.0496    1.0000 </r>
       <r>    8.8329    1.0000 </r>
       <r>    9.3421    1.0000 </r>
       <r>    9.3895    1.0000 </r>
       <r>   12.7818    0.0000 </r>
       <r>   13.1004    0.0000 </r>
       <r>   13.1374    0.0000 </r>
       <r>   13.4117    0.0000 </r>
       <r>   13.4757    0.0000 </r>
       <r>   14.4891    0.0000 </r>
       <r>   14.5768    0.0000 </r>
       <r>   14.7195    0.0000 </r>
       <r>   14.7749    0.0000 </r>
      </set>
      <set comment="kpoint 3">
       <r>  -10.0181    1.0000 </r>
       <r>   -9.3289    1.0000 </r>
       <r>   -9.1262    1.0000 </r>
       <r>   -8.6478    1.0000 </r>
       <r>   -8.2433    1.0000 </r>
       <r>   -7.8244    1.0000 </r>
       <r>   -2.6301    1.0000 </r>
       <r>   -1.9501    1.0000 </r>
       <r>   -1.5490    1.0000 </r>
       <r>   -0.5915    1.0000 </r>
       <r>   -0.2335    1.0000 </r>
       <r>    0.4337    1.0000 </r>
       <r>    1.2607    1.0000 </r>
       <r>    2.4334    1.0000 </r>
       <r>    2.6949    1.0000 </r>
       <r>    3.3704    1.0000 </r>
       <r>    3.7397    1.0000 </r>
       <r>    4.2181    1.0000 </r>
       <r>    4.6183    1.0000 </r>
       <r>    4.9572    1.0000 </r>
       <r>    4.9590    1.0000 </r>
       <r>    5.0456    1.0000 </r>
       <r>    5.4765    1.0000 </r>
       <r>    5.6048    1.0000 </r>
       <r>    5.8640    1.0000 </r>
       <r>    6.2829    1.0000 </r>
       <r>    6.4401    1.0000 </r>
       <r>    7.3472    1.0000 </r>
       <r>    8.6612    1.0000 </r>
       <r>    9.6487    1.0000 </r>
       <r>    9.8533    0.9989 </r>
       <r>   11.9933    0.0000 </r>
       <r>   12.8990    0.0000 </r>
       <r>   13.0040    0.0000 </r>
       <r>   13.4789    0.0000 </r>
       <r>   13.6052    0.0000 </r>
       <r>   14.2134    0.0000 </r>
       <r>   14.5828    0.0000 </r>
       <r>   14.6708    0.0000 </r>
       <r>   14.6771    0.0000 </r>
      </set>
      <set comment="kpoint 4">
       <r>   -9.8433    1.0000 </r>
       <r>   -9.5854    1.0000 </r>
       <r>   -9.1696    1.0000 </r>
       <r>   -8.6775    1.0000 </r>
       <r>   -8.1643    1.0000 </r>
       <r>   -7.6958    1.0000 </r>
       <r>   -2.8459    1.0000 </r>
       <r>   -1.9177    1.0000 </r>
       <r>   -1.3414    1.0000 </r>
       <r>   -0.7481    1.0000 </r>
       <r>   -0.1851    1.0000 </r>
       <r>    0.2462    1.0000 </r>
       <r>    1.8025    1.0000 </r>
       <r>    2.3179    1.0000 </r>
       <r>    2.4219    1.0000 </r>
       <r>    3.0808    1.0000 </r>
       <r>    4.0444    1.0000 </r>
       <r>    4.3848    1.0000 </r>
       <r>    4.7094    1.0000 </r>
       <r>    4.8491    1.0000 </r>
       <r>    5.0318    1.0000 </r>
       <r>    5.2068    1.0000 </r>
       <r>    5.4510    1.0000 </r>
       <r>    5.6242    1.0000 </r>
       <r>    5.8831    1.0000 </r>
       <r>    5.9074    1.0000 </r>
       <r>    6.2512    1.0000 </r>
       <r>    7.7101    1.0000 </r>
       <r>    8.4020    1.0000 </r>
       <r>    9.8318    0.9952 </r>
       <r>   10.4292    0.0000 </r>
       <r>   11.1677    0.0000 </r>
       <r>   12.7598    0.0000 </r>
       <r>   12.8896    0.0000 </r>
       <r>   13.6168    0.0000 </r>
       <r>   13.7429    0.0000 </r>
       <r>   13.9961    0.0000 </r>
       <r>   14.4463    0.0000 </r>
       <r>   14.5361    0.0000 </r>
       <r>   14.7355    0.0000 </r>
      </set>
      <set comment="kpoint 5">
       <r>  -10.0549    1.0000 </r>
       <r>   -9.2085    1.0000 </r>
       <r>   -9.1803    1.0000 </r>
       <r>   -8.5959    1.0000 </r>
       <r>   -8.2948    1.0000 </r>
       <r>   -7.8724    1.0000 </r>
       <r>   -2.5541    1.0000 </r>
       <r>   -1.9335    1.0000 </r>
       <r>   -1.5985    1.0000 </r>
       <r>   -0.6685    1.0000 </r>
       <r>   -0.2147    1.0000 </r>
       <r>    0.5997    1.0000 </r>
       <r>    1.0838    1.0000 </r>
       <r>    2.4142    1.0000 </r>
       <r>    2.8465    1.0000 </r>
       <r>    3.4297    1.0000 </r>
       <r>    3.5982    1.0000 </r>
       <r>    4.1968    1.0000 </r>
       <r>    4.5987    1.0000 </r>
       <r>    4.8489    1.0000 </r>
       <r>    4.9968    1.0000 </r>
       <r>    5.0374    1.0000 </r>
       <r>    5.4953    1.0000 </r>
       <r>    5.5909    1.0000 </r>
       <r>    5.8481    1.0000 </r>
       <r>    6.4131    1.0000 </r>
       <r>    6.5296    1.0000 </r>
       <r>    7.2500    1.0000 </r>
       <r>    8.7228    1.0000 </r>
       <r>    9.5897    1.0000 </r>
       <r>    9.6947    0.9999 </r>
       <r>   12.3090    0.0000 </r>
       <r>   12.6544    0.0000 </r>
       <r>   13.2752    0.0000 </r>
       <r>   13.3448    0.0000 </r>
       <r>   13.6350    0.0000 </r>
       <r>   14.3481    0.0000 </r>
       <r>   14.5171    0.0000 </r>
       <r>   14.6248    0.0000 </r>
       <r>   14.8686    0.0000 </r>
      </set>
      <set comment="kpoint 6">
       <r>   -9.9099    1.0000 </r>
       <r>   -9.4393    1.0000 </r>
       <r>   -9.2665    1.0000 </r>
       <r>   -8.5846    1.0000 </r>
       <r>   -8.2339    1.0000 </r>
       <r>   -7.7135    1.0000 </r>
       <r>   -2.8244    1.0000 </r>
       <r>   -1.8337    1.0000 </r>
       <r>   -1.3968    1.0000 </r>
       <r>   -0.7482    1.0000 </r>
       <r>   -0.4386    1.0000 </r>
       <r>    0.6586    1.0000 </r>
       <r>    1.4488    1.0000 </r>
       <r>    2.1925    1.0000 </r>
       <r>    2.8190    1.0000 </r>
       <r>    3.1771    1.0000 </r>
       <r>    3.7265    1.0000 </r>
       <r>    4.4190    1.0000 </r>
       <r>    4.6766    1.0000 </r>
       <r>    4.9110    1.0000 </r>
       <r>    5.0034    1.0000 </r>
       <r>    5.1483    1.0000 </r>
       <r>    5.4796    1.0000 </r>
       <r>    5.6029    1.0000 </r>
       <r>    5.9003    1.0000 </r>
       <r>    6.1479    1.0000 </r>
       <r>    6.1764    1.0000 </r>
       <r>    7.5885    1.0000 </r>
       <r>    8.5043    1.0000 </r>
       <r>    9.8950    1.0267 </r>
       <r>   10.0995   -0.0282 </r>
       <r>   11.5481    0.0000 </r>
       <r>   12.3262    0.0000 </r>
       <r>   13.1387    0.0000 </r>
       <r>   13.5356    0.0000 </r>
       <r>   13.8587    0.0000 </r>
       <r>   14.1644    0.0000 </r>
       <r>   14.3232    0.0000 </r>
       <r>   14.7103    0.0000 </r>
       <r>   14.7730    0.0000 </r>
      </set>
      <set comment="kpoint 7">
       <r>   -9.7426    1.0000 </r>
       <r>   -9.6490    1.0000 </r>
       <r>   -9.2928    1.0000 </r>
       <r>   -8.5773    1.0000 </r>
       <r>   -8.2054    1.0000 </r>
       <r>   -7.6540    1.0000 </r>
       <r>   -2.9266    1.0000 </r>
       <r>   -1.7740    1.0000 </r>
       <r>   -1.2439    1.0000 </r>
       <r>   -0.8859    1.0000 </r>
       <r>   -0.5668    1.0000 </r>
       <r>    0.6990    1.0000 </r>
       <r>    1.8917    1.0000 </r>
       <r>    1.9750    1.0000 </r>
       <r>    2.6106    1.0000 </r>
       <r>    3.0735    1.0000 </r>
       <r>    3.8805    1.0000 </r>
       <r>    4.5035    1.0000 </r>
       <r>    4.7502    1.0000 </r>
       <r>    4.8285    1.0000 </r>
       <r>    4.9903    1.0000 </r>
       <r>    5.2521    1.0000 </r>
       <r>    5.4759    1.0000 </r>
       <r>    5.6080    1.0000 </r>
       <r>    5.8823    1.0000 </r>
       <r>    5.9202    1.0000 </r>
       <r>    6.1858    1.0000 </r>
       <r>    7.8502    1.0000 </r>
       <r>    8.3008    1.0000 </r>
       <r>    9.9598    1.0116 </r>
       <r>   10.6243    0.0000 </r>
       <r>   10.8798    0.0000 </r>
       <r>   12.2722    0.0000 </r>
       <r>   13.0393    0.0000 </r>
       <r>   13.7302    0.0000 </r>
       <r>   13.8470    0.0000 </r>
       <r>   14.0530    0.0000 </r>
       <r>   14.3047    0.0000 </r>
       <r>   14.7089    0.0000 </r>
       <r>   14.7107    0.0000 </r>
      </set>
      <set comment="kpoint 8">
       <r>   -9.9099    1.0000 </r>
       <r>   -9.4392    1.0000 </r>
       <r>   -9.2665    1.0000 </r>
       <r>   -8.5846    1.0000 </r>
       <r>   -8.2338    1.0000 </r>
       <r>   -7.7136    1.0000 </r>
       <r>   -2.8244    1.0000 </r>
       <r>   -1.8318    1.0000 </r>
       <r>   -1.4033    1.0000 </r>
       <r>   -0.7346    1.0000 </r>
       <r>   -0.4475    1.0000 </r>
       <r>    0.6549    1.0000 </r>
       <r>    1.4489    1.0000 </r>
       <r>    2.2075    1.0000 </r>
       <r>    2.8635    1.0000 </r>
       <r>    3.0756    1.0000 </r>
       <r>    3.7692    1.0000 </r>
       <r>    4.4428    1.0000 </r>
       <r>    4.6765    1.0000 </r>
       <r>    4.9108    1.0000 </r>
       <r>    5.0032    1.0000 </r>
       <r>    5.1383    1.0000 </r>
       <r>    5.4802    1.0000 </r>
       <r>    5.6030    1.0000 </r>
       <r>    5.9002    1.0000 </r>
       <r>    6.0140    1.0000 </r>
       <r>    6.3003    1.0000 </r>
       <r>    7.5929    1.0000 </r>
       <r>    8.5014    1.0000 </r>
       <r>    9.8396    0.9959 </r>
       <r>   10.1689   -0.0169 </r>
       <r>   11.4896    0.0000 </r>
       <r>   12.4051    0.0000 </r>
       <r>   13.1238    0.0000 </r>
       <r>   13.4992    0.0000 </r>
       <r>   13.8565    0.0000 </r>
       <r>   14.1094    0.0000 </r>
       <r>   14.4344    0.0000 </r>
       <r>   14.7210    0.0000 </r>
       <r>   14.7412    0.0000 </r>
      </set>
      <set comment="kpoint 9">
       <r>   -9.7395    1.0000 </r>
       <r>   -9.5256    1.0000 </r>
       <r>   -9.4735    1.0000 </r>
       <r>   -8.4491    1.0000 </r>
       <r>   -8.2954    1.0000 </r>
       <r>   -7.6314    1.0000 </r>
       <r>   -2.9733    1.0000 </r>
       <r>   -1.5593    1.0000 </r>
       <r>   -1.2018    1.0000 </r>
       <r>   -1.0486    1.0000 </r>
       <r>   -0.8025    1.0000 </r>
       <r>    1.1916    1.0000 </r>
       <r>    1.5445    1.0000 </r>
       <r>    1.9049    1.0000 </r>
       <r>    2.7358    1.0000 </r>
       <r>    3.2452    1.0000 </r>
       <r>    3.5985    1.0000 </r>
       <r>    4.5469    1.0000 </r>
       <r>    4.7546    1.0000 </r>
       <r>    4.8778    1.0000 </r>
       <r>    4.9243    1.0000 </r>
       <r>    5.2700    1.0000 </r>
       <r>    5.5184    1.0000 </r>
       <r>    5.5767    1.0000 </r>
       <r>    5.9289    1.0000 </r>
       <r>    6.0029    1.0000 </r>
       <r>    6.0959    1.0000 </r>
       <r>    7.9094    1.0000 </r>
       <r>    8.2661    1.0000 </r>
       <r>   10.1409   -0.0427 </r>
       <r>   10.4289    0.0000 </r>
       <r>   10.9521    0.0000 </r>
       <r>   12.0016    0.0000 </r>
       <r>   12.9818    0.0000 </r>
       <r>   13.7548    0.0000 </r>
       <r>   14.0244    0.0000 </r>
       <r>   14.0859    0.0000 </r>
       <r>   14.3548    0.0000 </r>
       <r>   14.6683    0.0000 </r>
       <r>   14.6939    0.0000 </r>
      </set>
      <set comment="kpoint 10">
       <r>  -10.1162    1.0000 </r>
       <r>   -8.9807    1.0000 </r>
       <r>   -8.9807    1.0000 </r>
       <r>   -8.3632    1.0000 </r>
       <r>   -8.3632    1.0000 </r>
       <r>   -8.2163    1.0000 </r>
       <r>   -1.9578    1.0000 </r>
       <r>   -1.9578    1.0000 </r>
       <r>   -1.7066    1.0000 </r>
       <r>   -1.0806    1.0000 </r>
       <r>    0.0977    1.0000 </r>
       <r>    0.8368    1.0000 </r>
       <r>    0.8368    1.0000 </r>
       <r>    2.7342    1.0000 </r>
       <r>    2.7342    1.0000 </r>
       <r>    3.5502    1.0000 </r>
       <r>    3.8512    1.0000 </r>
       <r>    3.8512    1.0000 </r>
       <r>    4.2582    1.0000 </r>
       <r>    4.2600    1.0000 </r>
       <r>    4.8167    1.0000 </r>
       <r>    4.8167    1.0000 </r>
       <r>    5.2984    1.0000 </r>
       <r>    5.2984    1.0000 </r>
       <r>    5.4347    1.0000 </r>
       <r>    6.9816    1.0000 </r>
       <r>    6.9816    1.0000 </r>
       <r>    7.1099    1.0000 </r>
       <r>    8.8360    1.0000 </r>
       <r>    9.2925    1.0000 </r>
       <r>    9.2925    1.0000 </r>
       <r>   12.9592    0.0000 </r>
       <r>   13.0642    0.0000 </r>
       <r>   13.0642    0.0000 </r>
       <r>   13.5222    0.0000 </r>
       <r>   13.5222    0.0000 </r>
       <r>   14.1507    0.0000 </r>
       <r>   14.4078    0.0000 </r>
       <r>   14.4078    0.0000 </r>
       <r>   14.4179    0.0000 </r>
      </set>
      <set comment="kpoint 11">
       <r>  -10.0783    1.0000 </r>
       <r>   -9.0629    1.0000 </r>
       <r>   -9.0156    1.0000 </r>
       <r>   -8.5125    1.0000 </r>
       <r>   -8.3103    1.0000 </r>
       <r>   -8.0127    1.0000 </r>
       <r>   -2.2148    1.0000 </r>
       <r>   -1.9422    1.0000 </r>
       <r>   -1.6501    1.0000 </r>
       <r>   -0.8169    1.0000 </r>
       <r>   -0.0109    1.0000 </r>
       <r>    0.7164    1.0000 </r>
       <r>    0.9420    1.0000 </r>
       <r>    2.6479    1.0000 </r>
       <r>    2.7667    1.0000 </r>
       <r>    3.5500    1.0000 </r>
       <r>    3.6725    1.0000 </r>
       <r>    3.9821    1.0000 </r>
       <r>    4.2906    1.0000 </r>
       <r>    4.5210    1.0000 </r>
       <r>    4.7881    1.0000 </r>
       <r>    4.8092    1.0000 </r>
       <r>    5.2356    1.0000 </r>
       <r>    5.3210    1.0000 </r>
       <r>    5.5243    1.0000 </r>
       <r>    6.7689    1.0000 </r>
       <r>    6.8105    1.0000 </r>
       <r>    7.2034    1.0000 </r>
       <r>    8.7894    1.0000 </r>
       <r>    9.4384    1.0000 </r>
       <r>    9.4821    1.0000 </r>
       <r>   12.8007    0.0000 </r>
       <r>   12.9826    0.0000 </r>
       <r>   13.0634    0.0000 </r>
       <r>   13.3684    0.0000 </r>
       <r>   13.4960    0.0000 </r>
       <r>   14.0858    0.0000 </r>
       <r>   14.3562    0.0000 </r>
       <r>   14.4190    0.0000 </r>
       <r>   14.4765    0.0000 </r>
      </set>
      <set comment="kpoint 12">
       <r>   -9.9669    1.0000 </r>
       <r>   -9.2816    1.0000 </r>
       <r>   -9.0801    1.0000 </r>
       <r>   -8.6060    1.0000 </r>
       <r>   -8.2041    1.0000 </r>
       <r>   -7.7901    1.0000 </r>
       <r>   -2.5761    1.0000 </r>
       <r>   -1.9040    1.0000 </r>
       <r>   -1.4907    1.0000 </r>
       <r>   -0.5429    1.0000 </r>
       <r>   -0.1985    1.0000 </r>
       <r>    0.4663    1.0000 </r>
       <r>    1.2832    1.0000 </r>
       <r>    2.4817    1.0000 </r>
       <r>    2.7145    1.0000 </r>
       <r>    3.3587    1.0000 </r>
       <r>    3.7216    1.0000 </r>
       <r>    4.2035    1.0000 </r>
       <r>    4.3832    1.0000 </r>
       <r>    4.6476    1.0000 </r>
       <r>    4.8070    1.0000 </r>
       <r>    4.9587    1.0000 </r>
       <r>    5.2037    1.0000 </r>
       <r>    5.3662    1.0000 </r>
       <r>    5.6429    1.0000 </r>
       <r>    6.3288    1.0000 </r>
       <r>    6.4729    1.0000 </r>
       <r>    7.4649    1.0000 </r>
       <r>    8.6390    1.0000 </r>
       <r>    9.7032    0.9999 </r>
       <r>    9.9156    1.0453 </r>
       <r>   12.0625    0.0000 </r>
       <r>   12.9284    0.0000 </r>
       <r>   12.9555    0.0000 </r>
       <r>   13.3126    0.0000 </r>
       <r>   13.5834    0.0000 </r>
       <r>   13.8394    0.0000 </r>
       <r>   14.2582    0.0000 </r>
       <r>   14.4972    0.0000 </r>
       <r>   14.5576    0.0000 </r>
      </set>
      <set comment="kpoint 13">
       <r>   -9.7929    1.0000 </r>
       <r>   -9.5364    1.0000 </r>
       <r>   -9.1230    1.0000 </r>
       <r>   -8.6356    1.0000 </r>
       <r>   -8.1263    1.0000 </r>
       <r>   -7.6631    1.0000 </r>
       <r>   -2.7895    1.0000 </r>
       <r>   -1.8695    1.0000 </r>
       <r>   -1.2851    1.0000 </r>
       <r>   -0.6954    1.0000 </r>
       <r>   -0.1498    1.0000 </r>
       <r>    0.2789    1.0000 </r>
       <r>    1.8136    1.0000 </r>
       <r>    2.3667    1.0000 </r>
       <r>    2.4372    1.0000 </r>
       <r>    3.0805    1.0000 </r>
       <r>    3.9496    1.0000 </r>
       <r>    4.3366    1.0000 </r>
       <r>    4.5037    1.0000 </r>
       <r>    4.5828    1.0000 </r>
       <r>    4.8243    1.0000 </r>
       <r>    5.1399    1.0000 </r>
       <r>    5.2395    1.0000 </r>
       <r>    5.3955    1.0000 </r>
       <r>    5.7344    1.0000 </r>
       <r>    5.9334    1.0000 </r>
       <r>    6.2647    1.0000 </r>
       <r>    7.7836    1.0000 </r>
       <r>    8.4109    1.0000 </r>
       <r>    9.8590    1.0010 </r>
       <r>   10.4770    0.0000 </r>
       <r>   11.2313    0.0000 </r>
       <r>   12.8034    0.0000 </r>
       <r>   12.9324    0.0000 </r>
       <r>   13.3280    0.0000 </r>
       <r>   13.5944    0.0000 </r>
       <r>   13.8439    0.0000 </r>
       <r>   14.1085    0.0000 </r>
       <r>   14.4875    0.0000 </r>
       <r>   14.5791    0.0000 </r>
      </set>
      <set comment="kpoint 14">
       <r>  -10.0036    1.0000 </r>
       <r>   -9.1620    1.0000 </r>
       <r>   -9.1339    1.0000 </r>
       <r>   -8.5546    1.0000 </r>
       <r>   -8.2549    1.0000 </r>
       <r>   -7.8377    1.0000 </r>
       <r>   -2.5013    1.0000 </r>
       <r>   -1.8882    1.0000 </r>
       <r>   -1.5400    1.0000 </r>
       <r>   -0.6211    1.0000 </r>
       <r>   -0.1789    1.0000 </r>
       <r>    0.6300    1.0000 </r>
       <r>    1.1100    1.0000 </r>
       <r>    2.4593    1.0000 </r>
       <r>    2.8675    1.0000 </r>
       <r>    3.4226    1.0000 </r>
       <r>    3.6010    1.0000 </r>
       <r>    4.1615    1.0000 </r>
       <r>    4.3671    1.0000 </r>
       <r>    4.7056    1.0000 </r>
       <r>    4.7420    1.0000 </r>
       <r>    4.8950    1.0000 </r>
       <r>    5.2103    1.0000 </r>
       <r>    5.3464    1.0000 </r>
       <r>    5.6148    1.0000 </r>
       <r>    6.4491    1.0000 </r>
       <r>    6.5695    1.0000 </r>
       <r>    7.3796    1.0000 </r>
       <r>    8.6922    1.0000 </r>
       <r>    9.6615    1.0000 </r>
       <r>    9.7579    0.9989 </r>
       <r>   12.3807    0.0000 </r>
       <r>   12.6634    0.0000 </r>
       <r>   13.1241    0.0000 </r>
       <r>   13.3705    0.0000 </r>
       <r>   13.5015    0.0000 </r>
       <r>   13.9117    0.0000 </r>
       <r>   14.3154    0.0000 </r>
       <r>   14.5094    0.0000 </r>
       <r>   14.5724    0.0000 </r>
      </set>
      <set comment="kpoint 15">
       <r>   -9.8593    1.0000 </r>
       <r>   -9.3913    1.0000 </r>
       <r>   -9.2195    1.0000 </r>
       <r>   -8.5435    1.0000 </r>
       <r>   -8.1952    1.0000 </r>
       <r>   -7.6805    1.0000 </r>
       <r>   -2.7687    1.0000 </r>
       <r>   -1.7867    1.0000 </r>
       <r>   -1.3403    1.0000 </r>
       <r>   -0.6976    1.0000 </r>
       <r>   -0.3982    1.0000 </r>
       <r>    0.6850    1.0000 </r>
       <r>    1.4684    1.0000 </r>
       <r>    2.2334    1.0000 </r>
       <r>    2.8310    1.0000 </r>
       <r>    3.1714    1.0000 </r>
       <r>    3.7078    1.0000 </r>
       <r>    4.3061    1.0000 </r>
       <r>    4.5074    1.0000 </r>
       <r>    4.6134    1.0000 </r>
       <r>    4.7849    1.0000 </r>
       <r>    5.1110    1.0000 </r>
       <r>    5.2443    1.0000 </r>
       <r>    5.3683    1.0000 </r>
       <r>    5.7111    1.0000 </r>
       <r>    6.1872    1.0000 </r>
       <r>    6.2074    1.0000 </r>
       <r>    7.6772    1.0000 </r>
       <r>    8.4976    1.0000 </r>
       <r>    9.9154    1.0452 </r>
       <r>   10.1646   -0.0208 </r>
       <r>   11.6137    0.0000 </r>
       <r>   12.3763    0.0000 </r>
       <r>   13.1541    0.0000 </r>
       <r>   13.3412    0.0000 </r>
       <r>   13.6395    0.0000 </r>
       <r>   13.8069    0.0000 </r>
       <r>   14.2039    0.0000 </r>
       <r>   14.5313    0.0000 </r>
       <r>   14.7207    0.0000 </r>
      </set>
      <set comment="kpoint 16">
       <r>   -9.6929    1.0000 </r>
       <r>   -9.5997    1.0000 </r>
       <r>   -9.2456    1.0000 </r>
       <r>   -8.5362    1.0000 </r>
       <r>   -8.1672    1.0000 </r>
       <r>   -7.6216    1.0000 </r>
       <r>   -2.8696    1.0000 </r>
       <r>   -1.7258    1.0000 </r>
       <r>   -1.1899    1.0000 </r>
       <r>   -0.8314    1.0000 </r>
       <r>   -0.5255    1.0000 </r>
       <r>    0.7245    1.0000 </r>
       <r>    1.8958    1.0000 </r>
       <r>    2.0147    1.0000 </r>
       <r>    2.6352    1.0000 </r>
       <r>    3.0753    1.0000 </r>
       <r>    3.8233    1.0000 </r>
       <r>    4.3647    1.0000 </r>
       <r>    4.5232    1.0000 </r>
       <r>    4.6511    1.0000 </r>
       <r>    4.7807    1.0000 </r>
       <r>    5.1902    1.0000 </r>
       <r>    5.2492    1.0000 </r>
       <r>    5.3756    1.0000 </r>
       <r>    5.7711    1.0000 </r>
       <r>    5.9202    1.0000 </r>
       <r>    6.2010    1.0000 </r>
       <r>    7.9073    1.0000 </r>
       <r>    8.3180    1.0000 </r>
       <r>    9.9771    0.9356 </r>
       <r>   10.6689    0.0000 </r>
       <r>   10.9503    0.0000 </r>
       <r>   12.3198    0.0000 </r>
       <r>   13.1500    0.0000 </r>
       <r>   13.3373    0.0000 </r>
       <r>   13.5320    0.0000 </r>
       <r>   14.0016    0.0000 </r>
       <r>   14.0999    0.0000 </r>
       <r>   14.5456    0.0000 </r>
       <r>   14.7431    0.0000 </r>
      </set>
      <set comment="kpoint 17">
       <r>   -9.8593    1.0000 </r>
       <r>   -9.3913    1.0000 </r>
       <r>   -9.2195    1.0000 </r>
       <r>   -8.5435    1.0000 </r>
       <r>   -8.1951    1.0000 </r>
       <r>   -7.6806    1.0000 </r>
       <r>   -2.7687    1.0000 </r>
       <r>   -1.7846    1.0000 </r>
       <r>   -1.3472    1.0000 </r>
       <r>   -0.6830    1.0000 </r>
       <r>   -0.4081    1.0000 </r>
       <r>    0.6813    1.0000 </r>
       <r>    1.4683    1.0000 </r>
       <r>    2.2476    1.0000 </r>
       <r>    2.8779    1.0000 </r>
       <r>    3.0743    1.0000 </r>
       <r>    3.7430    1.0000 </r>
       <r>    4.3145    1.0000 </r>
       <r>    4.4917    1.0000 </r>
       <r>    4.6873    1.0000 </r>
       <r>    4.7363    1.0000 </r>
       <r>    5.1229    1.0000 </r>
       <r>    5.2304    1.0000 </r>
       <r>    5.3681    1.0000 </r>
       <r>    5.7109    1.0000 </r>
       <r>    6.0542    1.0000 </r>
       <r>    6.3303    1.0000 </r>
       <r>    7.6808    1.0000 </r>
       <r>    8.4948    1.0000 </r>
       <r>    9.8798    1.0134 </r>
       <r>   10.2105    0.0036 </r>
       <r>   11.5643    0.0000 </r>
       <r>   12.4399    0.0000 </r>
       <r>   13.2109    0.0000 </r>
       <r>   13.2532    0.0000 </r>
       <r>   13.6510    0.0000 </r>
       <r>   13.7721    0.0000 </r>
       <r>   14.2585    0.0000 </r>
       <r>   14.5271    0.0000 </r>
       <r>   14.7241    0.0000 </r>
      </set>
      <set comment="kpoint 18">
       <r>   -9.6897    1.0000 </r>
       <r>   -9.4771    1.0000 </r>
       <r>   -9.4254    1.0000 </r>
       <r>   -8.4090    1.0000 </r>
       <r>   -8.2565    1.0000 </r>
       <r>   -7.5993    1.0000 </r>
       <r>   -2.9162    1.0000 </r>
       <r>   -1.5121    1.0000 </r>
       <r>   -1.1543    1.0000 </r>
       <r>   -0.9920    1.0000 </r>
       <r>   -0.7537    1.0000 </r>
       <r>    1.2079    1.0000 </r>
       <r>    1.5622    1.0000 </r>
       <r>    1.9399    1.0000 </r>
       <r>    2.7507    1.0000 </r>
       <r>    3.2387    1.0000 </r>
       <r>    3.5764    1.0000 </r>
       <r>    4.3745    1.0000 </r>
       <r>    4.5867    1.0000 </r>
       <r>    4.6408    1.0000 </r>
       <r>    4.7243    1.0000 </r>
       <r>    5.2317    1.0000 </r>
       <r>    5.2696    1.0000 </r>
       <r>    5.3355    1.0000 </r>
       <r>    5.7781    1.0000 </r>
       <r>    6.0332    1.0000 </r>
       <r>    6.1244    1.0000 </r>
       <r>    7.9613    1.0000 </r>
       <r>    8.2813    1.0000 </r>
       <r>   10.1352   -0.0470 </r>
       <r>   10.4978    0.0000 </r>
       <r>   11.0273    0.0000 </r>
       <r>   12.0412    0.0000 </r>
       <r>   13.1296    0.0000 </r>
       <r>   13.3494    0.0000 </r>
       <r>   13.5058    0.0000 </r>
       <r>   13.9728    0.0000 </r>
       <r>   14.4265    0.0000 </r>
       <r>   14.5488    0.0000 </r>
       <r>   14.7551    0.0000 </r>
      </set>
      <set comment="kpoint 19">
       <r>   -9.9625    1.0000 </r>
       <r>   -8.8479    1.0000 </r>
       <r>   -8.8479    1.0000 </r>
       <r>   -8.2416    1.0000 </r>
       <r>   -8.2416    1.0000 </r>
       <r>   -8.1095    1.0000 </r>
       <r>   -1.8343    1.0000 </r>
       <r>   -1.8343    1.0000 </r>
       <r>   -1.5273    1.0000 </r>
       <r>   -0.9206    1.0000 </r>
       <r>    0.1634    1.0000 </r>
       <r>    0.9167    1.0000 </r>
       <r>    0.9167    1.0000 </r>
       <r>    2.8740    1.0000 </r>
       <r>    2.8740    1.0000 </r>
       <r>    3.5240    1.0000 </r>
       <r>    3.5852    1.0000 </r>
       <r>    3.8318    1.0000 </r>
       <r>    3.8318    1.0000 </r>
       <r>    4.0613    1.0000 </r>
       <r>    4.1682    1.0000 </r>
       <r>    4.1682    1.0000 </r>
       <r>    4.6808    1.0000 </r>
       <r>    4.6808    1.0000 </r>
       <r>    4.9832    1.0000 </r>
       <r>    7.0034    1.0000 </r>
       <r>    7.0034    1.0000 </r>
       <r>    7.3958    1.0000 </r>
       <r>    8.6282    1.0000 </r>
       <r>    9.5468    1.0000 </r>
       <r>    9.5468    1.0000 </r>
       <r>   12.2637    0.0000 </r>
       <r>   12.2637    0.0000 </r>
       <r>   12.3730    0.0000 </r>
       <r>   13.0027    0.0000 </r>
       <r>   13.7766    0.0000 </r>
       <r>   13.7766    0.0000 </r>
       <r>   14.0134    0.0000 </r>
       <r>   14.0134    0.0000 </r>
       <r>   14.9150    0.0000 </r>
      </set>
      <set comment="kpoint 20">
       <r>   -9.9251    1.0000 </r>
       <r>   -8.9279    1.0000 </r>
       <r>   -8.8816    1.0000 </r>
       <r>   -8.3916    1.0000 </r>
       <r>   -8.1911    1.0000 </r>
       <r>   -7.9078    1.0000 </r>
       <r>   -2.0727    1.0000 </r>
       <r>   -1.8159    1.0000 </r>
       <r>   -1.4723    1.0000 </r>
       <r>   -0.6744    1.0000 </r>
       <r>    0.0693    1.0000 </r>
       <r>    0.7987    1.0000 </r>
       <r>    1.0160    1.0000 </r>
       <r>    2.7872    1.0000 </r>
       <r>    2.8424    1.0000 </r>
       <r>    3.5031    1.0000 </r>
       <r>    3.5861    1.0000 </r>
       <r>    3.7029    1.0000 </r>
       <r>    3.9108    1.0000 </r>
       <r>    4.1105    1.0000 </r>
       <r>    4.2154    1.0000 </r>
       <r>    4.3510    1.0000 </r>
       <r>    4.6008    1.0000 </r>
       <r>    4.7182    1.0000 </r>
       <r>    5.1420    1.0000 </r>
       <r>    6.8156    1.0000 </r>
       <r>    6.8552    1.0000 </r>
       <r>    7.4693    1.0000 </r>
       <r>    8.6026    1.0000 </r>
       <r>    9.6428    1.0000 </r>
       <r>    9.6881    1.0000 </r>
       <r>   12.3010    0.0000 </r>
       <r>   12.3447    0.0000 </r>
       <r>   12.3768    0.0000 </r>
       <r>   13.0207    0.0000 </r>
       <r>   13.2784    0.0000 </r>
       <r>   13.5335    0.0000 </r>
       <r>   14.0107    0.0000 </r>
       <r>   14.1296    0.0000 </r>
       <r>   14.9757    0.0000 </r>
      </set>
      <set comment="kpoint 21">
       <r>   -9.8154    1.0000 </r>
       <r>   -9.1418    1.0000 </r>
       <r>   -8.9440    1.0000 </r>
       <r>   -8.4840    1.0000 </r>
       <r>   -8.0898    1.0000 </r>
       <r>   -7.6919    1.0000 </r>
       <r>   -2.4171    1.0000 </r>
       <r>   -1.7712    1.0000 </r>
       <r>   -1.3174    1.0000 </r>
       <r>   -0.4025    1.0000 </r>
       <r>   -0.1036    1.0000 </r>
       <r>    0.5514    1.0000 </r>
       <r>    1.3360    1.0000 </r>
       <r>    2.6222    1.0000 </r>
       <r>    2.7269    1.0000 </r>
       <r>    3.2726    1.0000 </r>
       <r>    3.4854    1.0000 </r>
       <r>    3.9015    1.0000 </r>
       <r>    3.9703    1.0000 </r>
       <r>    4.0690    1.0000 </r>
       <r>    4.3924    1.0000 </r>
       <r>    4.5274    1.0000 </r>
       <r>    4.6960    1.0000 </r>
       <r>    4.7910    1.0000 </r>
       <r>    5.4240    1.0000 </r>
       <r>    6.4073    1.0000 </r>
       <r>    6.5309    1.0000 </r>
       <r>    7.6709    1.0000 </r>
       <r>    8.5114    1.0000 </r>
       <r>    9.8011    0.9962 </r>
       <r>   10.0532    0.2333 </r>
       <r>   12.1687    0.0000 </r>
       <r>   12.3479    0.0000 </r>
       <r>   12.4892    0.0000 </r>
       <r>   12.6388    0.0000 </r>
       <r>   13.1142    0.0000 </r>
       <r>   13.2187    0.0000 </r>
       <r>   13.9545    0.0000 </r>
       <r>   14.2161    0.0000 </r>
       <r>   14.9465    0.0000 </r>
      </set>
      <set comment="kpoint 22">
       <r>   -9.6441    1.0000 </r>
       <r>   -9.3917    1.0000 </r>
       <r>   -8.9855    1.0000 </r>
       <r>   -8.5131    1.0000 </r>
       <r>   -8.0157    1.0000 </r>
       <r>   -7.5689    1.0000 </r>
       <r>   -2.6221    1.0000 </r>
       <r>   -1.7303    1.0000 </r>
       <r>   -1.1188    1.0000 </r>
       <r>   -0.5408    1.0000 </r>
       <r>   -0.0526    1.0000 </r>
       <r>    0.3648    1.0000 </r>
       <r>    1.8267    1.0000 </r>
       <r>    2.4546    1.0000 </r>
       <r>    2.5111    1.0000 </r>
       <r>    3.0309    1.0000 </r>
       <r>    3.4598    1.0000 </r>
       <r>    3.8614    1.0000 </r>
       <r>    3.9771    1.0000 </r>
       <r>    4.2666    1.0000 </r>
       <r>    4.5465    1.0000 </r>
       <r>    4.6647    1.0000 </r>
       <r>    4.8093    1.0000 </r>
       <r>    4.8323    1.0000 </r>
       <r>    5.6712    1.0000 </r>
       <r>    6.0130    1.0000 </r>
       <r>    6.2920    1.0000 </r>
       <r>    7.9070    1.0000 </r>
       <r>    8.3658    1.0000 </r>
       <r>    9.8871    1.0195 </r>
       <r>   10.5799    0.0000 </r>
       <r>   11.3816    0.0000 </r>
       <r>   12.3202    0.0000 </r>
       <r>   12.4273    0.0000 </r>
       <r>   12.8554    0.0000 </r>
       <r>   13.0171    0.0000 </r>
       <r>   13.1890    0.0000 </r>
       <r>   14.0093    0.0000 </r>
       <r>   14.3373    0.0000 </r>
       <r>   14.7342    0.0000 </r>
      </set>
      <set comment="kpoint 23">
       <r>   -9.8515    1.0000 </r>
       <r>   -9.0246    1.0000 </r>
       <r>   -8.9969    1.0000 </r>
       <r>   -8.4338    1.0000 </r>
       <r>   -8.1385    1.0000 </r>
       <r>   -7.7378    1.0000 </r>
       <r>   -2.3458    1.0000 </r>
       <r>   -1.7577    1.0000 </r>
       <r>   -1.3659    1.0000 </r>
       <r>   -0.4829    1.0000 </r>
       <r>   -0.0819    1.0000 </r>
       <r>    0.7082    1.0000 </r>
       <r>    1.1746    1.0000 </r>
       <r>    2.5888    1.0000 </r>
       <r>    2.8674    1.0000 </r>
       <r>    3.3624    1.0000 </r>
       <r>    3.5291    1.0000 </r>
       <r>    3.7348    1.0000 </r>
       <r>    3.9765    1.0000 </r>
       <r>    4.1050    1.0000 </r>
       <r>    4.3310    1.0000 </r>
       <r>    4.5353    1.0000 </r>
       <r>    4.6242    1.0000 </r>
       <r>    4.7711    1.0000 </r>
       <r>    5.3466    1.0000 </r>
       <r>    6.5145    1.0000 </r>
       <r>    6.6350    1.0000 </r>
       <r>    7.6068    1.0000 </r>
       <r>    8.5438    1.0000 </r>
       <r>    9.7879    0.9971 </r>
       <r>    9.9119    1.0424 </r>
       <r>   12.2769    0.0000 </r>
       <r>   12.3542    0.0000 </r>
       <r>   12.5433    0.0000 </r>
       <r>   12.7226    0.0000 </r>
       <r>   12.9383    0.0000 </r>
       <r>   13.3096    0.0000 </r>
       <r>   14.0555    0.0000 </r>
       <r>   14.1669    0.0000 </r>
       <r>   14.9703    0.0000 </r>
      </set>
      <set comment="kpoint 24">
       <r>   -9.7094    1.0000 </r>
       <r>   -9.2492    1.0000 </r>
       <r>   -9.0805    1.0000 </r>
       <r>   -8.4231    1.0000 </r>
       <r>   -8.0822    1.0000 </r>
       <r>   -7.5857    1.0000 </r>
       <r>   -2.6031    1.0000 </r>
       <r>   -1.6511    1.0000 </r>
       <r>   -1.1734    1.0000 </r>
       <r>   -0.5497    1.0000 </r>
       <r>   -0.2849    1.0000 </r>
       <r>    0.7512    1.0000 </r>
       <r>    1.5107    1.0000 </r>
       <r>    2.3463    1.0000 </r>
       <r>    2.8270    1.0000 </r>
       <r>    3.0908    1.0000 </r>
       <r>    3.4866    1.0000 </r>
       <r>    3.8147    1.0000 </r>
       <r>    3.9678    1.0000 </r>
       <r>    4.1765    1.0000 </r>
       <r>    4.5519    1.0000 </r>
       <r>    4.5621    1.0000 </r>
       <r>    4.7735    1.0000 </r>
       <r>    4.8489    1.0000 </r>
       <r>    5.5928    1.0000 </r>
       <r>    6.2354    1.0000 </r>
       <r>    6.2851    1.0000 </r>
       <r>    7.8314    1.0000 </r>
       <r>    8.4181    1.0000 </r>
       <r>    9.9240    1.0502 </r>
       <r>   10.3162    0.0005 </r>
       <r>   11.7570    0.0000 </r>
       <r>   12.3329    0.0000 </r>
       <r>   12.4133    0.0000 </r>
       <r>   12.5134    0.0000 </r>
       <r>   12.9767    0.0000 </r>
       <r>   13.3907    0.0000 </r>
       <r>   14.0955    0.0000 </r>
       <r>   14.2058    0.0000 </r>
       <r>   14.8874    0.0000 </r>
      </set>
      <set comment="kpoint 25">
       <r>   -9.5457    1.0000 </r>
       <r>   -9.4538    1.0000 </r>
       <r>   -9.1059    1.0000 </r>
       <r>   -8.4158    1.0000 </r>
       <r>   -8.0559    1.0000 </r>
       <r>   -7.5288    1.0000 </r>
       <r>   -2.7006    1.0000 </r>
       <r>   -1.5877    1.0000 </r>
       <r>   -1.0317    1.0000 </r>
       <r>   -0.6705    1.0000 </r>
       <r>   -0.4083    1.0000 </r>
       <r>    0.7871    1.0000 </r>
       <r>    1.8871    1.0000 </r>
       <r>    2.1205    1.0000 </r>
       <r>    2.6955    1.0000 </r>
       <r>    3.0129    1.0000 </r>
       <r>    3.4308    1.0000 </r>
       <r>    3.8453    1.0000 </r>
       <r>    3.9327    1.0000 </r>
       <r>    4.3643    1.0000 </r>
       <r>    4.5369    1.0000 </r>
       <r>    4.6452    1.0000 </r>
[...]
       <r>   11.4517    0.0000 </r>
       <r>   12.6886    0.0000 </r>
       <r>   12.6886    0.0000 </r>
       <r>   13.2113    0.0000 </r>
       <r>   13.2113    0.0000 </r>
      </set>
      <set comment="kpoint 80">
       <r>   -7.7076    1.0000 </r>
       <r>   -7.7076    1.0000 </r>
       <r>   -7.2670    1.0000 </r>
       <r>   -7.2670    1.0000 </r>
       <r>   -7.2350    1.0000 </r>
       <r>   -7.2350    1.0000 </r>
       <r>   -1.4489    1.0000 </r>
       <r>   -1.4489    1.0000 </r>
       <r>   -0.6508    1.0000 </r>
       <r>   -0.6508    1.0000 </r>
       <r>   -0.1586    1.0000 </r>
       <r>   -0.1586    1.0000 </r>
       <r>    1.0570    1.0000 </r>
       <r>    1.0570    1.0000 </r>
       <r>    1.6662    1.0000 </r>
       <r>    1.6662    1.0000 </r>
       <r>    1.8623    1.0000 </r>
       <r>    1.8623    1.0000 </r>
       <r>    2.6368    1.0000 </r>
       <r>    2.6368    1.0000 </r>
       <r>    4.3095    1.0000 </r>
       <r>    4.3095    1.0000 </r>
       <r>    4.5316    1.0000 </r>
       <r>    4.5316    1.0000 </r>
       <r>    5.7596    1.0000 </r>
       <r>    5.7596    1.0000 </r>
       <r>    6.2791    1.0000 </r>
       <r>    6.2791    1.0000 </r>
       <r>    7.0541    1.0000 </r>
       <r>    7.0541    1.0000 </r>
       <r>    8.7965    1.0000 </r>
       <r>    8.7965    1.0000 </r>
       <r>   10.6331    0.0000 </r>
       <r>   10.6331    0.0000 </r>
       <r>   11.6280    0.0000 </r>
       <r>   11.6280    0.0000 </r>
       <r>   12.5972    0.0000 </r>
       <r>   12.5972    0.0000 </r>
       <r>   13.2621    0.0000 </r>
       <r>   13.2621    0.0000 </r>
      </set>
      <set comment="kpoint 81">
       <r>   -7.6991    1.0000 </r>
       <r>   -7.6991    1.0000 </r>
       <r>   -7.2753    1.0000 </r>
       <r>   -7.2753    1.0000 </r>
       <r>   -7.2375    1.0000 </r>
       <r>   -7.2375    1.0000 </r>
       <r>   -1.5065    1.0000 </r>
       <r>   -1.5065    1.0000 </r>
       <r>   -0.4764    1.0000 </r>
       <r>   -0.4764    1.0000 </r>
       <r>   -0.1935    1.0000 </r>
       <r>   -0.1935    1.0000 </r>
       <r>    0.9945    1.0000 </r>
       <r>    0.9945    1.0000 </r>
       <r>    1.6882    1.0000 </r>
       <r>    1.6882    1.0000 </r>
       <r>    1.7976    1.0000 </r>
       <r>    1.7976    1.0000 </r>
       <r>    2.6329    1.0000 </r>
       <r>    2.6329    1.0000 </r>
       <r>    4.2816    1.0000 </r>
       <r>    4.2816    1.0000 </r>
       <r>    4.5150    1.0000 </r>
       <r>    4.5150    1.0000 </r>
       <r>    5.7868    1.0000 </r>
       <r>    5.7868    1.0000 </r>
       <r>    6.1629    1.0000 </r>
       <r>    6.1629    1.0000 </r>
       <r>    7.3217    1.0000 </r>
       <r>    7.3217    1.0000 </r>
       <r>    8.7969    1.0000 </r>
       <r>    8.7969    1.0000 </r>
       <r>   10.6209    0.0000 </r>
       <r>   10.6209    0.0000 </r>
       <r>   11.4112    0.0000 </r>
       <r>   11.4112    0.0000 </r>
       <r>   12.8092    0.0000 </r>
       <r>   12.8092    0.0000 </r>
       <r>   13.1409    0.0000 </r>
       <r>   13.1409    0.0000 </r>
      </set>
     </set>
    </set>
   </array>
  </eigenvalues>
  <separator name="orbital magnetization" >
   <v name="MAGDIPOLOUT">      0.00000000      0.00000000      0.00000000</v>
  </separator>
  <dos>
   <i name="efermi">     10.02655715 </i>
   <total>
    <array>
     <dimension dim="1">gridpoints</dimension>
     <dimension dim="2">spin</dimension>
     <field>energy</field>
     <field>total</field>
     <field>integrated</field>
     <set>
      <set comment="spin 1">
       <r>   -11.4282     0.0000     0.0000 </r>
       <r>   -11.3358     0.0000     0.0000 </r>
       <r>   -11.2434     0.0000     0.0000 </r>
       <r>   -11.1509     0.0000     0.0000 </r>
       <r>   -11.0585     0.0000     0.0000 </r>
       <r>   -10.9661     0.0000     0.0000 </r>
       <r>   -10.8737     0.0000     0.0000 </r>
       <r>   -10.7813     0.0000     0.0000 </r>
       <r>   -10.6889     0.0000     0.0000 </r>
       <r>   -10.5965     0.0000     0.0000 </r>
       <r>   -10.5040     0.0000     0.0000 </r>
       <r>   -10.4116     0.0002     0.0000 </r>
       <r>   -10.3192     0.0017     0.0002 </r>
       <r>   -10.2268    -0.0135    -0.0011 </r>
       <r>   -10.1344     0.1176     0.0098 </r>
       <r>   -10.0420     0.5989     0.0651 </r>
       <r>    -9.9496     0.8668     0.1452 </r>
       <r>    -9.8571     1.2985     0.2652 </r>
       <r>    -9.7647     1.2720     0.3828 </r>
       <r>    -9.6723     1.6318     0.5336 </r>
       <r>    -9.5799     1.7301     0.6935 </r>
       <r>    -9.4875     1.8451     0.8640 </r>
       <r>    -9.3951     2.3073     1.0772 </r>
       <r>    -9.3027     2.3249     1.2921 </r>
       <r>    -9.2102     3.3222     1.5991 </r>
       <r>    -9.1178     3.3243     1.9063 </r>
       <r>    -9.0254     3.8337     2.2606 </r>
       <r>    -8.9330     2.9285     2.5312 </r>
       <r>    -8.8406     2.6967     2.7804 </r>
       <r>    -8.7482     2.5971     3.0205 </r>
       <r>    -8.6558     2.6073     3.2614 </r>
       <r>    -8.5633     3.3232     3.5685 </r>
       <r>    -8.4709     4.4445     3.9793 </r>
       <r>    -8.3785     4.4758     4.3929 </r>
       <r>    -8.2861     3.7228     4.7369 </r>
       <r>    -8.1937     5.5952     5.2540 </r>
       <r>    -8.1013     5.0418     5.7199 </r>
       <r>    -8.0089     5.5567     6.2335 </r>
       <r>    -7.9164     5.0600     6.7011 </r>
       <r>    -7.8240     4.1689     7.0863 </r>
       <r>    -7.7316     6.9504     7.7287 </r>
       <r>    -7.6392     7.8674     8.4557 </r>
       <r>    -7.5468     5.3593     8.9510 </r>
       <r>    -7.4544     6.1986     9.5238 </r>
       <r>    -7.3620     5.0475     9.9903 </r>
       <r>    -7.2695     5.3791    10.4874 </r>
       <r>    -7.1771     8.7983    11.3005 </r>
       <r>    -7.0847     4.8141    11.7454 </r>
       <r>    -6.9923     2.6859    11.9936 </r>
       <r>    -6.8999     0.0894    12.0019 </r>
       <r>    -6.8075    -0.0281    11.9993 </r>
       <r>    -6.7151     0.0077    12.0000 </r>
       <r>    -6.6226     0.0003    12.0000 </r>
       <r>    -6.5302     0.0000    12.0000 </r>
       <r>    -6.4378     0.0000    12.0000 </r>
       <r>    -6.3454     0.0000    12.0000 </r>
       <r>    -6.2530     0.0000    12.0000 </r>
       <r>    -6.1606     0.0000    12.0000 </r>
       <r>    -6.0682     0.0000    12.0000 </r>
       <r>    -5.9757     0.0000    12.0000 </r>
       <r>    -5.8833     0.0000    12.0000 </r>
       <r>    -5.7909     0.0000    12.0000 </r>
       <r>    -5.6985     0.0000    12.0000 </r>
       <r>    -5.6061     0.0000    12.0000 </r>
       <r>    -5.5137     0.0000    12.0000 </r>
       <r>    -5.4213     0.0000    12.0000 </r>
       <r>    -5.3288     0.0000    12.0000 </r>
       <r>    -5.2364     0.0000    12.0000 </r>
       <r>    -5.1440     0.0000    12.0000 </r>
       <r>    -5.0516     0.0000    12.0000 </r>
       <r>    -4.9592     0.0000    12.0000 </r>
       <r>    -4.8668     0.0000    12.0000 </r>
       <r>    -4.7744     0.0000    12.0000 </r>
       <r>    -4.6819     0.0000    12.0000 </r>
       <r>    -4.5895     0.0000    12.0000 </r>
       <r>    -4.4971     0.0000    12.0000 </r>
       <r>    -4.4047     0.0000    12.0000 </r>
       <r>    -4.3123     0.0000    12.0000 </r>
       <r>    -4.2199     0.0000    12.0000 </r>
       <r>    -4.1275     0.0000    12.0000 </r>
       <r>    -4.0350     0.0000    12.0000 </r>
       <r>    -3.9426     0.0000    12.0000 </r>
       <r>    -3.8502     0.0000    12.0000 </r>
       <r>    -3.7578     0.0000    12.0000 </r>
       <r>    -3.6654     0.0000    12.0000 </r>
       <r>    -3.5730     0.0000    12.0000 </r>
       <r>    -3.4806     0.0000    12.0000 </r>
       <r>    -3.3881     0.0000    12.0000 </r>
       <r>    -3.2957     0.0000    12.0000 </r>
       <r>    -3.2033     0.0009    12.0001 </r>
       <r>    -3.1109    -0.0009    12.0000 </r>
       <r>    -3.0185    -0.0094    11.9991 </r>
       <r>    -2.9261     0.3541    12.0319 </r>
       <r>    -2.8337     0.8707    12.1123 </r>
       <r>    -2.7412     1.3182    12.2341 </r>
       <r>    -2.6488     0.8085    12.3089 </r>
       <r>    -2.5564     1.2149    12.4211 </r>
       <r>    -2.4640     0.7758    12.4928 </r>
       <r>    -2.3716     1.0348    12.5885 </r>
       <r>    -2.2792     1.1302    12.6929 </r>
       <r>    -2.1868     0.4271    12.7324 </r>
       <r>    -2.0943     0.7942    12.8058 </r>
       <r>    -2.0019     1.2484    12.9211 </r>
       <r>    -1.9095     1.8257    13.0899 </r>
       <r>    -1.8171     2.1276    13.2865 </r>
       <r>    -1.7247     2.4001    13.5083 </r>
       <r>    -1.6323     1.8382    13.6782 </r>
       <r>    -1.5399     3.4569    13.9976 </r>
       <r>    -1.4474     4.9865    14.4585 </r>
       <r>    -1.3550     4.8409    14.9058 </r>
       <r>    -1.2626     5.0661    15.3740 </r>
       <r>    -1.1702     6.7742    16.0000 </r>
       <r>    -1.0778     5.5366    16.5117 </r>
       <r>    -0.9854     2.5099    16.7436 </r>
       <r>    -0.8930     2.2537    16.9519 </r>
       <r>    -0.8005     3.7380    17.2974 </r>
       <r>    -0.7081     4.7463    17.7360 </r>
       <r>    -0.6157     4.5669    18.1580 </r>
       <r>    -0.5233     5.1791    18.6367 </r>
       <r>    -0.4309     4.7615    19.0767 </r>
       <r>    -0.3385     4.8089    19.5211 </r>
       <r>    -0.2461     4.6369    19.9496 </r>
       <r>    -0.1536     5.0619    20.4174 </r>
       <r>    -0.0612     5.1788    20.8960 </r>
       <r>     0.0312     4.2638    21.2900 </r>
       <r>     0.1236     4.0413    21.6635 </r>
       <r>     0.2160     2.6174    21.9054 </r>
       <r>     0.3084     4.2987    22.3027 </r>
       <r>     0.4008     2.3437    22.5193 </r>
       <r>     0.4933     2.8702    22.7845 </r>
       <r>     0.5857     3.2531    23.0851 </r>
       <r>     0.6781     4.5297    23.5037 </r>
       <r>     0.7705     6.3801    24.0934 </r>
       <r>     0.8629     4.7598    24.5332 </r>
       <r>     0.9553     2.4485    24.7595 </r>
       <r>     1.0477     4.1970    25.1474 </r>
       <r>     1.1402     3.0946    25.4333 </r>
       <r>     1.2326     3.9711    25.8003 </r>
       <r>     1.3250     4.0829    26.1777 </r>
       <r>     1.4174     2.6909    26.4263 </r>
       <r>     1.5098     4.6084    26.8522 </r>
       <r>     1.6022     6.7261    27.4738 </r>
       <r>     1.6946     4.5552    27.8948 </r>
       <r>     1.7871     5.9173    28.4416 </r>
       <r>     1.8795     8.9744    29.2710 </r>
       <r>     1.9719     5.3160    29.7622 </r>
       <r>     2.0643     5.1584    30.2389 </r>
       <r>     2.1567     3.6082    30.5724 </r>
       <r>     2.2491     3.1286    30.8615 </r>
       <r>     2.3415     3.6516    31.1990 </r>
       <r>     2.4340     4.8323    31.6456 </r>
       <r>     2.5264     6.6018    32.2557 </r>
       <r>     2.6188     6.6482    32.8700 </r>
       <r>     2.7112     6.5096    33.4716 </r>
       <r>     2.8036     5.5997    33.9891 </r>
       <r>     2.8960     6.9274    34.6293 </r>
       <r>     2.9884     4.2249    35.0197 </r>
       <r>     3.0809     6.1869    35.5915 </r>
       <r>     3.1733     5.5032    36.1001 </r>
       <r>     3.2657     4.1562    36.4842 </r>
       <r>     3.3581     4.2260    36.8747 </r>
       <r>     3.4505     3.9763    37.2422 </r>
       <r>     3.5429     5.5999    37.7597 </r>
       <r>     3.6353     4.7893    38.2023 </r>
       <r>     3.7278     4.3113    38.6007 </r>
       <r>     3.8202     5.6634    39.1241 </r>
       <r>     3.9126     5.1141    39.5967 </r>
       <r>     4.0050     5.0941    40.0675 </r>
       <r>     4.0974     4.7407    40.5056 </r>
       <r>     4.1898     5.1427    40.9808 </r>
       <r>     4.2822     7.0970    41.6367 </r>
       <r>     4.3747     7.5990    42.3390 </r>
       <r>     4.4671     5.9429    42.8882 </r>
       <r>     4.5595    10.9743    43.9023 </r>
       <r>     4.6519     9.1919    44.7518 </r>
       <r>     4.7443     7.3671    45.4326 </r>
       <r>     4.8367     8.7191    46.2384 </r>
       <r>     4.9291     4.9382    46.6948 </r>
       <r>     5.0216     2.7166    46.9458 </r>
       <r>     5.1140     1.3754    47.0729 </r>
       <r>     5.2064     2.4767    47.3018 </r>
       <r>     5.2988     2.9774    47.5770 </r>
       <r>     5.3912     2.5237    47.8102 </r>
       <r>     5.4836     2.1922    48.0128 </r>
       <r>     5.5760     1.9038    48.1887 </r>
       <r>     5.6685     3.0664    48.4721 </r>
       <r>     5.7609     5.3386    48.9655 </r>
       <r>     5.8533     4.9825    49.4259 </r>
       <r>     5.9457     5.8294    49.9646 </r>
       <r>     6.0381     5.0261    50.4291 </r>
       <r>     6.1305     5.5838    50.9451 </r>
       <r>     6.2229     6.6910    51.5635 </r>
       <r>     6.3154     6.9011    52.2012 </r>
       <r>     6.4078     6.8509    52.8344 </r>
       <r>     6.5002     5.8916    53.3788 </r>
       <r>     6.5926     5.6792    53.9037 </r>
       <r>     6.6850     4.1046    54.2830 </r>
       <r>     6.7774     3.1059    54.5700 </r>
       <r>     6.8698     4.6954    55.0040 </r>
       <r>     6.9623     2.9460    55.2762 </r>
       <r>     7.0547     2.4460    55.5022 </r>
       <r>     7.1471     1.3552    55.6275 </r>
       <r>     7.2395     0.8248    55.7037 </r>
       <r>     7.3319     1.2803    55.8220 </r>
       <r>     7.4243     1.7784    55.9864 </r>
       <r>     7.5167     2.3249    56.2012 </r>
       <r>     7.6092     2.1922    56.4038 </r>
       <r>     7.7016     3.0279    56.6836 </r>
       <r>     7.7940     2.3833    56.9039 </r>
       <r>     7.8864     4.0679    57.2798 </r>
       <r>     7.9788     2.7313    57.5322 </r>
       <r>     8.0712     2.2773    57.7427 </r>
       <r>     8.1636     2.4761    57.9715 </r>
       <r>     8.2561     1.5878    58.1183 </r>
       <r>     8.3485     1.5225    58.2590 </r>
       <r>     8.4409     1.9957    58.4434 </r>
       <r>     8.5333     1.9922    58.6275 </r>
       <r>     8.6257     1.8250    58.7962 </r>
       <r>     8.7181     3.3153    59.1025 </r>
       <r>     8.8105     2.4179    59.3260 </r>
       <r>     8.9030     2.2989    59.5384 </r>
       <r>     8.9954     1.1791    59.6474 </r>
       <r>     9.0878     1.0044    59.7402 </r>
       <r>     9.1802     1.8183    59.9083 </r>
       <r>     9.2726     1.3771    60.0355 </r>
       <r>     9.3650     2.3323    60.2510 </r>
       <r>     9.4574     2.5153    60.4835 </r>
       <r>     9.5499     1.7135    60.6419 </r>
       <r>     9.6423     0.9325    60.7280 </r>
       <r>     9.7347     2.6027    60.9686 </r>
       <r>     9.8271     4.3551    61.3710 </r>
       <r>     9.9195     3.3246    61.6783 </r>
       <r>    10.0119     3.1060    61.9653 </r>
       <r>    10.1043     2.0555    62.1553 </r>
       <r>    10.1968     2.3369    62.3712 </r>
       <r>    10.2892     1.6025    62.5193 </r>
       <r>    10.3816     2.1329    62.7164 </r>
       <r>    10.4740     2.8538    62.9802 </r>
       <r>    10.5664     2.7966    63.2386 </r>
       <r>    10.6588     4.4791    63.6525 </r>
       <r>    10.7512     3.1183    63.9407 </r>
       <r>    10.8437     2.4606    64.1681 </r>
       <r>    10.9361     2.6855    64.4163 </r>
       <r>    11.0285     3.8713    64.7741 </r>
       <r>    11.1209     4.0001    65.1437 </r>
       <r>    11.2133     4.7823    65.5857 </r>
       <r>    11.3057     5.6863    66.1112 </r>
       <r>    11.3981     4.1984    66.4992 </r>
       <r>    11.4906     3.3730    66.8109 </r>
       <r>    11.5830     3.5358    67.1376 </r>
       <r>    11.6754     3.4554    67.4570 </r>
       <r>    11.7678     2.2726    67.6670 </r>
       <r>    11.8602     2.5698    67.9045 </r>
       <r>    11.9526     2.7824    68.1616 </r>
       <r>    12.0450     2.8122    68.4215 </r>
       <r>    12.1375     3.7965    68.7723 </r>
       <r>    12.2299     2.7979    69.0309 </r>
       <r>    12.3223     3.7703    69.3793 </r>
       <r>    12.4147     6.1752    69.9500 </r>
       <r>    12.5071     3.9168    70.3120 </r>
       <r>    12.5995     2.1397    70.5097 </r>
       <r>    12.6919     3.6081    70.8432 </r>
       <r>    12.7844     3.7697    71.1915 </r>
       <r>    12.8768     2.5937    71.4312 </r>
       <r>    12.9692     4.6272    71.8589 </r>
       <r>    13.0616     6.8803    72.4947 </r>
       <r>    13.1540     7.1207    73.1527 </r>
       <r>    13.2464     7.5351    73.8491 </r>
       <r>    13.3388     6.0384    74.4071 </r>
       <r>    13.4313     6.0803    74.9690 </r>
       <r>    13.5237     4.9767    75.4289 </r>
       <r>    13.6161     4.5037    75.8451 </r>
       <r>    13.7085     2.8450    76.1081 </r>
       <r>    13.8009     3.7247    76.4523 </r>
       <r>    13.8933     3.6627    76.7908 </r>
       <r>    13.9857     2.5353    77.0251 </r>
       <r>    14.0782     5.2917    77.5141 </r>
       <r>    14.1706     3.8987    77.8744 </r>
       <r>    14.2630     3.1059    78.1614 </r>
       <r>    14.3554     4.0741    78.5379 </r>
       <r>    14.4478     3.3122    78.8440 </r>
       <r>    14.5402     3.4532    79.1632 </r>
       <r>    14.6326     2.3298    79.3785 </r>
       <r>    14.7251     2.4981    79.6093 </r>
       <r>    14.8175     2.3988    79.8310 </r>
       <r>    14.9099     0.6532    79.8914 </r>
       <r>    15.0023     1.0037    79.9841 </r>
       <r>    15.0947     0.1951    80.0022 </r>
       <r>    15.1871    -0.0269    79.9997 </r>
       <r>    15.2795     0.0033    80.0000 </r>
       <r>    15.3720     0.0003    80.0000 </r>
       <r>    15.4644     0.0000    80.0000 </r>
       <r>    15.5568     0.0000    80.0000 </r>
       <r>    15.6492     0.0000    80.0000 </r>
       <r>    15.7416     0.0000    80.0000 </r>
       <r>    15.8340     0.0000    80.0000 </r>
       <r>    15.9264     0.0000    80.0000 </r>
       <r>    16.0189     0.0000    80.0000 </r>
       <r>    16.1113     0.0000    80.0000 </r>
       <r>    16.2037     0.0000    80.0000 </r>
       <r>    16.2961     0.0000    80.0000 </r>
      </set>
     </set>
    </array>
   </total>
  </dos>
 </calculation>
 <structure name="finalpos" >
  <crystal>
   <varray name="basis" >
    <v>       3.98102783      -6.89534246       0.00000000 </v>
    <v>       3.98102782       6.89534247       0.00000000 </v>
    <v>       0.00000000       0.00000000       2.80049448 </v>
   </varray>
   <i name="volume">    153.75022914 </i>
   <varray name="rec_basis" >
    <v>       0.12559571      -0.07251271       0.00000000 </v>
    <v>       0.12559571       0.07251271       0.00000000 </v>
    <v>       0.00000000       0.00000000       0.35707980 </v>
   </varray>
  </crystal>
  <varray name="positions" >
   <v>       0.19703501       0.83135552       0.75000000 </v>
   <v>       0.36567950       0.19703501       0.25000000 </v>
   <v>       0.83135552       0.63432050       0.25000000 </v>
   <v>       0.16864448       0.36567950       0.75000000 </v>
   <v>       0.63432050       0.80296499       0.75000000 </v>
   <v>       0.80296499       0.16864448       0.25000000 </v>
   <v>       0.33333333       0.66666667       0.75000000 </v>
   <v>       0.66666667       0.33333333       0.25000000 </v>
   <v>       0.96354419       0.61253643       0.75000000 </v>
   <v>       0.35100776       0.96354419       0.25000000 </v>
   <v>       0.61253643       0.64899224       0.25000000 </v>
   <v>       0.38746357       0.35100776       0.75000000 </v>
   <v>       0.03645581       0.38746357       0.25000000 </v>
   <v>       0.64899224       0.03645581       0.75000000 </v>
  </varray>
 </structure>
</modeling>
