unknown system                          
           1
     3.981028   -6.895342    0.000000
     3.981028    6.895342    0.000000
     0.000000    0.000000    2.800494
   Si   N 
   6   8
Direct configuration=     1
   0.19708959  0.83151770  0.75000000
   0.36557189  0.19708959  0.25000000
   0.83151770  0.63442811  0.25000000
   0.16848230  0.36557189  0.75000000
   0.63442811  0.80291041  0.75000000
   0.80291041  0.16848230  0.25000000
   0.33333333  0.66666667  0.75000000
   0.66666667  0.33333333  0.25000000
   0.96358754  0.61246345  0.75000000
   0.35112409  0.96358754  0.25000000
   0.61246345  0.64887591  0.25000000
   0.38753655  0.35112409  0.75000000
   0.03641246  0.38753655  0.25000000
   0.64887591  0.03641246  0.75000000
Direct configuration=     2
   0.19703349  0.83135098  0.75000000
   0.36568251  0.19703349  0.25000000
   0.83135098  0.63431749  0.25000000
   0.16864902  0.36568251  0.75000000
   0.63431749  0.80296651  0.75000000
   0.80296651  0.16864902  0.25000000
   0.33333333  0.66666667  0.75000000
   0.66666667  0.33333333  0.25000000
   0.96354298  0.61253848  0.75000000
   0.35100451  0.96354298  0.25000000
   0.61253848  0.64899549  0.25000000
   0.38746152  0.35100451  0.75000000
   0.03645702  0.38746152  0.25000000
   0.64899549  0.03645702  0.75000000
Direct configuration=     3
   0.19703501  0.83135552  0.75000000
   0.36567950  0.19703501  0.25000000
   0.83135552  0.63432050  0.25000000
   0.16864448  0.36567950  0.75000000
   0.63432050  0.80296499  0.75000000
   0.80296499  0.16864448  0.25000000
   0.33333333  0.66666667  0.75000000
   0.66666667  0.33333333  0.25000000
   0.96354419  0.61253643  0.75000000
   0.35100776  0.96354419  0.25000000
   0.61253643  0.64899224  0.25000000
   0.38746357  0.35100776  0.75000000
   0.03645581  0.38746357  0.25000000
   0.64899224  0.03645581  0.75000000
