  56  56   0   0
  0.1231344E+02  0.8834646E-09  0.8834646E-09  0.8834646E-09  0.5000000E-15
  1.000000000000000E-004
  CAR 
 unknown system                          
     12.93757176    -10.79369355  301      8.46914067      1.00000000
    -10.794  0.0000E+00  0.0000E+00
    -10.715  0.0000E+00  0.0000E+00
    -10.635  0.0000E+00  0.0000E+00
    -10.556  0.2908E-31  0.2300E-32
    -10.477  0.6972E-26  0.5515E-27
    -10.398  0.4609E-21  0.3646E-22
    -10.319  0.8389E-17  0.6636E-18
    -10.240  0.4188E-13  0.3313E-14
    -10.161  0.5669E-10  0.4488E-11
    -10.082  0.2065E-07  0.1638E-08
    -10.003  0.1971E-05  0.1575E-06
     -9.924  0.4368E-04  0.3613E-05
     -9.844  0.5342E-04  0.7838E-05
     -9.765 -0.1002E-02 -0.7139E-04
     -9.686  0.6918E-02  0.4758E-03
     -9.607  0.2873E-01  0.2749E-02
     -9.528  0.4806E-01  0.6550E-02
     -9.449  0.6747E-01  0.1189E-01
     -9.370  0.6984E-01  0.1741E-01
     -9.291  0.1098E+00  0.2610E-01
     -9.212  0.1218E+00  0.3573E-01
     -9.133  0.1758E+00  0.4964E-01
     -9.053  0.2178E+00  0.6687E-01
     -8.974  0.1331E+00  0.7740E-01
     -8.895  0.3011E+00  0.1012E+00
     -8.816  0.4165E+00  0.1342E+00
     -8.737  0.2511E+00  0.1540E+00
     -8.658  0.7949E-01  0.1603E+00
     -8.579 -0.2360E-02  0.1601E+00
     -8.500 -0.4452E-02  0.1598E+00
     -8.421 -0.6785E-02  0.1592E+00
     -8.341  0.1992E+00  0.1750E+00
     -8.262  0.4309E+00  0.2091E+00
     -8.183  0.2938E+00  0.2323E+00
     -8.104  0.1089E+00  0.2409E+00
     -8.025  0.4599E-01  0.2446E+00
     -7.946  0.3769E-01  0.2476E+00
     -7.867  0.1115E+00  0.2564E+00
     -7.788  0.1621E+00  0.2692E+00
     -7.709  0.5748E-01  0.2737E+00
     -7.630  0.1023E+00  0.2818E+00
     -7.550  0.1729E+00  0.2955E+00
     -7.471  0.9012E-01  0.3026E+00
     -7.392  0.6101E-01  0.3075E+00
     -7.313  0.7538E-01  0.3134E+00
     -7.234  0.2724E-01  0.3156E+00
     -7.155 -0.3501E-01  0.3128E+00
     -7.076  0.8473E+00  0.3798E+00
     -6.997  0.1230E+01  0.4771E+00
     -6.918  0.7153E-01  0.4828E+00
     -6.838 -0.4278E-01  0.4794E+00
     -6.759  0.6788E-02  0.4799E+00
     -6.680  0.7082E-03  0.4800E+00
     -6.601  0.1062E-04  0.4800E+00
     -6.522  0.3653E-07  0.4800E+00
     -6.443  0.3217E-10  0.4800E+00
     -6.364  0.7567E-14  0.4800E+00
     -6.285  0.0000E+00  0.4800E+00
     -6.206  0.0000E+00  0.4800E+00
     -6.127  0.0000E+00  0.4800E+00
     -6.047  0.0000E+00  0.4800E+00
     -5.968  0.0000E+00  0.4800E+00
     -5.889  0.0000E+00  0.4800E+00
     -5.810  0.0000E+00  0.4800E+00
     -5.731  0.0000E+00  0.4800E+00
     -5.652  0.0000E+00  0.4800E+00
     -5.573  0.0000E+00  0.4800E+00
     -5.494  0.0000E+00  0.4800E+00
     -5.415  0.0000E+00  0.4800E+00
     -5.336  0.0000E+00  0.4800E+00
     -5.256  0.0000E+00  0.4800E+00
     -5.177  0.0000E+00  0.4800E+00
     -5.098  0.0000E+00  0.4800E+00
     -5.019  0.0000E+00  0.4800E+00
     -4.940  0.0000E+00  0.4800E+00
     -4.861  0.0000E+00  0.4800E+00
     -4.782  0.0000E+00  0.4800E+00
     -4.703  0.0000E+00  0.4800E+00
     -4.624  0.0000E+00  0.4800E+00
     -4.544  0.0000E+00  0.4800E+00
     -4.465  0.0000E+00  0.4800E+00
     -4.386  0.0000E+00  0.4800E+00
     -4.307  0.0000E+00  0.4800E+00
     -4.228  0.0000E+00  0.4800E+00
     -4.149  0.0000E+00  0.4800E+00
     -4.070  0.0000E+00  0.4800E+00
     -3.991  0.0000E+00  0.4800E+00
     -3.912  0.0000E+00  0.4800E+00
     -3.833  0.0000E+00  0.4800E+00
     -3.753  0.0000E+00  0.4800E+00
     -3.674  0.0000E+00  0.4800E+00
     -3.595  0.0000E+00  0.4800E+00
     -3.516  0.0000E+00  0.4800E+00
     -3.437  0.0000E+00  0.4800E+00
     -3.358  0.0000E+00  0.4800E+00
     -3.279  0.0000E+00  0.4800E+00
     -3.200  0.0000E+00  0.4800E+00
     -3.121  0.0000E+00  0.4800E+00
     -3.041  0.0000E+00  0.4800E+00
     -2.962  0.0000E+00  0.4800E+00
     -2.883  0.0000E+00  0.4800E+00
     -2.804  0.0000E+00  0.4800E+00
     -2.725  0.0000E+00  0.4800E+00
     -2.646  0.0000E+00  0.4800E+00
     -2.567  0.0000E+00  0.4800E+00
     -2.488  0.0000E+00  0.4800E+00
     -2.409  0.8085E-30  0.4800E+00
     -2.330  0.1867E-24  0.4800E+00
     -2.250  0.1201E-19  0.4800E+00
     -2.171  0.2138E-15  0.4800E+00
     -2.092  0.1045E-11  0.4800E+00
     -2.013  0.1370E-08  0.4800E+00
     -1.934  0.4651E-06  0.4800E+00
     -1.855  0.3734E-04  0.4800E+00
     -1.776  0.5164E-03  0.4800E+00
     -1.697 -0.1446E-02  0.4799E+00
     -1.618 -0.8598E-03  0.4799E+00
     -1.539  0.7294E-01  0.4856E+00
     -1.459  0.2262E+00  0.5035E+00
     -1.380  0.3448E+00  0.5308E+00
     -1.301  0.3031E+00  0.5548E+00
     -1.222  0.4587E+00  0.5911E+00
     -1.143  0.4583E+00  0.6273E+00
     -1.064  0.3162E+00  0.6523E+00
     -0.985  0.3039E+00  0.6764E+00
     -0.906  0.2581E+00  0.6968E+00
     -0.827  0.1578E+00  0.7093E+00
     -0.747  0.1968E+00  0.7248E+00
     -0.668  0.1889E+00  0.7398E+00
     -0.589  0.2201E+00  0.7572E+00
     -0.510  0.2942E+00  0.7804E+00
     -0.431  0.1665E+00  0.7936E+00
     -0.352  0.1885E+00  0.8085E+00
     -0.273  0.2492E+00  0.8282E+00
     -0.194  0.1482E+00  0.8400E+00
     -0.115  0.7606E-01  0.8460E+00
     -0.036  0.2252E+00  0.8638E+00
      0.044  0.3993E+00  0.8954E+00
      0.123  0.3983E+00  0.9269E+00
      0.202  0.2486E+00  0.9466E+00
      0.281  0.1294E+00  0.9568E+00
      0.360  0.8788E-01  0.9637E+00
      0.439  0.2028E+00  0.9798E+00
      0.518  0.2447E+00  0.9991E+00
      0.597  0.2187E+00  0.1016E+01
      0.676  0.2065E+00  0.1033E+01
      0.756  0.1018E+00  0.1041E+01
      0.835  0.1197E+00  0.1050E+01
      0.914  0.8161E-01  0.1057E+01
      0.993  0.3261E-01  0.1059E+01
      1.072  0.9639E-01  0.1067E+01
      1.151  0.1243E+00  0.1077E+01
      1.230  0.1296E+00  0.1087E+01
      1.309  0.1838E+00  0.1102E+01
      1.388  0.7992E-01  0.1108E+01
      1.467  0.8912E-01  0.1115E+01
      1.547  0.7854E-01  0.1121E+01
      1.626  0.1079E+00  0.1130E+01
      1.705  0.3492E+00  0.1157E+01
      1.784  0.3698E+00  0.1187E+01
      1.863  0.1637E+00  0.1200E+01
      1.942  0.2265E+00  0.1217E+01
      2.021  0.3878E+00  0.1248E+01
      2.100  0.4237E+00  0.1282E+01
      2.179  0.4006E+00  0.1313E+01
      2.259  0.2829E+00  0.1336E+01
      2.338  0.3723E+00  0.1365E+01
      2.417  0.4161E+00  0.1398E+01
      2.496  0.3244E+00  0.1424E+01
      2.575  0.2687E+00  0.1445E+01
      2.654  0.2083E+00  0.1461E+01
      2.733  0.2701E+00  0.1483E+01
      2.812  0.2212E+00  0.1500E+01
      2.891  0.4782E+00  0.1538E+01
      2.970  0.5306E+00  0.1580E+01
      3.050  0.3407E+00  0.1607E+01
      3.129  0.2089E+00  0.1624E+01
      3.208  0.2608E+00  0.1644E+01
      3.287  0.2456E+00  0.1664E+01
      3.366  0.8884E-01  0.1671E+01
      3.445  0.1426E+00  0.1682E+01
      3.524  0.1983E+00  0.1698E+01
      3.603  0.1053E+00  0.1706E+01
      3.682  0.1305E+00  0.1716E+01
      3.761  0.1105E+00  0.1725E+01
      3.841  0.1079E+00  0.1734E+01
      3.920  0.1026E+00  0.1742E+01
      3.999  0.1315E+00  0.1752E+01
      4.078  0.1350E+00  0.1763E+01
      4.157  0.5602E-01  0.1767E+01
      4.236  0.1635E+00  0.1780E+01
      4.315  0.1506E+00  0.1792E+01
      4.394  0.4709E-01  0.1796E+01
      4.473  0.1030E+00  0.1804E+01
      4.553  0.2277E+00  0.1822E+01
      4.632  0.2185E+00  0.1839E+01
      4.711  0.3001E+00  0.1863E+01
      4.790  0.3109E+00  0.1888E+01
      4.869  0.1870E+00  0.1902E+01
      4.948  0.1418E+00  0.1914E+01
      5.027  0.4617E-01  0.1917E+01
      5.106  0.4569E-01  0.1921E+01
      5.185  0.5435E-01  0.1925E+01
      5.264  0.2488E-01  0.1927E+01
      5.344  0.1113E-01  0.1928E+01
      5.423  0.1244E-01  0.1929E+01
      5.502  0.8291E-01  0.1936E+01
      5.581  0.7881E-01  0.1942E+01
      5.660  0.4930E-01  0.1946E+01
      5.739  0.8025E-01  0.1952E+01
      5.818  0.8982E-01  0.1959E+01
      5.897  0.1416E+00  0.1970E+01
      5.976  0.2744E-01  0.1972E+01
      6.056  0.6460E-01  0.1978E+01
      6.135  0.1530E+00  0.1990E+01
      6.214  0.1030E+00  0.1998E+01
      6.293  0.8068E-01  0.2004E+01
      6.372  0.9388E-01  0.2012E+01
      6.451  0.8334E-01  0.2018E+01
      6.530  0.1115E+00  0.2027E+01
      6.609  0.1897E+00  0.2042E+01
      6.688  0.3011E+00  0.2066E+01
      6.767  0.2047E+00  0.2082E+01
      6.847  0.2400E+00  0.2101E+01
      6.926  0.1318E+00  0.2111E+01
      7.005  0.2542E+00  0.2132E+01
      7.084  0.2241E+00  0.2149E+01
      7.163  0.2183E+00  0.2167E+01
      7.242  0.1882E+00  0.2181E+01
      7.321  0.6990E-01  0.2187E+01
      7.400  0.2468E+00  0.2207E+01
      7.479  0.4342E+00  0.2241E+01
      7.558  0.2085E+00  0.2257E+01
      7.638  0.1489E+00  0.2269E+01
      7.717  0.2805E+00  0.2291E+01
      7.796  0.3174E+00  0.2316E+01
      7.875  0.3118E+00  0.2341E+01
      7.954  0.1592E+00  0.2354E+01
      8.033  0.2405E+00  0.2373E+01
      8.112  0.2000E+00  0.2389E+01
      8.191  0.2694E+00  0.2410E+01
      8.270  0.3108E+00  0.2434E+01
      8.350  0.2993E+00  0.2458E+01
      8.429  0.2111E+00  0.2475E+01
      8.508  0.1114E+00  0.2484E+01
      8.587  0.6381E-01  0.2489E+01
      8.666  0.3424E-01  0.2491E+01
      8.745  0.1192E+00  0.2501E+01
      8.824  0.1092E+00  0.2509E+01
      8.903  0.9592E-01  0.2517E+01
      8.982  0.2079E+00  0.2533E+01
      9.061  0.2318E+00  0.2552E+01
      9.141  0.1518E+00  0.2564E+01
      9.220  0.1732E+00  0.2578E+01
      9.299  0.1887E+00  0.2592E+01
      9.378  0.2244E+00  0.2610E+01
      9.457  0.2005E+00  0.2626E+01
      9.536  0.3369E+00  0.2653E+01
      9.615  0.1919E+00  0.2668E+01
      9.694  0.9445E-01  0.2675E+01
      9.773  0.2474E+00  0.2695E+01
      9.853  0.4600E+00  0.2731E+01
      9.932  0.4467E+00  0.2767E+01
     10.011  0.3158E+00  0.2792E+01
     10.090  0.2872E+00  0.2814E+01
     10.169  0.2703E+00  0.2836E+01
     10.248  0.2586E+00  0.2856E+01
     10.327  0.3395E+00  0.2883E+01
     10.406  0.3660E+00  0.2912E+01
     10.485  0.3358E+00  0.2939E+01
     10.564  0.2444E+00  0.2958E+01
     10.644  0.1737E+00  0.2972E+01
     10.723  0.1565E+00  0.2984E+01
     10.802  0.1249E+00  0.2994E+01
     10.881  0.1714E+00  0.3007E+01
     10.960  0.2693E+00  0.3029E+01
     11.039  0.2901E+00  0.3052E+01
     11.118  0.2277E+00  0.3070E+01
     11.197  0.1562E+00  0.3082E+01
     11.276  0.1550E+00  0.3094E+01
     11.355  0.1020E+00  0.3102E+01
     11.435  0.1071E+00  0.3111E+01
     11.514  0.3945E-01  0.3114E+01
     11.593  0.2001E-01  0.3116E+01
     11.672  0.3509E-01  0.3118E+01
     11.751  0.1415E-01  0.3119E+01
     11.830  0.5436E-03  0.3120E+01
     11.909  0.5713E-02  0.3120E+01
     11.988  0.5603E-03  0.3120E+01
     12.067 -0.2313E-03  0.3120E+01
     12.147  0.3385E-04  0.3120E+01
     12.226  0.3388E-05  0.3120E+01
     12.305  0.4558E-07  0.3120E+01
     12.384  0.1360E-09  0.3120E+01
     12.463  0.1014E-12  0.3120E+01
     12.542  0.1976E-16  0.3120E+01
     12.621  0.0000E+00  0.3120E+01
     12.700  0.0000E+00  0.3120E+01
     12.779  0.0000E+00  0.3120E+01
     12.858  0.0000E+00  0.3120E+01
     12.938  0.0000E+00  0.3120E+01
