       N       E                     dE             d eps       ncg     rms          rms(c)
DAV:   1     0.863113802479E+03    0.86311E+03   -0.96949E+04  3120   0.116E+03
DAV:   2    -0.241318657430E+03   -0.11044E+04   -0.10591E+04  3880   0.233E+02
DAV:   3    -0.351578594821E+03   -0.11026E+03   -0.10612E+03  3952   0.699E+01
DAV:   4    -0.355867458338E+03   -0.42889E+01   -0.41575E+01  4024   0.130E+01
DAV:   5    -0.355996452063E+03   -0.12899E+00   -0.12790E+00  3912   0.206E+00    0.340E+01
RMM:   6    -0.331278023186E+03    0.24718E+02   -0.16327E+02  3128   0.206E+01    0.156E+01
RMM:   7    -0.330129333468E+03    0.11487E+01   -0.45747E+00  3298   0.335E+00    0.895E+00
RMM:   8    -0.330031046151E+03    0.98287E-01   -0.37052E+00  3120   0.379E+00    0.259E+00
RMM:   9    -0.329787787165E+03    0.24326E+00   -0.53799E-01  3150   0.122E+00    0.641E-01
RMM:  10    -0.329790743751E+03   -0.29566E-02   -0.83130E-02  3452   0.377E-01    0.247E-01
RMM:  11    -0.329791523403E+03   -0.77965E-03   -0.39797E-03  3253   0.111E-01    0.648E-02
RMM:  12    -0.329791636085E+03   -0.11268E-03   -0.20368E-03  3268   0.590E-02    0.636E-02
RMM:  13    -0.329791534016E+03    0.10207E-03   -0.24033E-04  1932   0.284E-02    0.235E-02
RMM:  14    -0.329791543741E+03   -0.97254E-05   -0.18939E-04  1881   0.247E-02
   1 F= -.32979154E+03 E0= -.32979307E+03  d E =-.329792E+03
       N       E                     dE             d eps       ncg     rms          rms(c)
DAV:   1    -0.329805913559E+03   -0.14380E-01   -0.54443E-01  3592   0.189E+00    0.306E-01
RMM:   2    -0.329812899302E+03   -0.69857E-02   -0.95493E-02  3212   0.656E-01    0.353E-01
RMM:   3    -0.329811858599E+03    0.10407E-02   -0.56946E-03  3408   0.111E-01    0.287E-01
RMM:   4    -0.329811478962E+03    0.37964E-03   -0.53392E-03  3130   0.123E-01    0.110E-01
RMM:   5    -0.329811276555E+03    0.20241E-03   -0.71261E-04  2601   0.411E-02    0.384E-02
RMM:   6    -0.329811281824E+03   -0.52695E-05   -0.33842E-04  2229   0.241E-02
   2 F= -.32981128E+03 E0= -.32981227E+03  d E =-.197381E-01
       N       E                     dE             d eps       ncg     rms          rms(c)
DAV:   1    -0.329812703387E+03   -0.14268E-02   -0.26550E-02  3360   0.423E-01    0.667E-02
RMM:   2    -0.329813042934E+03   -0.33955E-03   -0.52742E-03  3197   0.151E-01    0.810E-02
RMM:   3    -0.329812965496E+03    0.77438E-04   -0.21553E-04  1958   0.261E-02
   3 F= -.32981297E+03 E0= -.32981406E+03  d E =-.214218E-01
