 vasp.5.4.4.18Apr17-6-g9f103f2a35 (build Nov 01 2019 12:17:22) complex          
  
 executed on             LinuxIFC date 2023.05.19  18:21:56
 running on   16 total cores
 distrk:  each k-point on   16 cores,    1 groups
 distr:  one band on NCORES_PER_BAND=   4 cores,    4 groups


--------------------------------------------------------------------------------------------------------


 INCAR:
 POTCAR:    PAW_PBE N 08Apr2002                   
 POTCAR:    PAW_PBE Si 05Jan2001                  
 POTCAR:    PAW_PBE N 08Apr2002                   
   VRHFIN =N: s2p3                                                              
   LEXCH  = PE                                                                  
   EATOM  =   264.5486 eV,   19.4438 Ry                                         
                                                                                
   TITEL  = PAW_PBE N 08Apr2002                                                 
   LULTRA =        F    use ultrasoft PP ?                                      
   IUNSCR =        1    unscreen: 0-lin 1-nonlin 2-no                           
   RPACOR =    1.200    partial core radius                                     
   POMASS =   14.001; ZVAL   =    5.000    mass and valenz                      
   RCORE  =    1.500    outmost cutoff radius                                   
   RWIGS  =    1.400; RWIGS  =    0.741    wigner-seitz radius (au A)           
   ENMAX  =  400.000; ENMIN  =  300.000 eV                                      
   ICORE  =        2    local potential                                         
   LCOR   =        T    correct aug charges                                     
   LPAW   =        T    paw PP                                                  
   EAUG   =  627.112                                                            
   DEXC   =    0.000                                                            
   RMAX   =    1.529    core radius for proj-oper                               
   RAUG   =    1.300    factor for augmentation sphere                          
   RDEP   =    1.514    radius for radial grids                                 
   RDEPT  =    1.338    core radius for aug-charge                              
                                                                                
   Atomic configuration                                                         
    4 entries                                                                   
     n  l   j            E        occ.                                          
     1  0  0.50      -384.7179   2.0000                                         
     2  0  0.50       -18.5828   2.0000                                         
     2  1  0.50        -7.0898   3.0000                                         
     3  2  1.50        -6.8029   0.0000                                         
   Description                                                                  
     l       E           TYP  RCUT    TYP  RCUT                                 
     0    -18.5828119     23  1.200                                             
     0    -13.5018863     23  1.200                                             
     1     -7.0897853     23  1.500                                             
     1      9.5240782     23  1.500                                             
     2     -6.8029130      7  1.500                                             
  local pseudopotential read in
  partial core-charges read in
  partial kinetic energy density read in
  atomic valenz-charges read in
  non local Contribution for L=           0  read in
    real space projection operators read in
  non local Contribution for L=           0  read in
    real space projection operators read in
  non local Contribution for L=           1  read in
    real space projection operators read in
  non local Contribution for L=           1  read in
    real space projection operators read in
    PAW grid and wavefunctions read in
 
   number of l-projection  operators is LMAX  =           4
   number of lm-projection operators is LMMAX =           8
 
 POTCAR:    PAW_PBE Si 05Jan2001                  
   VRHFIN =Si: s2p2                                                             
   LEXCH  = PE                                                                  
   EATOM  =   103.0669 eV,    7.5752 Ry                                         
                                                                                
   TITEL  = PAW_PBE Si 05Jan2001                                                
   LULTRA =        F    use ultrasoft PP ?                                      
   IUNSCR =        1    unscreen: 0-lin 1-nonlin 2-no                           
   RPACOR =    1.500    partial core radius                                     
   POMASS =   28.085; ZVAL   =    4.000    mass and valenz                      
   RCORE  =    1.900    outmost cutoff radius                                   
   RWIGS  =    2.480; RWIGS  =    1.312    wigner-seitz radius (au A)           
   ENMAX  =  245.345; ENMIN  =  184.009 eV                                      
   ICORE  =        2    local potential                                         
   LCOR   =        T    correct aug charges                                     
   LPAW   =        T    paw PP                                                  
   EAUG   =  322.069                                                            
   DEXC   =    0.000                                                            
   RMAX   =    1.950    core radius for proj-oper                               
   RAUG   =    1.300    factor for augmentation sphere                          
   RDEP   =    1.993    radius for radial grids                                 
   RDEPT  =    1.837    core radius for aug-charge                              
                                                                                
   Atomic configuration                                                         
    6 entries                                                                   
     n  l   j            E        occ.                                          
     1  0  0.50     -1785.8828   2.0000                                         
     2  0  0.50      -139.4969   2.0000                                         
     2  1  1.50       -95.5546   6.0000                                         
     3  0  0.50       -10.8127   2.0000                                         
     3  1  0.50        -4.0811   2.0000                                         
     3  2  1.50        -4.0817   0.0000                                         
   Description                                                                  
     l       E           TYP  RCUT    TYP  RCUT                                 
     0    -10.8127223     23  1.900                                             
     0     -7.6451159     23  1.900                                             
     1     -4.0811372     23  1.900                                             
     1      2.4879257     23  1.900                                             
     2     -4.0817478      7  1.900                                             
  local pseudopotential read in
  partial core-charges read in
  partial kinetic energy density read in
  atomic valenz-charges read in
  non local Contribution for L=           0  read in
    real space projection operators read in
  non local Contribution for L=           0  read in
    real space projection operators read in
  non local Contribution for L=           1  read in
    real space projection operators read in
  non local Contribution for L=           1  read in
    real space projection operators read in
    PAW grid and wavefunctions read in
 
   number of l-projection  operators is LMAX  =           4
   number of lm-projection operators is LMMAX =           8
 
 Optimization of the real space projectors (new method)

 maximal supplied QI-value         = 25.13
 optimisation between [QCUT,QGAM] = [ 10.05, 20.36] = [ 28.30,116.06] Ry 
 Optimized for a Real-space Cutoff    1.70 Angstroem

   l    n(q)    QCUT    max X(q) W(low)/X(q) W(high)/X(q)  e(spline) 
   0     10    10.053    79.467    0.61E-04    0.98E-04    0.61E-06
   0     10    10.053    66.151    0.60E-04    0.98E-04    0.61E-06
   1     10    10.053     8.350    0.17E-03    0.71E-03    0.45E-05
   1     10    10.053     5.531    0.18E-03    0.77E-03    0.49E-05
 Optimization of the real space projectors (new method)

 maximal supplied QI-value         = 19.84
 optimisation between [QCUT,QGAM] = [ 10.12, 20.44] = [ 28.68,116.96] Ry 
 Optimized for a Real-space Cutoff    1.38 Angstroem

   l    n(q)    QCUT    max X(q) W(low)/X(q) W(high)/X(q)  e(spline) 
   0      8    10.119   159.560    0.58E-04    0.11E-03    0.54E-07
   0      8    10.119   115.863    0.56E-04    0.11E-03    0.54E-07
   1      8    10.119    88.339    0.22E-03    0.17E-03    0.19E-06
   1      8    10.119    48.592    0.22E-03    0.17E-03    0.18E-06
  PAW_PBE N 08Apr2002                   :
 energy of atom  1       EATOM= -264.5486
 kinetic energy error for atom=    0.0736 (will be added to EATOM!!)
  PAW_PBE Si 05Jan2001                  :
 energy of atom  2       EATOM= -103.0669
 kinetic energy error for atom=    0.0012 (will be added to EATOM!!)
 
 
 POSCAR: Si24 N32                                
  positions in direct lattice
  No initial velocities read in
 exchange correlation table for  LEXCH =        8
   RHO(1)=    0.500       N(1)  =     2000
   RHO(2)=  100.500       N(2)  =     4000
 


--------------------------------------------------------------------------------------------------------


 ion  position               nearest neighbor table
   1  0.875  0.875  0.125-  26 2.22  28 2.22  47 2.22  49 2.22  54 2.22  56 2.22
   2  0.375  0.125  0.375-  25 2.22  27 2.22  29 2.22  31 2.22  32 2.22  42 2.22
   3  0.625  0.875  0.375-  27 2.22  31 2.22  44 2.22  49 2.22  53 2.22  54 2.22
   4  0.125  0.125  0.125-  26 2.22  28 2.22  29 2.22  30 2.22  32 2.22  43 2.22
   5  0.250  0.750  0.250-  28 1.89  31 1.89  50 1.89  51 1.89
   6  0.000  0.000  0.500-  29 1.89  38 1.89  48 1.89  49 1.89
   7  0.875  0.375  0.625-  34 2.22  36 2.22  41 2.22  46 2.22  48 2.22  55 2.22
   8  0.375  0.625  0.875-  33 2.22  35 2.22  37 2.22  39 2.22  40 2.22  50 2.22
   9  0.625  0.375  0.875-  35 2.22  39 2.22  41 2.22  45 2.22  46 2.22  52 2.22
  10  0.125  0.625  0.625-  34 2.22  36 2.22  37 2.22  38 2.22  40 2.22  51 2.22
  11  0.250  0.250  0.750-  36 1.89  39 1.89  42 1.89  43 1.89
  12  0.000  0.500  0.000-  30 1.89  37 1.89  41 1.89  56 1.89
  13  0.375  0.875  0.625-  31 2.22  33 2.22  38 2.22  40 2.22  42 2.22  44 2.22
  14  0.875  0.125  0.875-  26 2.22  41 2.22  43 2.22  45 2.22  47 2.22  48 2.22
  15  0.125  0.875  0.875-  28 2.22  33 2.22  37 2.22  38 2.22  43 2.22  47 2.22
  16  0.625  0.125  0.625-  27 2.22  42 2.22  44 2.22  45 2.22  46 2.22  48 2.22
  17  0.750  0.750  0.750-  34 1.89  35 1.89  44 1.89  47 1.89
  18  0.500  0.000  0.000-  32 1.89  33 1.89  45 1.89  54 1.89
  19  0.375  0.375  0.125-  25 2.22  30 2.22  32 2.22  39 2.22  50 2.22  52 2.22
  20  0.875  0.625  0.375-  34 2.22  49 2.22  51 2.22  53 2.22  55 2.22  56 2.22
  21  0.125  0.375  0.375-  25 2.22  29 2.22  30 2.22  36 2.22  51 2.22  55 2.22
  22  0.625  0.625  0.125-  35 2.22  50 2.22  52 2.22  53 2.22  54 2.22  56 2.22
  23  0.750  0.250  0.250-  26 1.89  27 1.89  52 1.89  55 1.89
  24  0.500  0.500  0.500-  25 1.89  40 1.89  46 1.89  53 1.89
  25  0.376  0.376  0.376-  24 1.89  19 2.22  21 2.22   2 2.22  40 3.09  46 3.09  53 3.09  51 3.12
                            27 3.12  50 3.12  42 3.12  52 3.12  36 3.12
  26  0.874  0.126  0.126-  23 1.89   4 2.22  14 2.22   1 2.22  27 3.09  52 3.09  55 3.09  41 3.12
                            45 3.12  49 3.12  29 3.12  54 3.12  30 3.12
  27  0.626  0.126  0.374-  23 1.89   3 2.22  16 2.22   2 2.22  26 3.09  52 3.09  55 3.09  25 3.12
                            49 3.12  32 3.12  46 3.12  54 3.12  48 3.12
  28  0.126  0.874  0.126-   5 1.89   4 2.22   1 2.22  15 2.22  50 3.09  51 3.09  31 3.09  33 3.12
                            37 3.12  49 3.12  29 3.12  32 3.12  56 3.12
  29  0.124  0.124  0.376-   6 1.89   4 2.22   2 2.22  21 2.22  38 3.09  48 3.09  49 3.09  31 3.12
                            55 3.12  42 3.12  26 3.12  36 3.12  28 3.12
  30  0.124  0.376  0.124-  12 1.89   4 2.22  19 2.22  21 2.22  37 3.09  56 3.09  41 3.09  26 3.12
                            43 3.12  50 3.12  51 3.12  55 3.12  39 3.12
  31  0.374  0.874  0.374-   5 1.89   3 2.22   2 2.22  13 2.22  28 3.09  50 3.09  51 3.09  29 3.12
                            53 3.12  32 3.12  38 3.12  40 3.12  54 3.12
  32  0.376  0.124  0.124-  18 1.89   4 2.22   2 2.22  19 2.22  45 3.09  54 3.09  33 3.09  27 3.12
                            39 3.12  43 3.12  28 3.12  52 3.12  31 3.12
  33  0.376  0.876  0.876-  18 1.89  13 2.22  15 2.22   8 2.22  32 3.09  45 3.09  54 3.09  35 3.12
                            43 3.12  44 3.12  42 3.12  50 3.12  28 3.12
  34  0.874  0.626  0.626-  17 1.89  10 2.22   7 2.22  20 2.22  35 3.09  44 3.09  47 3.09  41 3.12
                            37 3.12  46 3.12  38 3.12  49 3.12  53 3.12
  35  0.626  0.626  0.874-  17 1.89   9 2.22   8 2.22  22 2.22  34 3.09  44 3.09  47 3.09  33 3.12
                            41 3.12  46 3.12  40 3.12  54 3.12  56 3.12
  36  0.126  0.374  0.626-  11 1.89  10 2.22   7 2.22  21 2.22  42 3.09  43 3.09  39 3.09  25 3.12
                            40 3.12  41 3.12  29 3.12  37 3.12  48 3.12
  37  0.124  0.624  0.876-  12 1.89  10 2.22   8 2.22  15 2.22  30 3.09  56 3.09  41 3.09  47 3.12
                            39 3.12  34 3.12  36 3.12  50 3.12  28 3.12
  38  0.124  0.876  0.624-   6 1.89  10 2.22  13 2.22  15 2.22  29 3.09  48 3.09  49 3.09  42 3.12
                            43 3.12  47 3.12  31 3.12  34 3.12  51 3.12
  39  0.374  0.374  0.874-  11 1.89   9 2.22   8 2.22  19 2.22  36 3.09  42 3.09  43 3.09  37 3.12
                            45 3.12  30 3.12  32 3.12  40 3.12  46 3.12
  40  0.376  0.624  0.624-  24 1.89  10 2.22  13 2.22   8 2.22  46 3.09  53 3.09  25 3.09  36 3.12
                            39 3.12  44 3.12  31 3.12  51 3.12  35 3.12
  41  0.876  0.376  0.876-  12 1.89   9 2.22   7 2.22  14 2.22  30 3.09  37 3.09  56 3.09  43 3.12
                            35 3.12  34 3.12  26 3.12  52 3.12  36 3.12
  42  0.374  0.126  0.626-  11 1.89   2 2.22  13 2.22  16 2.22  36 3.09  43 3.09  39 3.09  25 3.12
                            38 3.12  29 3.12  33 3.12  45 3.12  46 3.12
  43  0.126  0.126  0.874-  11 1.89   4 2.22  14 2.22  15 2.22  36 3.09  42 3.09  39 3.09  41 3.12
                            33 3.12  30 3.12  32 3.12  38 3.12  48 3.12
  44  0.626  0.874  0.626-  17 1.89  13 2.22  16 2.22   3 2.22  34 3.09  35 3.09  47 3.09  40 3.12
                            45 3.12  33 3.12  48 3.12  49 3.12  53 3.12
  45  0.624  0.124  0.876-  18 1.89  14 2.22  16 2.22   9 2.22  32 3.09  54 3.09  33 3.09  47 3.12
                            39 3.12  44 3.12  26 3.12  52 3.12  42 3.12
  46  0.624  0.376  0.624-  24 1.89   9 2.22  16 2.22   7 2.22  40 3.09  53 3.09  25 3.09  35 3.12
                            39 3.12  27 3.12  42 3.12  34 3.12  55 3.12
  47  0.874  0.874  0.874-  17 1.89  14 2.22  15 2.22   1 2.22  34 3.09  35 3.09  44 3.09  37 3.12
                            45 3.12  38 3.12  48 3.12  54 3.12  56 3.12
  48  0.876  0.124  0.624-   6 1.89   7 2.22  14 2.22  16 2.22  29 3.09  38 3.09  49 3.09  27 3.12
                            43 3.12  44 3.12  47 3.12  36 3.12  55 3.12
  49  0.876  0.876  0.376-   6 1.89   3 2.22   1 2.22  20 2.22  29 3.09  38 3.09  48 3.09  27 3.12
                            51 3.12  28 3.12  44 3.12  26 3.12  34 3.12
  50  0.374  0.626  0.126-   5 1.89   8 2.22  19 2.22  22 2.22  28 3.09  51 3.09  31 3.09  25 3.12
                            33 3.12  37 3.12  30 3.12  53 3.12  54 3.12
  51  0.126  0.626  0.374-   5 1.89  10 2.22  20 2.22  21 2.22  28 3.09  50 3.09  31 3.09  49 3.12
                            25 3.12  40 3.12  30 3.12  38 3.12  56 3.12
  52  0.626  0.374  0.126-  23 1.89  19 2.22  22 2.22   9 2.22  26 3.09  27 3.09  55 3.09  32 3.12
                            41 3.12  45 3.12  53 3.12  25 3.12  56 3.12
  53  0.624  0.624  0.376-  24 1.89  20 2.22  22 2.22   3 2.22  40 3.09  46 3.09  25 3.09  31 3.12
                            55 3.12  34 3.12  50 3.12  52 3.12  44 3.12
  54  0.624  0.876  0.124-  18 1.89   3 2.22   1 2.22  22 2.22  32 3.09  45 3.09  33 3.09  26 3.12
                            27 3.12  35 3.12  31 3.12  47 3.12  50 3.12
  55  0.874  0.374  0.374-  23 1.89  20 2.22  21 2.22   7 2.22  26 3.09  27 3.09  52 3.09  29 3.12
                            53 3.12  48 3.12  30 3.12  46 3.12  56 3.12
  56  0.876  0.624  0.124-  12 1.89   1 2.22  20 2.22  22 2.22  30 3.09  37 3.09  41 3.09  28 3.12
                            35 3.12  47 3.12  51 3.12  52 3.12  55 3.12
 
  LATTYP: Found a simple cubic cell.
 ALAT       =     8.8346458745
  
  Lattice vectors:
  
 A1 = (   8.8346458745,   0.0000000000,   0.0000000000)
 A2 = (   0.0000000000,   8.8346458745,   0.0000000000)
 A3 = (   0.0000000000,   0.0000000000,   8.8346458745)


Analysis of symmetry for initial positions (statically):
=====================================================================
 Subroutine PRICEL returns following result:
 
  LATTYP: Found a face centered cubic cell.
 ALAT       =     8.8346458745
  
  Lattice vectors:
  
 A1 = (   4.4173229372,   4.4173229372,   0.0000000000)
 A2 = (   4.4173229372,   0.0000000000,  -4.4173229372)
 A3 = (   0.0000000000,   4.4173229372,  -4.4173229372)
 
   4 primitive cells build up your supercell.
 

 Routine SETGRP: Setting up the symmetry group for a 
 simple cubic supercell.


 Subroutine GETGRP returns: Found 48 space group operations
 (whereof 24 operations were pure point group operations)
 out of a pool of 48 trial point group operations.


The static configuration has the point symmetry T_d .
 The point group associated with its full space group is O_h .


Analysis of symmetry for dynamics (positions and initial velocities):
=====================================================================
 Subroutine PRICEL returns following result:
 
  LATTYP: Found a face centered cubic cell.
 ALAT       =     8.8346458745
  
  Lattice vectors:
  
 A1 = (   4.4173229372,   4.4173229372,   0.0000000000)
 A2 = (   4.4173229372,   0.0000000000,  -4.4173229372)
 A3 = (   0.0000000000,   4.4173229372,  -4.4173229372)
 
   4 primitive cells build up your supercell.
 

 Routine SETGRP: Setting up the symmetry group for a 
 simple cubic supercell.


 Subroutine GETGRP returns: Found 48 space group operations
 (whereof 24 operations were pure point group operations)
 out of a pool of 48 trial point group operations.


The dynamic configuration has the point symmetry T_d .
 The point group associated with its full space group is O_h .


 Subroutine INISYM returns: Found 48 space group operations
 (whereof 24 operations are pure point group operations),
 and found     4 'primitive' translations

 
 
 KPOINTS: Automatic mesh                          

Automatic generation of k-mesh.
 generate k-points for:    5    5    5
Space group operators:
 irot       det(A)        alpha          n_x          n_y          n_z        tau_x        tau_y        tau_z
    1     1.000000     0.000000     1.000000     0.000000     0.000000     0.000000     0.000000    -0.000000
    2     1.000000   120.000000    -0.577350    -0.577350    -0.577350     0.000000     0.000000    -0.000000
    3     1.000000   120.000000     0.577350     0.577350     0.577350     0.000000     0.000000    -0.000000
    4    -1.000000    90.000000     0.000000    -0.000000    -1.000000     0.000000     0.000000    -0.000000
    5    -1.000000   180.000000     0.000000    -0.707107    -0.707107     0.000000     0.000000    -0.000000
    6    -1.000000    90.000000     0.000000     1.000000     0.000000     0.000000     0.000000    -0.000000
    7     1.000000   180.000000    -0.000000    -0.000000     1.000000     0.000000     0.000000    -0.000000
    8     1.000000   120.000000    -0.577350     0.577350     0.577350     0.000000     0.000000    -0.000000
    9     1.000000   120.000000    -0.577350     0.577350    -0.577350     0.000000     0.000000    -0.000000
   10    -1.000000    90.000000     0.000000    -0.000000     1.000000     0.000000     0.000000    -0.000000
   11    -1.000000    90.000000    -1.000000     0.000000    -0.000000     0.000000     0.000000    -0.000000
   12    -1.000000   180.000000    -0.707107     0.000000    -0.707107     0.000000     0.000000    -0.000000
   13     1.000000   120.000000     0.577350    -0.577350     0.577350     0.000000     0.000000    -0.000000
   14     1.000000   120.000000    -0.577350    -0.577350     0.577350     0.000000     0.000000    -0.000000
   15     1.000000   180.000000     1.000000     0.000000     0.000000     0.000000     0.000000    -0.000000
   16    -1.000000    90.000000    -0.000000    -1.000000     0.000000     0.000000     0.000000    -0.000000
   17    -1.000000   180.000000     0.707107     0.707107     0.000000     0.000000     0.000000    -0.000000
   18    -1.000000    90.000000     1.000000    -0.000000    -0.000000     0.000000     0.000000    -0.000000
   19     1.000000   120.000000     0.577350    -0.577350    -0.577350     0.000000     0.000000    -0.000000
   20     1.000000   180.000000    -0.000000     1.000000     0.000000     0.000000     0.000000    -0.000000
   21     1.000000   120.000000     0.577350     0.577350    -0.577350     0.000000     0.000000    -0.000000
   22    -1.000000   180.000000    -0.000000    -0.707107     0.707107     0.000000     0.000000    -0.000000
   23    -1.000000   180.000000     0.707107    -0.707107     0.000000     0.000000     0.000000    -0.000000
   24    -1.000000   180.000000     0.707107    -0.000000    -0.707107     0.000000     0.000000    -0.000000
   25    -1.000000     0.000000     1.000000     0.000000     0.000000     0.750000     0.750000    -0.750000
   26    -1.000000   120.000000    -0.577350    -0.577350    -0.577350     0.750000     0.750000    -0.750000
   27    -1.000000   120.000000     0.577350     0.577350     0.577350     0.750000     0.750000    -0.750000
   28     1.000000    90.000000     0.000000    -0.000000    -1.000000     0.750000     0.750000    -0.750000
   29     1.000000   180.000000     0.000000    -0.707107    -0.707107     0.750000     0.750000    -0.750000
   30     1.000000    90.000000     0.000000     1.000000     0.000000     0.750000     0.750000    -0.750000
   31    -1.000000   180.000000    -0.000000    -0.000000     1.000000     0.750000     0.750000    -0.750000
   32    -1.000000   120.000000    -0.577350     0.577350     0.577350     0.750000     0.750000    -0.750000
   33    -1.000000   120.000000    -0.577350     0.577350    -0.577350     0.750000     0.750000    -0.750000
   34     1.000000    90.000000     0.000000    -0.000000     1.000000     0.750000     0.750000    -0.750000
   35     1.000000    90.000000    -1.000000     0.000000    -0.000000     0.750000     0.750000    -0.750000
   36     1.000000   180.000000    -0.707107     0.000000    -0.707107     0.750000     0.750000    -0.750000
   37    -1.000000   120.000000     0.577350    -0.577350     0.577350     0.750000     0.750000    -0.750000
   38    -1.000000   120.000000    -0.577350    -0.577350     0.577350     0.750000     0.750000    -0.750000
   39    -1.000000   180.000000     1.000000     0.000000     0.000000     0.750000     0.750000    -0.750000
   40     1.000000    90.000000    -0.000000    -1.000000     0.000000     0.750000     0.750000    -0.750000
   41     1.000000   180.000000     0.707107     0.707107     0.000000     0.750000     0.750000    -0.750000
   42     1.000000    90.000000     1.000000    -0.000000    -0.000000     0.750000     0.750000    -0.750000
   43    -1.000000   120.000000     0.577350    -0.577350    -0.577350     0.750000     0.750000    -0.750000
   44    -1.000000   180.000000    -0.000000     1.000000     0.000000     0.750000     0.750000    -0.750000
   45    -1.000000   120.000000     0.577350     0.577350    -0.577350     0.750000     0.750000    -0.750000
   46     1.000000   180.000000    -0.000000    -0.707107     0.707107     0.750000     0.750000    -0.750000
   47     1.000000   180.000000     0.707107    -0.707107     0.000000     0.750000     0.750000    -0.750000
   48     1.000000   180.000000     0.707107    -0.000000    -0.707107     0.750000     0.750000    -0.750000
 
 Subroutine IBZKPT returns following result:
 ===========================================
 
 Found     10 irreducible k-points:
 
 Following reciprocal coordinates:
            Coordinates               Weight
  0.000000  0.000000  0.000000      1.000000
  0.200000  0.000000  0.000000      6.000000
  0.400000  0.000000  0.000000      6.000000
  0.200000  0.200000  0.000000     12.000000
  0.400000  0.200000  0.000000     24.000000
  0.400000  0.400000  0.000000     12.000000
  0.200000  0.200000  0.200000      8.000000
  0.400000  0.200000  0.200000     24.000000
  0.400000  0.400000  0.200000     24.000000
  0.400000  0.400000  0.400000      8.000000
 
 Following cartesian coordinates:
            Coordinates               Weight
  0.000000  0.000000  0.000000      1.000000
  0.022638  0.000000  0.000000      6.000000
  0.045276  0.000000  0.000000      6.000000
  0.022638  0.022638  0.000000     12.000000
  0.045276  0.022638  0.000000     24.000000
  0.045276  0.045276  0.000000     12.000000
  0.022638  0.022638  0.022638      8.000000
  0.045276  0.022638  0.022638     24.000000
  0.045276  0.045276  0.022638     24.000000
  0.045276  0.045276  0.045276      8.000000
 


--------------------------------------------------------------------------------------------------------




 Dimension of arrays:
   k-points           NKPTS =     10   k-points in BZ     NKDIM =     10   number of bands    NBANDS=    156
   number of dos      NEDOS =    301   number of ions     NIONS =     56
   non local maximal  LDIM  =      4   non local SUM 2l+1 LMDIM =      8
   total plane-waves  NPLWV = 216000
   max r-space proj   IRMAX =   6472   max aug-charges    IRDMAX=  10672
   dimension x,y,z NGX =    60 NGY =   60 NGZ =   60
   dimension x,y,z NGXF=   120 NGYF=  120 NGZF=  120
   support grid    NGXF=   120 NGYF=  120 NGZF=  120
   ions per type =              24  32
   NGX,Y,Z   is equivalent  to a cutoff of  11.29, 11.29, 11.29 a.u.
   NGXF,Y,Z  is equivalent  to a cutoff of  22.58, 22.58, 22.58 a.u.

 SYSTEM =  unknown system                          
 POSCAR =  Si24 N32                                

 Startparameter for this run:
   NWRITE =      2    write-flag & timer
   PREC   = accura    normal or accurate (medium, high low for compatibility)
   ISTART =      0    job   : 0-new  1-cont  2-samecut
   ICHARG =      2    charge: 1-file 2-atom 10-const
   ISPIN  =      1    spin polarized calculation?
   LNONCOLLINEAR =      F non collinear calculations
   LSORBIT =      F    spin-orbit coupling
   INIWAV =      1    electr: 0-lowe 1-rand  2-diag
   LASPH  =      F    aspherical Exc in radial PAW
   METAGGA=      F    non-selfconsistent MetaGGA calc.

 Electronic Relaxation 1
   ENCUT  =  400.0 eV  29.40 Ry    5.42 a.u.  14.41 14.41 14.41*2*pi/ulx,y,z
   ENINI  =  400.0     initial cutoff
   ENAUG  =  627.1 eV  augmentation charge cutoff
   NELM   =     60;   NELMIN=  2; NELMDL= -5     # of ELM steps 
   EDIFF  = 0.1E-03   stopping-criterion for ELM
   LREAL  =      T    real-space projection
   NLSPLINE    = F    spline interpolate recip. space projectors
   LCOMPAT=      F    compatible to vasp.4.4
   GGA_COMPAT  = T    GGA compatible to vasp.4.4-vasp.4.6
   LMAXPAW     = -100 max onsite density
   LMAXMIX     =    2 max onsite mixed and CHGCAR
   VOSKOWN=      0    Vosko Wilk Nusair interpolation
   ROPT   =   -0.00025  -0.00025
 Ionic relaxation
   EDIFFG = 0.1E-02   stopping-criterion for IOM
   NSW    =    100    number of steps for IOM
   NBLOCK =      1;   KBLOCK =    100    inner block; outer block 
   IBRION =      2    ionic relax: 0-MD 1-quasi-New 2-CG
   NFREE  =      1    steps in history (QN), initial steepest desc. (CG)
   ISIF   =      2    stress and relaxation
   IWAVPR =     11    prediction:  0-non 1-charg 2-wave 3-comb
   ISYM   =      2    0-nonsym 1-usesym 2-fastsym
   LCORR  =      T    Harris-Foulkes like correction to forces

   POTIM  = 0.5000    time-step for ionic-motion
   TEIN   =    0.0    initial temperature
   TEBEG  =    0.0;   TEEND  =   0.0 temperature during run
   SMASS  =  -3.00    Nose mass-parameter (am)
   estimated Nose-frequenzy (Omega)   =  0.10E-29 period in steps =****** mass=  -0.178E-26a.u.
   SCALEE = 1.0000    scale energy and forces
   NPACO  =    256;   APACO  = 16.0  distance and # of slots for P.C.
   PSTRESS=    0.0 pullay stress

  Mass of Ions in am
   POMASS =  14.00 28.09
  Ionic Valenz
   ZVAL   =   5.00  4.00
  Atomic Wigner-Seitz radii
   RWIGS  =  -1.00 -1.00
  virtual crystal weights 
   VCA    =   1.00  1.00
   NELECT =     248.0000    total number of electrons
   NUPDOWN=      -1.0000    fix difference up-down

 DOS related values:
   EMIN   =  10.00;   EMAX   =-10.00  energy-range for DOS
   EFERMI =   0.00
   ISMEAR =     2;   SIGMA  =   0.10  broadening in eV -4-tet -1-fermi 0-gaus

 Electronic relaxation 2 (details)
   IALGO  =     68    algorithm
   LDIAG  =      T    sub-space diagonalisation (order eigenvalues)
   LSUBROT=      F    optimize rotation matrix (better conditioning)
   TURBO    =      0    0=normal 1=particle mesh
   IRESTART =      0    0=no restart 2=restart with 2 vectors
   NREBOOT  =      0    no. of reboots
   NMIN     =      0    reboot dimension
   EREF     =   0.00    reference energy to select bands
   IMIX   =      4    mixing-type and parameters
     AMIX     =   0.40;   BMIX     =  1.00
     AMIX_MAG =   1.60;   BMIX_MAG =  1.00
     AMIN     =   0.10
     WC   =   100.;   INIMIX=   1;  MIXPRE=   1;  MAXMIX= -45

 Intra band minimization:
   WEIMIN = 0.0010     energy-eigenvalue tresh-hold
   EBREAK =  0.16E-06  absolut break condition
   DEPER  =   0.30     relativ break condition  

   TIME   =   0.40     timestep for ELM

  volume/ion in A,a.u.               =      12.31        83.10
  Fermi-wavevector in a.u.,A,eV,Ry     =   1.164223  2.200063 18.441549  1.355416
  Thomas-Fermi vector in A             =   2.300764
 
 Write flags
   LWAVE        =      F    write WAVECAR
   LDOWNSAMPLE  =      F    k-point downsampling of WAVECAR
   LCHARG       =      F    write CHGCAR
   LVTOT        =      F    write LOCPOT, total local potential
   LVHAR        =      F    write LOCPOT, Hartree potential only
   LELF         =      F    write electronic localiz. function (ELF)
   LORBIT       =      0    0 simple, 1 ext, 2 COOP (PROOUT), +10 PAW based schemes


 Dipole corrections
   LMONO  =      F    monopole corrections only (constant potential shift)
   LDIPOL =      F    correct potential (dipole corrections)
   IDIPOL =      0    1-x, 2-y, 3-z, 4-all directions 
   EPSILON=  1.0000000 bulk dielectric constant

 Exchange correlation treatment:
   GGA     =    --    GGA type
   LEXCH   =     8    internal setting for exchange type
   VOSKOWN=      0    Vosko Wilk Nusair interpolation
   LHFCALC =     F    Hartree Fock is set to
   LHFONE  =     F    Hartree Fock one center treatment
   AEXX    =    0.0000 exact exchange contribution

 Linear response parameters
   LEPSILON=     F    determine dielectric tensor
   LRPA    =     F    only Hartree local field effects (RPA)
   LNABLA  =     F    use nabla operator in PAW spheres
   LVEL    =     F    velocity operator in full k-point grid
   LINTERFAST=   F  fast interpolation
   KINTER  =     0    interpolate to denser k-point grid
   CSHIFT  =0.1000    complex shift for real part using Kramers Kronig
   OMEGAMAX=  -1.0    maximum frequency
   DEG_THRESHOLD= 0.2000000E-02 threshold for treating states as degnerate
   RTIME   =   -0.100 relaxation time in fs
  (WPLASMAI=    0.000 imaginary part of plasma frequency in eV, 0.658/RTIME)
   DFIELD  = 0.0000000 0.0000000 0.0000000 field for delta impulse in time
 
 Orbital magnetization related:
   ORBITALMAG=     F  switch on orbital magnetization
   LCHIMAG   =     F  perturbation theory with respect to B field
   DQ        =  0.001000  dq finite difference perturbation B field
   LLRAUG    =     F  two centre corrections for induced B field



--------------------------------------------------------------------------------------------------------


 conjugate gradient relaxation of ions
 charge density and potential will be updated during run
 non-spin polarized calculation
 RMM-DIIS sequential band-by-band and
  variant of blocked Davidson during initial phase
 perform sub-space diagonalisation
    before iterative eigenvector-optimisation
 modified Broyden-mixing scheme, WC =      100.0
 initial mixing is a Kerker type mixing with AMIX =  0.4000 and BMIX =      1.0000
 Hartree-type preconditioning will be used
 using additional bands           32
 real space projection scheme for non local part
 use partial core corrections
 calculate Harris-corrections to forces 
   (improved forces if not selfconsistent)
 use gradient corrections 
 use of overlap-Matrix (Vanderbilt PP)
 Methfessel and Paxton  Order N= 2 SIGMA  =   0.10


--------------------------------------------------------------------------------------------------------


  energy-cutoff  :      400.00
  volume of cell :      689.55
      direct lattice vectors                 reciprocal lattice vectors
     8.834645874  0.000000000  0.000000000     0.113190728 -0.000000000  0.000000000
     0.000000000  8.834645874  0.000000000    -0.000000000  0.113190728  0.000000000
     0.000000000  0.000000000  8.834645874    -0.000000000 -0.000000000  0.113190728

  length of vectors
     8.834645874  8.834645874  8.834645874     0.113190728  0.113190728  0.113190728


 
 k-points in units of 2pi/SCALE and weight: Automatic mesh                          
   0.00000000  0.00000000  0.00000000       0.008
   0.02263815  0.00000000  0.00000000       0.048
   0.04527629  0.00000000  0.00000000       0.048
   0.02263815  0.02263815  0.00000000       0.096
   0.04527629  0.02263815  0.00000000       0.192
   0.04527629  0.04527629  0.00000000       0.096
   0.02263815  0.02263815  0.02263815       0.064
   0.04527629  0.02263815  0.02263815       0.192
   0.04527629  0.04527629  0.02263815       0.192
   0.04527629  0.04527629  0.04527629       0.064
 
 k-points in reciprocal lattice and weights: Automatic mesh                          
   0.00000000  0.00000000  0.00000000       0.008
   0.20000000  0.00000000  0.00000000       0.048
   0.40000000  0.00000000  0.00000000       0.048
   0.20000000  0.20000000  0.00000000       0.096
   0.40000000  0.20000000  0.00000000       0.192
   0.40000000  0.40000000  0.00000000       0.096
   0.20000000  0.20000000  0.20000000       0.064
   0.40000000  0.20000000  0.20000000       0.192
   0.40000000  0.40000000  0.20000000       0.192
   0.40000000  0.40000000  0.40000000       0.064
 
 position of ions in fractional coordinates (direct lattice) 
   0.87500000  0.87500000  0.12500000
   0.37500000  0.12500000  0.37500000
   0.62500000  0.87500000  0.37500000
   0.12500000  0.12500000  0.12500000
   0.25000000  0.75000000  0.25000000
   0.00000000  0.00000000  0.50000000
   0.87500000  0.37500000  0.62500000
   0.37500000  0.62500000  0.87500000
   0.62500000  0.37500000  0.87500000
   0.12500000  0.62500000  0.62500000
   0.25000000  0.25000000  0.75000000
   0.00000000  0.50000000  0.00000000
   0.37500000  0.87500000  0.62500000
   0.87500000  0.12500000  0.87500000
   0.12500000  0.87500000  0.87500000
   0.62500000  0.12500000  0.62500000
   0.75000000  0.75000000  0.75000000
   0.50000000  0.00000000  0.00000000
   0.37500000  0.37500000  0.12500000
   0.87500000  0.62500000  0.37500000
   0.12500000  0.37500000  0.37500000
   0.62500000  0.62500000  0.12500000
   0.75000000  0.25000000  0.25000000
   0.50000000  0.50000000  0.50000000
   0.37630293  0.37630293  0.37630293
   0.87369707  0.12630293  0.12630293
   0.62630293  0.12630293  0.37369707
   0.12630293  0.87369707  0.12630293
   0.12369707  0.12369707  0.37630293
   0.12369707  0.37630293  0.12369707
   0.37369707  0.87369707  0.37369707
   0.37630293  0.12369707  0.12369707
   0.37630293  0.87630293  0.87630293
   0.87369707  0.62630293  0.62630293
   0.62630293  0.62630293  0.87369707
   0.12630293  0.37369707  0.62630293
   0.12369707  0.62369707  0.87630293
   0.12369707  0.87630293  0.62369707
   0.37369707  0.37369707  0.87369707
   0.37630293  0.62369707  0.62369707
   0.87630293  0.37630293  0.87630293
   0.37369707  0.12630293  0.62630293
   0.12630293  0.12630293  0.87369707
   0.62630293  0.87369707  0.62630293
   0.62369707  0.12369707  0.87630293
   0.62369707  0.37630293  0.62369707
   0.87369707  0.87369707  0.87369707
   0.87630293  0.12369707  0.62369707
   0.87630293  0.87630293  0.37630293
   0.37369707  0.62630293  0.12630293
   0.12630293  0.62630293  0.37369707
   0.62630293  0.37369707  0.12630293
   0.62369707  0.62369707  0.37630293
   0.62369707  0.87630293  0.12369707
   0.87369707  0.37369707  0.37369707
   0.87630293  0.62369707  0.12369707
 
 position of ions in cartesian coordinates  (Angst):
   7.73031514  7.73031514  1.10433073
   3.31299220  1.10433073  3.31299220
   5.52165367  7.73031514  3.31299220
   1.10433073  1.10433073  1.10433073
   2.20866147  6.62598441  2.20866147
   0.00000000  0.00000000  4.41732294
   7.73031514  3.31299220  5.52165367
   3.31299220  5.52165367  7.73031514
   5.52165367  3.31299220  7.73031514
   1.10433073  5.52165367  5.52165367
   2.20866147  2.20866147  6.62598441
   0.00000000  4.41732294  0.00000000
   3.31299220  7.73031514  5.52165367
   7.73031514  1.10433073  7.73031514
   1.10433073  7.73031514  7.73031514
   5.52165367  1.10433073  5.52165367
   6.62598441  6.62598441  6.62598441
   4.41732294  0.00000000  0.00000000
   3.31299220  3.31299220  1.10433073
   7.73031514  5.52165367  3.31299220
   1.10433073  3.31299220  3.31299220
   5.52165367  5.52165367  1.10433073
   6.62598441  2.20866147  2.20866147
   4.41732294  4.41732294  4.41732294
   3.32450316  3.32450316  3.32450316
   7.71880418  1.11584169  1.11584169
   5.53316463  1.11584169  3.30148125
   1.11584169  7.71880418  1.11584169
   1.09281978  1.09281978  3.32450316
   1.09281978  3.32450316  1.09281978
   3.30148125  7.71880418  3.30148125
   3.32450316  1.09281978  1.09281978
   3.32450316  7.74182610  7.74182610
   7.71880418  5.53316463  5.53316463
   5.53316463  5.53316463  7.71880418
   1.11584169  3.30148125  5.53316463
   1.09281978  5.51014272  7.74182610
   1.09281978  7.74182610  5.51014272
   3.30148125  3.30148125  7.71880418
   3.32450316  5.51014272  5.51014272
   7.74182610  3.32450316  7.74182610
   3.30148125  1.11584169  5.53316463
   1.11584169  1.11584169  7.71880418
   5.53316463  7.71880418  5.53316463
   5.51014272  1.09281978  7.74182610
   5.51014272  3.32450316  5.51014272
   7.71880418  7.71880418  7.71880418
   7.74182610  1.09281978  5.51014272
   7.74182610  7.74182610  3.32450316
   3.30148125  5.53316463  1.11584169
   1.11584169  5.53316463  3.30148125
   5.53316463  3.30148125  1.11584169
   5.51014272  5.51014272  3.32450316
   5.51014272  7.74182610  1.09281978
   7.71880418  3.30148125  3.30148125
   7.74182610  5.51014272  1.09281978
 


--------------------------------------------------------------------------------------------------------


 k-point  1 :   0.0000 0.0000 0.0000  plane waves:   12533
 k-point  2 :   0.2000 0.0000 0.0000  plane waves:   12569
 k-point  3 :   0.4000 0.0000 0.0000  plane waves:   12553
 k-point  4 :   0.2000 0.2000 0.0000  plane waves:   12554
 k-point  5 :   0.4000 0.2000 0.0000  plane waves:   12506
 k-point  6 :   0.4000 0.4000 0.0000  plane waves:   12484
 k-point  7 :   0.2000 0.2000 0.2000  plane waves:   12512
 k-point  8 :   0.4000 0.2000 0.2000  plane waves:   12545
 k-point  9 :   0.4000 0.4000 0.2000  plane waves:   12523
 k-point 10 :   0.4000 0.4000 0.4000  plane waves:   12538

 maximum and minimum number of plane-waves per node :      3179     3103

 maximum number of plane-waves:     12569
 maximum index in each direction: 
   IXMAX=   14   IYMAX=   14   IZMAX=   14
   IXMIN=  -14   IYMIN=  -14   IZMIN=  -14


 real space projection operators:
  total allocation   :      15943.50 KBytes
  max/ min on nodes  :       3985.88       3985.88


 parallel 3D FFT for wavefunctions:
    minimum data exchange during FFTs selected (reduces bandwidth)
 parallel 3D FFT for charge:
    minimum data exchange during FFTs selected (reduces bandwidth)


 total amount of memory used by VASP MPI-rank0    75785. kBytes
=======================================================================

   base      :      30000. kBytes
   nonlr-proj:      11041. kBytes
   fftplans  :       5457. kBytes
   grid      :       8702. kBytes
   one-center:         43. kBytes
   wavefun   :      20542. kBytes
 
     INWAV:  cpu time    0.0000: real time    0.0000
 Broyden mixing: mesh for mixing (old mesh)
   NGX = 29   NGY = 29   NGZ = 29
  (NGX  =120   NGY  =120   NGZ  =120)
  gives a total of  24389 points

 initial charge density was supplied:
 charge density of overlapping atoms calculated
 number of electron     248.0000000 magnetization 
 keeping initial charge density in first step


--------------------------------------------------------------------------------------------------------


 Maximum index for non-local projection operator         1582
 Maximum index for augmentation-charges          730 (set IRDMAX)


--------------------------------------------------------------------------------------------------------


 First call to EWALD:  gamma=   0.201
 Maximum number of real-space cells 3x 3x 3
 Maximum number of reciprocal cells 3x 3x 3

    FEWALD:  cpu time    0.0030: real time    0.0034


--------------------------------------- Iteration      1(   1)  ---------------------------------------


    POTLOK:  cpu time    0.0916: real time    0.0968
    SETDIJ:  cpu time    0.0076: real time    0.0076
     EDDAV:  cpu time    8.4697: real time    8.4749
       DOS:  cpu time    0.0018: real time    0.0018
    --------------------------------------------
      LOOP:  cpu time    8.5706: real time    8.5810

 eigenvalue-minimisations  :  3120
 total energy-change (2. order) : 0.8631138E+03  (-0.9694891E+04)
 number of electron     248.0000000 magnetization 
 augmentation part      248.0000000 magnetization 

 Free energy of the ion-electron system (eV)
  ---------------------------------------------------
  alpha Z        PSCENC =       282.86232134
  Ewald energy   TEWEN  =     -9415.28530675
  -Hartree energ DENC   =     -1584.42677167
  -exchange      EXHF   =         0.00000000
  -V(xc)+E(xc)   XCENC  =       182.39777480
  PAW double counting   =      7738.34714636    -7203.94574617
  entropy T*S    EENTRO =         0.00235315
  eigenvalues    EBANDS =      1217.65809417
  atomic energy  EATOM  =      9645.50393724
  Solvation  Ediel_sol  =         0.00000000
  ---------------------------------------------------
  free energy    TOTEN  =       863.11380248 eV

  energy without entropy =      863.11144933  energy(sigma->0) =      863.11321419


--------------------------------------------------------------------------------------------------------




--------------------------------------- Iteration      1(   2)  ---------------------------------------


     EDDAV:  cpu time    9.9722: real time    9.9749
       DOS:  cpu time    0.0017: real time    0.0017
    --------------------------------------------
      LOOP:  cpu time    9.9739: real time    9.9766

 eigenvalue-minimisations  :  3880
 total energy-change (2. order) :-0.1104432E+04  (-0.1059110E+04)
 number of electron     248.0000000 magnetization 
 augmentation part      248.0000000 magnetization 

 Free energy of the ion-electron system (eV)
  ---------------------------------------------------
  alpha Z        PSCENC =       282.86232134
  Ewald energy   TEWEN  =     -9415.28530675
  -Hartree energ DENC   =     -1584.42677167
  -exchange      EXHF   =         0.00000000
  -V(xc)+E(xc)   XCENC  =       182.39777480
  PAW double counting   =      7738.34714636    -7203.94574617
  entropy T*S    EENTRO =        -0.00553977
  eigenvalues    EBANDS =       113.23352718
  atomic energy  EATOM  =      9645.50393724
  Solvation  Ediel_sol  =         0.00000000
  ---------------------------------------------------
  free energy    TOTEN  =      -241.31865743 eV

  energy without entropy =     -241.31311766  energy(sigma->0) =     -241.31727249


--------------------------------------------------------------------------------------------------------




--------------------------------------- Iteration      1(   3)  ---------------------------------------


     EDDAV:  cpu time   10.0835: real time   10.0923
       DOS:  cpu time    0.0017: real time    0.0017
    --------------------------------------------
      LOOP:  cpu time   10.0852: real time   10.0941

 eigenvalue-minimisations  :  3952
 total energy-change (2. order) :-0.1102599E+03  (-0.1061211E+03)
 number of electron     248.0000000 magnetization 
 augmentation part      248.0000000 magnetization 

 Free energy of the ion-electron system (eV)
  ---------------------------------------------------
  alpha Z        PSCENC =       282.86232134
  Ewald energy   TEWEN  =     -9415.28530675
  -Hartree energ DENC   =     -1584.42677167
  -exchange      EXHF   =         0.00000000
  -V(xc)+E(xc)   XCENC  =       182.39777480
  PAW double counting   =      7738.34714636    -7203.94574617
  entropy T*S    EENTRO =        -0.00100657
  eigenvalues    EBANDS =         2.96905659
  atomic energy  EATOM  =      9645.50393724
  Solvation  Ediel_sol  =         0.00000000
  ---------------------------------------------------
  free energy    TOTEN  =      -351.57859482 eV

  energy without entropy =     -351.57758826  energy(sigma->0) =     -351.57834318


--------------------------------------------------------------------------------------------------------




--------------------------------------- Iteration      1(   4)  ---------------------------------------


     EDDAV:  cpu time   10.2657: real time   10.2666
       DOS:  cpu time    0.0019: real time    0.0019
    --------------------------------------------
      LOOP:  cpu time   10.2676: real time   10.2685

 eigenvalue-minimisations  :  4024
 total energy-change (2. order) :-0.4288864E+01  (-0.4157540E+01)
 number of electron     248.0000000 magnetization 
 augmentation part      248.0000000 magnetization 

 Free energy of the ion-electron system (eV)
  ---------------------------------------------------
  alpha Z        PSCENC =       282.86232134
  Ewald energy   TEWEN  =     -9415.28530675
  -Hartree energ DENC   =     -1584.42677167
  -exchange      EXHF   =         0.00000000
  -V(xc)+E(xc)   XCENC  =       182.39777480
  PAW double counting   =      7738.34714636    -7203.94574617
  entropy T*S    EENTRO =        -0.00620987
  eigenvalues    EBANDS =        -1.31460362
  atomic energy  EATOM  =      9645.50393724
  Solvation  Ediel_sol  =         0.00000000
  ---------------------------------------------------
  free energy    TOTEN  =      -355.86745834 eV

  energy without entropy =     -355.86124847  energy(sigma->0) =     -355.86590587


--------------------------------------------------------------------------------------------------------




--------------------------------------- Iteration      1(   5)  ---------------------------------------


     EDDAV:  cpu time    9.9979: real time    9.9985
       DOS:  cpu time    0.0018: real time    0.0018
    CHARGE:  cpu time    0.3724: real time    0.3724
    MIXING:  cpu time    0.0024: real time    0.0024
    --------------------------------------------
      LOOP:  cpu time   10.3745: real time   10.3752

 eigenvalue-minimisations  :  3912
 total energy-change (2. order) :-0.1289937E+00  (-0.1278963E+00)
 number of electron     247.9999815 magnetization 
 augmentation part       -1.4580300 magnetization 

 Broyden mixing:
  rms(total) = 0.33993E+01    rms(broyden)= 0.33987E+01
  rms(prec ) = 0.47923E+01
  weight for this iteration     100.00

 Free energy of the ion-electron system (eV)
  ---------------------------------------------------
  alpha Z        PSCENC =       282.86232134
  Ewald energy   TEWEN  =     -9415.28530675
  -Hartree energ DENC   =     -1584.42677167
  -exchange      EXHF   =         0.00000000
  -V(xc)+E(xc)   XCENC  =       182.39777480
  PAW double counting   =      7738.34714636    -7203.94574617
  entropy T*S    EENTRO =        -0.00584590
  eigenvalues    EBANDS =        -1.44396132
  atomic energy  EATOM  =      9645.50393724
  Solvation  Ediel_sol  =         0.00000000
  ---------------------------------------------------
  free energy    TOTEN  =      -355.99645206 eV

  energy without entropy =     -355.99060616  energy(sigma->0) =     -355.99499059


--------------------------------------------------------------------------------------------------------




--------------------------------------- Iteration      1(   6)  ---------------------------------------


    POTLOK:  cpu time    0.0892: real time    0.0910
    SETDIJ:  cpu time    0.0078: real time    0.0082
    EDDIAG:  cpu time    1.0184: real time    1.0183
  RMM-DIIS:  cpu time    5.3326: real time    5.3327
    ORTHCH:  cpu time    0.1228: real time    0.1228
       DOS:  cpu time    0.0018: real time    0.0018
    CHARGE:  cpu time    0.3687: real time    0.3687
    MIXING:  cpu time    0.0407: real time    0.0407
    --------------------------------------------
      LOOP:  cpu time    6.9821: real time    6.9843

 eigenvalue-minimisations  :  3128
 total energy-change (2. order) : 0.2471843E+02  (-0.1632704E+02)
 number of electron     247.9999880 magnetization 
 augmentation part       -4.3466026 magnetization 

 Broyden mixing:
  rms(total) = 0.15585E+01    rms(broyden)= 0.15572E+01
  rms(prec ) = 0.17039E+01
  weight for this iteration     100.00

 eigenvalues of (default mixing * dielectric matrix)
  average eigenvalue GAMMA=   0.8725
  0.8725

 Free energy of the ion-electron system (eV)
  ---------------------------------------------------
  alpha Z        PSCENC =       282.86232134
  Ewald energy   TEWEN  =     -9415.28530675
  -Hartree energ DENC   =     -1858.35646133
  -exchange      EXHF   =         0.00000000
  -V(xc)+E(xc)   XCENC  =       199.96304590
  PAW double counting   =     11874.16508372   -11340.87580152
  entropy T*S    EENTRO =         0.00610975
  eigenvalues    EBANDS =       280.73904847
  atomic energy  EATOM  =      9645.50393724
  Solvation  Ediel_sol  =         0.00000000
  ---------------------------------------------------
  free energy    TOTEN  =      -331.27802319 eV

  energy without entropy =     -331.28413294  energy(sigma->0) =     -331.27955062


--------------------------------------------------------------------------------------------------------




--------------------------------------- Iteration      1(   7)  ---------------------------------------


    POTLOK:  cpu time    0.8534: real time    0.9287
    SETDIJ:  cpu time    0.1322: real time    0.1322
    EDDIAG:  cpu time    3.8929: real time    3.9454
  RMM-DIIS:  cpu time    7.5319: real time    7.8998
    ORTHCH:  cpu time    3.1421: real time    3.6481
       DOS:  cpu time    0.0017: real time    0.0017
    CHARGE:  cpu time    2.2307: real time    2.5932
    MIXING:  cpu time    0.1410: real time    0.2890
    --------------------------------------------
      LOOP:  cpu time   17.9259: real time   19.4381

 eigenvalue-minimisations  :  3298
 total energy-change (2. order) : 0.1148690E+01  (-0.4574655E+00)
 number of electron     247.9999880 magnetization 
 augmentation part       -4.3318136 magnetization 

 Broyden mixing:
  rms(total) = 0.89499E+00    rms(broyden)= 0.89494E+00
  rms(prec ) = 0.98065E+00
  weight for this iteration     100.00

 eigenvalues of (default mixing * dielectric matrix)
  average eigenvalue GAMMA=   1.4885
  1.0058  1.9713

 Free energy of the ion-electron system (eV)
  ---------------------------------------------------
  alpha Z        PSCENC =       282.86232134
  Ewald energy   TEWEN  =     -9415.28530675
  -Hartree energ DENC   =     -1825.26630170
  -exchange      EXHF   =         0.00000000
  -V(xc)+E(xc)   XCENC  =       197.96763907
  PAW double counting   =     14407.02239446   -13873.56324533
  entropy T*S    EENTRO =         0.00737180
  eigenvalues    EBANDS =       250.62185640
  atomic energy  EATOM  =      9645.50393724
  Solvation  Ediel_sol  =         0.00000000
  ---------------------------------------------------
  free energy    TOTEN  =      -330.12933347 eV

  energy without entropy =     -330.13670526  energy(sigma->0) =     -330.13117642


--------------------------------------------------------------------------------------------------------




--------------------------------------- Iteration      1(   8)  ---------------------------------------


    POTLOK:  cpu time    0.6636: real time    0.9256
    SETDIJ:  cpu time    0.1162: real time    0.1162
    EDDIAG:  cpu time    6.9807: real time    6.9903
  RMM-DIIS:  cpu time    7.5128: real time    7.5178
    ORTHCH:  cpu time    4.7744: real time    4.7758
       DOS:  cpu time    0.0018: real time    0.0148
    CHARGE:  cpu time    1.7743: real time    2.3938
    MIXING:  cpu time    0.2617: real time    0.2617
    --------------------------------------------
      LOOP:  cpu time   22.0854: real time   22.9959

 eigenvalue-minimisations  :  3120
 total energy-change (2. order) : 0.9828732E-01  (-0.3705227E+00)
 number of electron     247.9999872 magnetization 
 augmentation part       -3.9929144 magnetization 

 Broyden mixing:
  rms(total) = 0.25937E+00    rms(broyden)= 0.25923E+00
  rms(prec ) = 0.38966E+00
  weight for this iteration     100.00

 eigenvalues of (default mixing * dielectric matrix)
  average eigenvalue GAMMA=   1.3865
  2.2941  0.9327  0.9327

 Free energy of the ion-electron system (eV)
  ---------------------------------------------------
  alpha Z        PSCENC =       282.86232134
  Ewald energy   TEWEN  =     -9415.28530675
  -Hartree energ DENC   =     -1788.71492006
  -exchange      EXHF   =         0.00000000
  -V(xc)+E(xc)   XCENC  =       195.87387806
  PAW double counting   =     18011.83285964   -17478.13812859
  entropy T*S    EENTRO =         0.00315355
  eigenvalues    EBANDS =       216.03115941
  atomic energy  EATOM  =      9645.50393724
  Solvation  Ediel_sol  =         0.00000000
  ---------------------------------------------------
  free energy    TOTEN  =      -330.03104615 eV

  energy without entropy =     -330.03419971  energy(sigma->0) =     -330.03183454


--------------------------------------------------------------------------------------------------------




--------------------------------------- Iteration      1(   9)  ---------------------------------------


    POTLOK:  cpu time    0.9633: real time    0.9645
    SETDIJ:  cpu time    0.0934: real time    0.1194
    EDDIAG:  cpu time    3.9483: real time    4.9600
  RMM-DIIS:  cpu time    5.3101: real time    6.6402
    ORTHCH:  cpu time    1.4690: real time    1.7261
       DOS:  cpu time    0.0018: real time    0.0018
    CHARGE:  cpu time    0.5136: real time    0.6176
    MIXING:  cpu time    0.0029: real time    0.0029
    --------------------------------------------
      LOOP:  cpu time   12.3024: real time   15.0325

 eigenvalue-minimisations  :  3150
 total energy-change (2. order) : 0.2432590E+00  (-0.5379907E-01)
 number of electron     247.9999875 magnetization 
 augmentation part       -4.1557775 magnetization 

 Broyden mixing:
  rms(total) = 0.64067E-01    rms(broyden)= 0.64039E-01
  rms(prec ) = 0.80969E-01
  weight for this iteration     100.00

 eigenvalues of (default mixing * dielectric matrix)
  average eigenvalue GAMMA=   1.3654
  2.1888  1.1860  1.0434  1.0434

 Free energy of the ion-electron system (eV)
  ---------------------------------------------------
  alpha Z        PSCENC =       282.86232134
  Ewald energy   TEWEN  =     -9415.28530675
  -Hartree energ DENC   =     -1810.95341383
  -exchange      EXHF   =         0.00000000
  -V(xc)+E(xc)   XCENC  =       197.34037842
  PAW double counting   =     18590.15450352   -18056.54937699
  entropy T*S    EENTRO =         0.00591106
  eigenvalues    EBANDS =       237.13325882
  atomic energy  EATOM  =      9645.50393724
  Solvation  Ediel_sol  =         0.00000000
  ---------------------------------------------------
  free energy    TOTEN  =      -329.78778717 eV

  energy without entropy =     -329.79369823  energy(sigma->0) =     -329.78926493


--------------------------------------------------------------------------------------------------------




--------------------------------------- Iteration      1(  10)  ---------------------------------------


    POTLOK:  cpu time    0.4332: real time    0.4354
    SETDIJ:  cpu time    0.0077: real time    0.0077
    EDDIAG:  cpu time    3.3284: real time    3.3306
  RMM-DIIS:  cpu time    7.2640: real time    7.2722
    ORTHCH:  cpu time    0.5236: real time    0.5242
       DOS:  cpu time    0.0018: real time    0.0018
    CHARGE:  cpu time    0.5585: real time    0.5588
    MIXING:  cpu time    0.2763: real time    0.2769
    --------------------------------------------
      LOOP:  cpu time   12.3935: real time   12.4075

 eigenvalue-minimisations  :  3452
 total energy-change (2. order) :-0.2956586E-02  (-0.8313019E-02)
 number of electron     247.9999876 magnetization 
 augmentation part       -4.1984004 magnetization 

 Broyden mixing:
  rms(total) = 0.24745E-01    rms(broyden)= 0.24699E-01
  rms(prec ) = 0.27747E-01
  weight for this iteration     100.00

 eigenvalues of (default mixing * dielectric matrix)
  average eigenvalue GAMMA=   1.6041
  2.5497  2.5497  0.9319  0.9945  0.9945

 Free energy of the ion-electron system (eV)
  ---------------------------------------------------
  alpha Z        PSCENC =       282.86232134
  Ewald energy   TEWEN  =     -9415.28530675
  -Hartree energ DENC   =     -1813.11545608
  -exchange      EXHF   =         0.00000000
  -V(xc)+E(xc)   XCENC  =       197.50215335
  PAW double counting   =     18515.71896748   -17982.15053859
  entropy T*S    EENTRO =         0.00613908
  eigenvalues    EBANDS =       239.16703917
  atomic energy  EATOM  =      9645.50393724
  Solvation  Ediel_sol  =         0.00000000
  ---------------------------------------------------
  free energy    TOTEN  =      -329.79074375 eV

  energy without entropy =     -329.79688283  energy(sigma->0) =     -329.79227852


--------------------------------------------------------------------------------------------------------




--------------------------------------- Iteration      1(  11)  ---------------------------------------


    POTLOK:  cpu time    0.1832: real time    0.3496
    SETDIJ:  cpu time    0.0075: real time    0.0075
    EDDIAG:  cpu time    4.5947: real time    5.2413
  RMM-DIIS:  cpu time    5.8715: real time    6.4732
    ORTHCH:  cpu time    3.6187: real time    3.9256
       DOS:  cpu time    0.0019: real time    0.0019
    CHARGE:  cpu time    2.3419: real time    2.3683
    MIXING:  cpu time    0.0879: real time    0.0879
    --------------------------------------------
      LOOP:  cpu time   16.7071: real time   18.4552

 eigenvalue-minimisations  :  3253
 total energy-change (2. order) :-0.7796522E-03  (-0.3979715E-03)
 number of electron     247.9999876 magnetization 
 augmentation part       -4.1970012 magnetization 

 Broyden mixing:
  rms(total) = 0.64845E-02    rms(broyden)= 0.64796E-02
  rms(prec ) = 0.78879E-02
  weight for this iteration     100.00

 eigenvalues of (default mixing * dielectric matrix)
  average eigenvalue GAMMA=   1.4760
  2.6328  2.3454  0.9930  0.9930  0.9460  0.9460

 Free energy of the ion-electron system (eV)
  ---------------------------------------------------
  alpha Z        PSCENC =       282.86232134
  Ewald energy   TEWEN  =     -9415.28530675
  -Hartree energ DENC   =     -1812.88705530
  -exchange      EXHF   =         0.00000000
  -V(xc)+E(xc)   XCENC  =       197.53089160
  PAW double counting   =     18454.79034104   -17921.24999414
  entropy T*S    EENTRO =         0.00609264
  eigenvalues    EBANDS =       238.93724893
  atomic energy  EATOM  =      9645.50393724
  Solvation  Ediel_sol  =         0.00000000
  ---------------------------------------------------
  free energy    TOTEN  =      -329.79152340 eV

  energy without entropy =     -329.79761604  energy(sigma->0) =     -329.79304656


--------------------------------------------------------------------------------------------------------




--------------------------------------- Iteration      1(  12)  ---------------------------------------


    POTLOK:  cpu time    0.7039: real time    0.9621
    SETDIJ:  cpu time    0.1475: real time    0.1475
    EDDIAG:  cpu time    5.0875: real time    5.3448
  RMM-DIIS:  cpu time    6.1913: real time    6.1922
    ORTHCH:  cpu time    3.0008: real time    3.0272
       DOS:  cpu time    0.0018: real time    0.0018
    CHARGE:  cpu time    1.7219: real time    2.2475
    MIXING:  cpu time    0.2926: real time    0.2928
    --------------------------------------------
      LOOP:  cpu time   17.1473: real time   18.2158

 eigenvalue-minimisations  :  3268
 total energy-change (2. order) :-0.1126815E-03  (-0.2036807E-03)
 number of electron     247.9999876 magnetization 
 augmentation part       -4.2051993 magnetization 

 Broyden mixing:
  rms(total) = 0.63600E-02    rms(broyden)= 0.63556E-02
  rms(prec ) = 0.88061E-02
  weight for this iteration     100.00

 eigenvalues of (default mixing * dielectric matrix)
  average eigenvalue GAMMA=   1.4580
  2.6826  2.2949  1.3363  0.9316  0.9316  1.0146  1.0146

 Free energy of the ion-electron system (eV)
  ---------------------------------------------------
  alpha Z        PSCENC =       282.86232134
  Ewald energy   TEWEN  =     -9415.28530675
  -Hartree energ DENC   =     -1813.58443365
  -exchange      EXHF   =         0.00000000
  -V(xc)+E(xc)   XCENC  =       197.57446893
  PAW double counting   =     18477.66470731   -17944.12260667
  entropy T*S    EENTRO =         0.00612176
  eigenvalues    EBANDS =       239.58915440
  atomic energy  EATOM  =      9645.50393724
  Solvation  Ediel_sol  =         0.00000000
  ---------------------------------------------------
  free energy    TOTEN  =      -329.79163608 eV

  energy without entropy =     -329.79775784  energy(sigma->0) =     -329.79316652


--------------------------------------------------------------------------------------------------------




--------------------------------------- Iteration      1(  13)  ---------------------------------------


    POTLOK:  cpu time    0.8910: real time    0.9707
    SETDIJ:  cpu time    0.1200: real time    0.1201
    EDDIAG:  cpu time    3.1363: real time    3.1401
  RMM-DIIS:  cpu time    3.4088: real time    3.4126
    ORTHCH:  cpu time    0.1211: real time    0.1212
       DOS:  cpu time    0.0018: real time    0.0018
    CHARGE:  cpu time    0.3705: real time    0.3707
    MIXING:  cpu time    0.0031: real time    0.0031
    --------------------------------------------
      LOOP:  cpu time    8.0526: real time    8.1404

 eigenvalue-minimisations  :  1932
 total energy-change (2. order) : 0.1020687E-03  (-0.2403301E-04)
 number of electron     247.9999876 magnetization 
 augmentation part       -4.2025285 magnetization 

 Broyden mixing:
  rms(total) = 0.23489E-02    rms(broyden)= 0.23487E-02
  rms(prec ) = 0.29054E-02
  weight for this iteration     100.00

 eigenvalues of (default mixing * dielectric matrix)
  average eigenvalue GAMMA=   1.5738
  2.9294  2.6176  2.3030  0.9656  0.9656  0.9903  0.9095  0.9095

 Free energy of the ion-electron system (eV)
  ---------------------------------------------------
  alpha Z        PSCENC =       282.86232134
  Ewald energy   TEWEN  =     -9415.28530675
  -Hartree energ DENC   =     -1813.17628091
  -exchange      EXHF   =         0.00000000
  -V(xc)+E(xc)   XCENC  =       197.54842932
  PAW double counting   =     18469.76577591   -17936.21956680
  entropy T*S    EENTRO =         0.00610266
  eigenvalues    EBANDS =       239.20305398
  atomic energy  EATOM  =      9645.50393724
  Solvation  Ediel_sol  =         0.00000000
  ---------------------------------------------------
  free energy    TOTEN  =      -329.79153402 eV

  energy without entropy =     -329.79763668  energy(sigma->0) =     -329.79305968


--------------------------------------------------------------------------------------------------------




--------------------------------------- Iteration      1(  14)  ---------------------------------------


    POTLOK:  cpu time    0.0881: real time    0.0900
    SETDIJ:  cpu time    0.0076: real time    0.0128
    EDDIAG:  cpu time    1.0292: real time    1.0304
  RMM-DIIS:  cpu time    3.3517: real time    3.3552
    ORTHCH:  cpu time    0.1204: real time    0.1208
       DOS:  cpu time    0.0020: real time    0.0020
    --------------------------------------------
      LOOP:  cpu time    4.5990: real time    4.6113

 eigenvalue-minimisations  :  1881
 total energy-change (2. order) :-0.9725380E-05  (-0.1893900E-04)
 number of electron     247.9999876 magnetization 
 augmentation part       -4.2025285 magnetization 

 Free energy of the ion-electron system (eV)
  ---------------------------------------------------
  alpha Z        PSCENC =       282.86232134
  Ewald energy   TEWEN  =     -9415.28530675
  -Hartree energ DENC   =     -1812.96101855
  -exchange      EXHF   =         0.00000000
  -V(xc)+E(xc)   XCENC  =       197.53421704
  PAW double counting   =     18457.79338828   -17924.24304485
  entropy T*S    EENTRO =         0.00609312
  eigenvalues    EBANDS =       238.99786938
  atomic energy  EATOM  =      9645.50393724
  Solvation  Ediel_sol  =         0.00000000
  ---------------------------------------------------
  free energy    TOTEN  =      -329.79154374 eV

  energy without entropy =     -329.79763686  energy(sigma->0) =     -329.79306702


--------------------------------------------------------------------------------------------------------




 average (electrostatic) potential at core
  the test charge radii are     0.7089  0.9892
  (the norm of the test charge is              1.0000)
       1 -61.9292       2 -61.9292       3 -61.9292       4 -61.9292       5 -61.8341
       6 -61.8341       7 -61.9292       8 -61.9292       9 -61.9292      10 -61.9292
      11 -61.8341      12 -61.8341      13 -61.9292      14 -61.9292      15 -61.9292
      16 -61.9292      17 -61.8341      18 -61.8341      19 -61.9292      20 -61.9292
      21 -61.9292      22 -61.9292      23 -61.8341      24 -61.8341      25 -82.1796
      26 -82.1796      27 -82.1796      28 -82.1796      29 -82.1796      30 -82.1796
      31 -82.1796      32 -82.1796      33 -82.1796      34 -82.1796      35 -82.1796
      36 -82.1796      37 -82.1796      38 -82.1796      39 -82.1796      40 -82.1796
      41 -82.1796      42 -82.1796      43 -82.1796      44 -82.1796      45 -82.1796
      46 -82.1796      47 -82.1796      48 -82.1796      49 -82.1796      50 -82.1796
      51 -82.1796      52 -82.1796      53 -82.1796      54 -82.1796      55 -82.1796
      56 -82.1796
 
 
 
 E-fermi :   8.4499     XC(G=0): -11.0286     alpha+bet :-14.1545


 k-point     1 :       0.0000    0.0000    0.0000
  band No.  band energies     occupation 
      1      -9.7514      2.00000
      2      -9.0619      2.00000
      3      -9.0619      2.00000
      4      -9.0619      2.00000
      5      -9.0619      2.00000
      6      -9.0619      2.00000
      7      -9.0619      2.00000
      8      -8.7840      2.00000
      9      -8.1523      2.00000
     10      -8.0312      2.00000
     11      -8.0312      2.00000
     12      -8.0312      2.00000
     13      -8.0312      2.00000
     14      -8.0312      2.00000
     15      -8.0312      2.00000
     16      -7.0786      2.00000
     17      -7.0786      2.00000
     18      -7.0786      2.00000
     19      -7.0786      2.00000
     20      -7.0786      2.00000
     21      -7.0786      2.00000
     22      -6.9816      2.00000
     23      -6.9816      2.00000
     24      -6.9816      2.00000
     25      -1.5736      2.00000
     26      -1.5736      2.00000
     27      -1.5736      2.00000
     28      -1.2448      2.00000
     29      -1.2448      2.00000
     30      -1.2448      2.00000
     31      -1.2448      2.00000
     32      -1.2448      2.00000
     33      -1.2448      2.00000
     34      -1.1522      2.00000
     35      -0.3600      2.00000
     36      -0.3600      2.00000
     37      -0.3600      2.00000
     38      -0.3600      2.00000
     39      -0.3600      2.00000
     40      -0.3600      2.00000
     41      -0.0963      2.00000
     42      -0.0963      2.00000
     43      -0.0963      2.00000
     44       0.1640      2.00000
     45       0.1640      2.00000
     46       0.1640      2.00000
     47       0.1640      2.00000
     48       0.1640      2.00000
     49       0.1640      2.00000
     50       0.4761      2.00000
     51       0.4761      2.00000
     52       0.4761      2.00000
     53       0.4761      2.00000
     54       0.4761      2.00000
     55       0.4761      2.00000
     56       1.0125      2.00000
     57       1.0125      2.00000
     58       2.2780      2.00000
     59       2.2780      2.00000
     60       2.2780      2.00000
     61       2.2780      2.00000
     62       2.2780      2.00000
     63       2.2780      2.00000
     64       2.2789      2.00000
     65       2.2789      2.00000
     66       2.2789      2.00000
     67       2.2789      2.00000
     68       2.2789      2.00000
     69       2.2789      2.00000
     70       2.3308      2.00000
     71       2.3308      2.00000
     72       2.3308      2.00000
     73       2.3308      2.00000
     74       2.3308      2.00000
     75       2.3308      2.00000
     76       2.4162      2.00000
     77       2.4162      2.00000
     78       2.4162      2.00000
     79       2.8409      2.00000
     80       2.8409      2.00000
     81       2.8409      2.00000
     82       2.8409      2.00000
     83       2.8409      2.00000
     84       2.8409      2.00000
     85       3.6830      2.00000
     86       4.0900      2.00000
     87       4.0900      2.00000
     88       4.0900      2.00000
     89       4.7361      2.00000
     90       4.7361      2.00000
     91       4.7361      2.00000
     92       4.7361      2.00000
     93       4.7361      2.00000
     94       4.7361      2.00000
     95       5.1607      2.00000
     96       5.1607      2.00000
     97       5.1607      2.00000
     98       6.3367      2.00000
     99       6.3367      2.00000
    100       6.3367      2.00000
    101       6.7875      2.00000
    102       6.7875      2.00000
    103       6.7875      2.00000
    104       6.7875      2.00000
    105       6.7875      2.00000
    106       6.7875      2.00000
    107       7.4711      2.00000
    108       7.4711      2.00000
    109       7.4711      2.00000
    110       7.4711      2.00000
    111       7.4711      2.00000
    112       7.4711      2.00000
    113       7.5233      2.00000
    114       7.5233      2.00000
    115       7.5233      2.00000
    116       7.5233      2.00000
    117       7.5233      2.00000
    118       7.5233      2.00000
    119       7.8515      2.00000
    120       7.8515      2.00000
    121       7.8515      2.00000
    122       7.8891      2.00000
    123       7.8891      2.00000
    124       7.8891      2.00000
    125       7.8891      2.00000
    126       7.8891      2.00000
    127       7.8891      2.00000
    128       9.5354      0.00000
    129       9.7844      0.00000
    130       9.7844      0.00000
    131       9.7844      0.00000
    132       9.7844      0.00000
    133       9.7844      0.00000
    134       9.7844      0.00000
    135       9.8090      0.00000
    136       9.8090      0.00000
    137       9.8090      0.00000
    138       9.8090      0.00000
    139       9.8090      0.00000
    140       9.8090      0.00000
    141       9.9612      0.00000
    142       9.9735      0.00000
    143       9.9735      0.00000
    144       9.9823      0.00000
    145       9.9823      0.00000
    146       9.9823      0.00000
    147       9.9824      0.00000
    148       9.9824      0.00000
    149       9.9824      0.00000
    150      10.6251      0.00000
    151      10.6251      0.00000
    152      10.6252      0.00000
    153      11.8636      0.00000
    154      11.8742      0.00000
    155      11.9251      0.00000
    156      12.0602      0.00000

 k-point     2 :       0.2000    0.0000    0.0000
  band No.  band energies     occupation 
      1      -9.7108      2.00000
      2      -9.2271      2.00000
      3      -9.0562      2.00000
      4      -9.0562      2.00000
      5      -9.0562      2.00000
      6      -9.0562      2.00000
      7      -8.9513      2.00000
      8      -8.7959      2.00000
      9      -8.1736      2.00000
     10      -8.1663      2.00000
     11      -8.0526      2.00000
     12      -8.0526      2.00000
     13      -8.0526      2.00000
     14      -8.0526      2.00000
     15      -7.7847      2.00000
     16      -7.0694      2.00000
     17      -7.0694      2.00000
     18      -7.0586      2.00000
     19      -7.0586      2.00000
     20      -7.0586      2.00000
     21      -7.0586      2.00000
     22      -7.0455      2.00000
     23      -6.9911      2.00000
     24      -6.9911      2.00000
     25      -1.5619      2.00000
     26      -1.5619      2.00000
     27      -1.4652      2.00000
     28      -1.3003      2.00000
     29      -1.3003      2.00000
     30      -1.1978      2.00000
     31      -1.1978      2.00000
     32      -1.1978      2.00000
     33      -1.1978      2.00000
     34      -1.0758      2.00000
     35      -0.6304      2.00000
     36      -0.5093      2.00000
     37      -0.5093      2.00000
     38      -0.5093      2.00000
     39      -0.5093      2.00000
     40      -0.3151      2.00000
     41      -0.2832      2.00000
     42      -0.0381      2.00000
     43       0.0009      2.00000
     44       0.0009      2.00000
     45       0.1344      2.00000
     46       0.1344      2.00000
     47       0.1344      2.00000
     48       0.1344      2.00000
     49       0.2831      2.00000
     50       0.5079      2.00000
     51       0.5079      2.00000
     52       0.6140      2.00000
     53       0.6140      2.00000
     54       0.6140      2.00000
     55       0.6140      2.00000
     56       1.0668      2.00000
     57       1.3922      2.00000
     58       1.8476      2.00000
     59       1.9185      2.00000
     60       1.9185      2.00000
     61       1.9185      2.00000
     62       1.9185      2.00000
     63       2.0727      2.00000
     64       2.1674      2.00000
     65       2.1674      2.00000
     66       2.3572      2.00000
     67       2.3572      2.00000
     68       2.3572      2.00000
     69       2.3572      2.00000
     70       2.3631      2.00000
     71       2.3631      2.00000
     72       2.4434      2.00000
     73       2.5191      2.00000
     74       2.7028      2.00000
     75       2.7028      2.00000
     76       2.7028      2.00000
     77       2.7028      2.00000
     78       2.7559      2.00000
     79       2.8826      2.00000
     80       2.8826      2.00000
     81       2.8826      2.00000
     82       2.8826      2.00000
     83       3.0172      2.00000
     84       3.0172      2.00000
     85       3.7874      2.00000
     86       3.8971      2.00000
     87       3.8971      2.00000
     88       3.9778      2.00000
     89       4.5758      2.00000
     90       4.5758      2.00000
     91       4.5758      2.00000
     92       4.5758      2.00000
     93       4.7586      2.00000
     94       4.7586      2.00000
     95       5.0653      2.00000
     96       5.0653      2.00000
     97       5.2088      2.00000
     98       6.3654      2.00000
     99       6.3939      2.00000
    100       6.6132      2.00000
    101       6.7025      2.00000
    102       6.7025      2.00000
    103       6.7705      2.00000
    104       6.7705      2.00000
    105       6.7705      2.00000
    106       6.7705      2.00000
    107       7.0672      2.00000
    108       7.1486      2.00000
    109       7.1486      2.00000
    110       7.1486      2.00000
    111       7.1486      2.00000
    112       7.3420      2.00000
    113       7.4625      2.00000
    114       7.4625      2.00000
    115       7.6222      2.00000
    116       7.6222      2.00000
    117       7.6222      2.00000
    118       7.6222      2.00000
    119       7.8393      2.00000
    120       7.8393      2.00000
    121       8.1282      1.99980
    122       8.1282      1.99980
    123       8.2712      1.99482
    124       8.2759      1.99732
    125       8.2759      1.99732
    126       8.2759      1.99732
    127       8.2759      1.99732
    128       9.3406      0.00000
    129       9.3406      0.00000
    130       9.3406      0.00000
    131       9.3406      0.00000
    132       9.6351      0.00000
    133       9.6352      0.00000
    134       9.6473      0.00000
    135       9.7438      0.00000
    136       9.7541      0.00000
    137       9.9344      0.00000
    138       9.9359      0.00000
    139       9.9722      0.00000
    140       9.9723      0.00000
    141       9.9723      0.00000
    142       9.9724      0.00000
    143       9.9862      0.00000
    144      10.2540      0.00000
    145      10.2540      0.00000
    146      10.2541      0.00000
    147      10.2541      0.00000
    148      10.4689      0.00000
    149      10.4812      0.00000
    150      10.5681      0.00000
    151      10.5683      0.00000
    152      10.5855      0.00000
    153      11.5703      0.00000
    154      11.7297      0.00000
    155      11.7683      0.00000
    156      11.8816      0.00000

 k-point     3 :       0.4000    0.0000    0.0000
  band No.  band energies     occupation 
      1      -9.5948      2.00000
      2      -9.4214      2.00000
      3      -9.0465      2.00000
      4      -9.0465      2.00000
      5      -9.0465      2.00000
      6      -9.0465      2.00000
      7      -8.8797      2.00000
      8      -8.8291      2.00000
      9      -8.2139      2.00000
     10      -8.1968      2.00000
     11      -8.0861      2.00000
     12      -8.0861      2.00000
     13      -8.0861      2.00000
     14      -8.0861      2.00000
     15      -7.4921      2.00000
     16      -7.2266      2.00000
     17      -7.0455      2.00000
     18      -7.0455      2.00000
     19      -7.0278      2.00000
     20      -7.0278      2.00000
     21      -7.0278      2.00000
     22      -7.0278      2.00000
     23      -7.0155      2.00000
     24      -7.0155      2.00000
     25      -1.5126      2.00000
     26      -1.5126      2.00000
     27      -1.4152      2.00000
[...]
    120       8.0650      2.00000
    121       8.0650      2.00000
    122       8.2041      1.99748
    123       8.2041      1.99748
    124       8.2041      1.99748
    125       9.1292      0.00000
    126       9.1292      0.00000
    127       9.1292      0.00000
    128       9.3260      0.00000
    129       9.3260      0.00000
    130       9.3294      0.00000
    131       9.3294      0.00000
    132       9.3294      0.00000
    133       9.5056      0.00000
    134       9.5056      0.00000
    135       9.5056      0.00000
    136       9.8694      0.00000
    137       9.8694      0.00000
    138       9.8694      0.00000
    139       9.9813      0.00000
    140       9.9813      0.00000
    141      10.0610      0.00000
    142      10.3733      0.00000
    143      10.3733      0.00000
    144      10.3733      0.00000
    145      10.6710      0.00000
    146      10.6711      0.00000
    147      10.6720      0.00000
    148      10.7082      0.00000
    149      10.7082      0.00000
    150      10.7084      0.00000
    151      10.9078      0.00000
    152      10.9360      0.00000
    153      10.9656      0.00000
    154      10.9691      0.00000
    155      11.0012      0.00000
    156      11.0017      0.00000


--------------------------------------------------------------------------------------------------------


 soft charge-density along one line, spin component           1
         0         1         2         3         4         5         6         7         8         9
 total charge-density along one line
 
 pseudopotential strength for first ion, spin component:           1
 12.475  14.954  -0.000  -0.000  -0.000  -0.000  -0.000  -0.000
 14.954  17.926  -0.000  -0.000  -0.000  -0.000  -0.000   0.000
 -0.000  -0.000  -5.957  -0.004   0.004  -7.964  -0.005   0.005
 -0.000  -0.000  -0.004  -5.957  -0.004  -0.005  -7.964  -0.005
 -0.000  -0.000   0.004  -0.004  -5.957   0.005  -0.005  -7.964
 -0.000  -0.000  -7.964  -0.005   0.005  -9.938  -0.008   0.008
 -0.000  -0.000  -0.005  -7.964  -0.005  -0.008  -9.938  -0.008
 -0.000   0.000   0.005  -0.005  -7.964   0.008  -0.008  -9.938
 total augmentation occupancy for first ion, spin component:           1
  5.159  -2.271   0.000  -0.000  -0.000  -0.000  -0.000   0.000
 -2.271   1.542   0.000  -0.000   0.000   0.000   0.000  -0.000
  0.000   0.000   1.711  -0.044   0.044  -0.240   0.002  -0.002
 -0.000  -0.000  -0.044   1.711  -0.044   0.002  -0.240   0.002
 -0.000   0.000   0.044  -0.044   1.711  -0.002   0.002  -0.240
 -0.000   0.000  -0.240   0.002  -0.002   0.043   0.000  -0.000
 -0.000   0.000   0.002  -0.240   0.002   0.000   0.043   0.000
  0.000  -0.000  -0.002   0.002  -0.240  -0.000   0.000   0.043


------------------------ aborting loop because EDIFF is reached ----------------------------------------


    CHARGE:  cpu time    0.3765: real time    0.3765
    FORLOC:  cpu time    0.0320: real time    0.0320
    FORNL :  cpu time    2.4431: real time    2.4428
    STRESS:  cpu time    7.3441: real time    7.3445
    FORCOR:  cpu time    0.1177: real time    0.1177
    FORHAR:  cpu time    0.0512: real time    0.0512
    MIXING:  cpu time    0.0026: real time    0.0026
    OFIELD:  cpu time    0.0000: real time    0.0000

  FORCE on cell =-STRESS in cart. coord.  units (eV):
  Direction    XX          YY          ZZ          XY          YZ          ZX
  --------------------------------------------------------------------------------------
  Alpha Z   282.86232   282.86232   282.86232
  Ewald   -3138.02825 -3138.02825 -3138.02825     0.00000     0.00000     0.00000
  Hartree   605.07383   605.07383   605.07383    -0.00000    -0.00000    -0.00000
  E(xc)    -905.53308  -905.53308  -905.53308     0.00000    -0.00000     0.00000
  Local    -853.77115  -853.77115  -853.77115    -0.00000    -0.00000     0.00000
  n-local   979.05670   979.36317   981.05345    -0.29146     0.89206     0.13370
  augment  -184.07746  -184.07746  -184.07746     0.00000    -0.00000    -0.00000
  Kinetic  3167.63491  3179.35408  3185.78361    -2.42357    -2.96225    -1.27427
  Fock        0.00000     0.00000     0.00000     0.00000     0.00000     0.00000
  -------------------------------------------------------------------------------------
  Total     -36.05849   -36.05849   -36.05849    -0.00000    -0.00000    -0.00000
  in kB     -83.78199   -83.78199   -83.78199    -0.00000    -0.00000    -0.00000
  external pressure =      -83.78 kB  Pullay stress =        0.00 kB


 VOLUME and BASIS-vectors are now :
 -----------------------------------------------------------------------------
  energy-cutoff  :      400.00
  volume of cell :      689.55
      direct lattice vectors                 reciprocal lattice vectors
     8.834645874  0.000000000  0.000000000     0.113190728 -0.000000000  0.000000000
     0.000000000  8.834645874  0.000000000    -0.000000000  0.113190728  0.000000000
     0.000000000  0.000000000  8.834645874    -0.000000000 -0.000000000  0.113190728

  length of vectors
     8.834645874  8.834645874  8.834645874     0.113190728  0.113190728  0.113190728


 FORCES acting on ions
    electron-ion (+dipol)            ewald-force                    non-local-force                 convergence-correction
 -----------------------------------------------------------------------------------------------
   0.287E-11 -.128E-11 -.114E-11   0.546E-13 0.213E-13 0.138E-13   0.258E-21 0.139E-21 0.443E-21   -.329E-12 0.270E-11 -.129E-11
   -.169E-12 -.153E-11 -.488E-12   0.244E-13 0.320E-13 -.311E-14   0.500E-21 -.819E-21 0.372E-21   0.586E-13 0.547E-13 -.138E-11
   -.309E-12 -.457E-13 -.215E-12   0.266E-13 0.124E-13 -.533E-14   -.696E-21 -.166E-22 0.148E-21   -.162E-12 0.136E-11 0.120E-12
   -.396E-13 0.217E-12 0.135E-11   -.622E-14 -.270E-13 -.384E-13   0.476E-21 0.294E-21 0.190E-21   -.640E-12 0.264E-13 0.637E-12
   0.773E-13 0.915E-13 -.334E-12   0.355E-13 0.409E-13 0.107E-13   0.179E-17 -.656E-18 -.211E-17   0.422E-12 0.655E-12 -.914E-15
   -.644E-13 -.753E-14 0.137E-12   0.311E-13 -.293E-13 -.435E-13   -.367E-17 -.113E-17 0.166E-17   -.127E-11 0.385E-12 -.108E-11
   -.160E-11 -.319E-12 -.154E-11   0.279E-13 0.124E-13 0.130E-13   0.637E-21 -.166E-21 0.113E-20   0.373E-13 0.216E-11 -.405E-12
   0.383E-13 0.540E-12 -.109E-11   0.261E-13 0.324E-13 -.888E-15   -.244E-21 -.461E-21 0.580E-22   0.303E-12 0.107E-12 -.212E-11
   -.153E-12 0.124E-12 -.391E-12   -.533E-14 -.142E-13 0.000E+00   -.282E-21 0.284E-21 -.576E-21   -.215E-12 0.173E-11 0.639E-12
   -.409E-13 -.169E-12 0.714E-12   -.178E-14 -.473E-14 -.199E-13   0.999E-22 0.429E-21 0.107E-21   0.734E-12 0.356E-12 0.176E-11
   0.138E-12 -.131E-12 -.102E-12   0.142E-13 0.107E-13 0.124E-13   0.351E-17 0.110E-17 -.275E-17   0.651E-12 0.946E-12 0.260E-12
   -.773E-13 0.132E-12 -.363E-14   0.284E-13 -.497E-13 -.213E-13   -.117E-17 -.109E-17 0.155E-17   -.185E-11 0.966E-12 -.157E-11
   0.547E-12 0.756E-13 -.910E-12   0.111E-13 -.129E-13 0.178E-13   -.372E-21 -.159E-21 0.599E-21   0.284E-12 -.206E-11 0.239E-12
   0.255E-11 -.261E-11 0.386E-12   -.218E-13 -.103E-13 -.124E-13   -.320E-21 -.216E-21 -.633E-21   0.332E-13 -.968E-12 0.326E-11
   0.343E-13 0.542E-12 0.103E-11   -.266E-13 -.391E-13 -.711E-14   0.714E-22 0.515E-21 -.315E-21   -.381E-12 -.129E-11 -.264E-13
   0.719E-13 0.520E-13 0.443E-14   -.506E-13 -.390E-13 -.253E-13   0.185E-21 0.556E-21 0.338E-21   -.412E-12 -.113E-11 -.952E-12
   0.267E-12 -.218E-11 -.143E-11   0.302E-13 0.462E-13 0.355E-14   0.307E-17 0.107E-17 -.522E-18   -.123E-12 -.276E-11 0.791E-13
   0.870E-13 -.951E-14 -.132E-11   0.231E-13 -.302E-13 -.244E-13   -.173E-17 0.617E-18 0.152E-17   0.107E-11 0.115E-11 0.161E-11
   -.399E-12 -.619E-13 -.287E-12   0.149E-13 -.178E-13 0.371E-13   0.703E-21 -.229E-21 0.118E-20   -.868E-13 -.132E-11 -.358E-12
   -.522E-12 0.462E-12 -.470E-12   -.165E-13 -.339E-14 0.142E-13   -.793E-21 -.230E-21 0.253E-21   -.103E-12 -.314E-12 0.161E-11
   0.143E-13 0.548E-12 0.167E-11   -.355E-13 -.338E-13 0.178E-14   0.358E-21 0.339E-22 -.233E-21   0.386E-12 -.114E-11 -.116E-12
   0.664E-12 0.348E-12 -.301E-12   -.497E-13 -.341E-13 -.462E-13   0.402E-22 0.511E-21 0.427E-21   0.591E-13 -.296E-13 -.237E-11
   0.283E-12 -.314E-11 -.239E-11   0.275E-13 0.195E-13 0.533E-14   0.274E-18 0.108E-17 -.305E-18   0.853E-13 -.380E-11 -.113E-11
   0.451E-13 0.833E-12 0.230E-13   -.169E-13 -.577E-13 -.444E-13   -.357E-17 -.107E-17 0.291E-17   0.727E-13 0.213E-11 0.249E-11
   -.328E+01 -.328E+01 -.328E+01   0.368E+01 0.368E+01 0.368E+01   -.392E+00 -.392E+00 -.392E+00   -.368E-02 -.368E-02 -.368E-02
   0.328E+01 -.328E+01 -.328E+01   -.368E+01 0.368E+01 0.368E+01   0.392E+00 -.392E+00 -.392E+00   0.368E-02 -.368E-02 -.368E-02
   -.328E+01 -.328E+01 0.328E+01   0.368E+01 0.368E+01 -.368E+01   -.392E+00 -.392E+00 0.392E+00   -.368E-02 -.368E-02 0.368E-02
   -.328E+01 0.328E+01 -.328E+01   0.368E+01 -.368E+01 0.368E+01   -.392E+00 0.392E+00 -.392E+00   -.368E-02 0.368E-02 -.368E-02
   0.328E+01 0.328E+01 -.328E+01   -.368E+01 -.368E+01 0.368E+01   0.392E+00 0.392E+00 -.392E+00   0.368E-02 0.368E-02 -.368E-02
   0.328E+01 -.328E+01 0.328E+01   -.368E+01 0.368E+01 -.368E+01   0.392E+00 -.392E+00 0.392E+00   0.368E-02 -.368E-02 0.368E-02
   0.328E+01 0.328E+01 0.328E+01   -.368E+01 -.368E+01 -.368E+01   0.392E+00 0.392E+00 0.392E+00   0.368E-02 0.368E-02 0.368E-02
   -.328E+01 0.328E+01 0.328E+01   0.368E+01 -.368E+01 -.368E+01   -.392E+00 0.392E+00 0.392E+00   -.368E-02 0.368E-02 0.368E-02
   -.328E+01 -.328E+01 -.328E+01   0.368E+01 0.368E+01 0.368E+01   -.392E+00 -.392E+00 -.392E+00   -.368E-02 -.368E-02 -.368E-02
   0.328E+01 -.328E+01 -.328E+01   -.368E+01 0.368E+01 0.368E+01   0.392E+00 -.392E+00 -.392E+00   0.368E-02 -.368E-02 -.368E-02
   -.328E+01 -.328E+01 0.328E+01   0.368E+01 0.368E+01 -.368E+01   -.392E+00 -.392E+00 0.392E+00   -.368E-02 -.368E-02 0.368E-02
   -.328E+01 0.328E+01 -.328E+01   0.368E+01 -.368E+01 0.368E+01   -.392E+00 0.392E+00 -.392E+00   -.368E-02 0.368E-02 -.368E-02
   0.328E+01 0.328E+01 -.328E+01   -.368E+01 -.368E+01 0.368E+01   0.392E+00 0.392E+00 -.392E+00   0.368E-02 0.368E-02 -.368E-02
   0.328E+01 -.328E+01 0.328E+01   -.368E+01 0.368E+01 -.368E+01   0.392E+00 -.392E+00 0.392E+00   0.368E-02 -.368E-02 0.368E-02
   0.328E+01 0.328E+01 0.328E+01   -.368E+01 -.368E+01 -.368E+01   0.392E+00 0.392E+00 0.392E+00   0.368E-02 0.368E-02 0.368E-02
   -.328E+01 0.328E+01 0.328E+01   0.368E+01 -.368E+01 -.368E+01   -.392E+00 0.392E+00 0.392E+00   -.368E-02 0.368E-02 0.368E-02
   -.328E+01 -.328E+01 -.328E+01   0.368E+01 0.368E+01 0.368E+01   -.392E+00 -.392E+00 -.392E+00   -.368E-02 -.368E-02 -.368E-02
   0.328E+01 -.328E+01 -.328E+01   -.368E+01 0.368E+01 0.368E+01   0.392E+00 -.392E+00 -.392E+00   0.368E-02 -.368E-02 -.368E-02
   -.328E+01 -.328E+01 0.328E+01   0.368E+01 0.368E+01 -.368E+01   -.392E+00 -.392E+00 0.392E+00   -.368E-02 -.368E-02 0.368E-02
   -.328E+01 0.328E+01 -.328E+01   0.368E+01 -.368E+01 0.368E+01   -.392E+00 0.392E+00 -.392E+00   -.368E-02 0.368E-02 -.368E-02
   0.328E+01 0.328E+01 -.328E+01   -.368E+01 -.368E+01 0.368E+01   0.392E+00 0.392E+00 -.392E+00   0.368E-02 0.368E-02 -.368E-02
   0.328E+01 -.328E+01 0.328E+01   -.368E+01 0.368E+01 -.368E+01   0.392E+00 -.392E+00 0.392E+00   0.368E-02 -.368E-02 0.368E-02
   0.328E+01 0.328E+01 0.328E+01   -.368E+01 -.368E+01 -.368E+01   0.392E+00 0.392E+00 0.392E+00   0.368E-02 0.368E-02 0.368E-02
   -.328E+01 0.328E+01 0.328E+01   0.368E+01 -.368E+01 -.368E+01   -.392E+00 0.392E+00 0.392E+00   -.368E-02 0.368E-02 0.368E-02
   -.328E+01 -.328E+01 -.328E+01   0.368E+01 0.368E+01 0.368E+01   -.392E+00 -.392E+00 -.392E+00   -.368E-02 -.368E-02 -.368E-02
   0.328E+01 -.328E+01 -.328E+01   -.368E+01 0.368E+01 0.368E+01   0.392E+00 -.392E+00 -.392E+00   0.368E-02 -.368E-02 -.368E-02
   -.328E+01 -.328E+01 0.328E+01   0.368E+01 0.368E+01 -.368E+01   -.392E+00 -.392E+00 0.392E+00   -.368E-02 -.368E-02 0.368E-02
   -.328E+01 0.328E+01 -.328E+01   0.368E+01 -.368E+01 0.368E+01   -.392E+00 0.392E+00 -.392E+00   -.368E-02 0.368E-02 -.368E-02
   0.328E+01 0.328E+01 -.328E+01   -.368E+01 -.368E+01 0.368E+01   0.392E+00 0.392E+00 -.392E+00   0.368E-02 0.368E-02 -.368E-02
   0.328E+01 -.328E+01 0.328E+01   -.368E+01 0.368E+01 -.368E+01   0.392E+00 -.392E+00 0.392E+00   0.368E-02 -.368E-02 0.368E-02
   0.328E+01 0.328E+01 0.328E+01   -.368E+01 -.368E+01 -.368E+01   0.392E+00 0.392E+00 0.392E+00   0.368E-02 0.368E-02 0.368E-02
   -.328E+01 0.328E+01 0.328E+01   0.368E+01 -.368E+01 -.368E+01   -.392E+00 0.392E+00 0.392E+00   -.368E-02 0.368E-02 0.368E-02
 -----------------------------------------------------------------------------------------------
   0.856E-11 -.916E-11 -.108E-10   0.711E-14 -.155E-12 0.000E+00   0.278E-15 -.888E-15 0.333E-15   -.136E-11 -.849E-13 -.683E-14
 
 
 POSITION                                       TOTAL-FORCE (eV/Angst)
 -----------------------------------------------------------------------------------
      7.73032      7.73032      1.10433         0.000000     -0.000000     -0.000000
      3.31299      1.10433      3.31299         0.000000     -0.000000     -0.000000
      5.52165      7.73032      3.31299         0.000000     -0.000000     -0.000000
      1.10433      1.10433      1.10433         0.000000     -0.000000     -0.000000
      2.20866      6.62598      2.20866         0.000000     -0.000000     -0.000000
     -0.00000     -0.00000      4.41732         0.000000     -0.000000     -0.000000
      7.73032      3.31299      5.52165         0.000000     -0.000000     -0.000000
      3.31299      5.52165      7.73032         0.000000     -0.000000     -0.000000
      5.52165      3.31299      7.73032         0.000000     -0.000000     -0.000000
      1.10433      5.52165      5.52165         0.000000     -0.000000     -0.000000
      2.20866      2.20866      6.62598         0.000000     -0.000000     -0.000000
      0.00000      4.41732      0.00000         0.000000     -0.000000     -0.000000
      3.31299      7.73032      5.52165         0.000000     -0.000000     -0.000000
      7.73032      1.10433      7.73032         0.000000     -0.000000     -0.000000
      1.10433      7.73032      7.73032         0.000000     -0.000000     -0.000000
      5.52165      1.10433      5.52165         0.000000     -0.000000     -0.000000
      6.62598      6.62598      6.62598         0.000000     -0.000000     -0.000000
      4.41732      0.00000      0.00000         0.000000     -0.000000     -0.000000
      3.31299      3.31299      1.10433         0.000000     -0.000000     -0.000000
      7.73032      5.52165      3.31299         0.000000     -0.000000     -0.000000
      1.10433      3.31299      3.31299         0.000000     -0.000000     -0.000000
      5.52165      5.52165      1.10433         0.000000     -0.000000     -0.000000
      6.62598      2.20866      2.20866         0.000000     -0.000000     -0.000000
      4.41732      4.41732      4.41732         0.000000     -0.000000     -0.000000
      3.32042      3.32042      3.32042         0.000674      0.000674      0.000674
      7.72289      1.11176      1.11176        -0.000674      0.000674      0.000674
      5.52908      1.11176      3.30557         0.000674      0.000674     -0.000674
      1.11176      7.72289      1.11176         0.000674     -0.000674      0.000674
      1.09690      1.09690      3.32042        -0.000674     -0.000674      0.000674
      1.09690      3.32042      1.09690        -0.000674      0.000674     -0.000674
      3.30557      7.72289      3.30557        -0.000674     -0.000674     -0.000674
      3.32042      1.09690      1.09690         0.000674     -0.000674     -0.000674
      3.32042      7.73774      7.73774         0.000674      0.000674      0.000674
      7.72289      5.52908      5.52908        -0.000674      0.000674      0.000674
      5.52908      5.52908      7.72289         0.000674      0.000674     -0.000674
      1.11176      3.30557      5.52908         0.000674     -0.000674      0.000674
      1.09690      5.51423      7.73774        -0.000674     -0.000674      0.000674
      1.09690      7.73774      5.51423        -0.000674      0.000674     -0.000674
      3.30557      3.30557      7.72289        -0.000674     -0.000674     -0.000674
      3.32042      5.51423      5.51423         0.000674     -0.000674     -0.000674
      7.73774      3.32042      7.73774         0.000674      0.000674      0.000674
      3.30557      1.11176      5.52908        -0.000674      0.000674      0.000674
      1.11176      1.11176      7.72289         0.000674      0.000674     -0.000674
      5.52908      7.72289      5.52908         0.000674     -0.000674      0.000674
      5.51423      1.09690      7.73774        -0.000674     -0.000674      0.000674
      5.51423      3.32042      5.51423        -0.000674      0.000674     -0.000674
      7.72289      7.72289      7.72289        -0.000674     -0.000674     -0.000674
      7.73774      1.09690      5.51423         0.000674     -0.000674     -0.000674
      7.73774      7.73774      3.32042         0.000674      0.000674      0.000674
      3.30557      5.52908      1.11176        -0.000674      0.000674      0.000674
      1.11176      5.52908      3.30557         0.000674      0.000674     -0.000674
      5.52908      3.30557      1.11176         0.000674     -0.000674      0.000674
      5.51423      5.51423      3.32042        -0.000674     -0.000674      0.000674
      5.51423      7.73774      1.09690        -0.000674      0.000674     -0.000674
      7.72289      3.30557      3.30557        -0.000674     -0.000674     -0.000674
      7.73774      5.51423      1.09690         0.000674     -0.000674     -0.000674
 -----------------------------------------------------------------------------------
    total drift:                                0.000000     -0.000000     -0.000000


--------------------------------------------------------------------------------------------------------



  FREE ENERGIE OF THE ION-ELECTRON SYSTEM (eV)
  ---------------------------------------------------
  free  energy   TOTEN  =      -329.81296550 eV

  energy  without entropy=     -329.81735160  energy(sigma->0) =     -329.81406202
 
 d Force = 0.1791626E-02[ 0.745E-04, 0.351E-02]  d Energy = 0.1683672E-02 0.108E-03
 d Force = 0.4216746E+00[ 0.407E+00, 0.437E+00]  d Ewald  = 0.4216788E+00-0.426E-05


--------------------------------------------------------------------------------------------------------


    POTLOK:  cpu time    0.0963: real time    0.0963


--------------------------------------------------------------------------------------------------------




--------------------------------------------------------------------------------------------------------


  
 reached required accuracy - stopping structural energy minimisation
     LOOP+:  cpu time   31.6190: real time   31.6327
    4ORBIT:  cpu time    0.0000: real time    0.0000

 total amount of memory used by VASP MPI-rank0    75785. kBytes
=======================================================================

   base      :      30000. kBytes
   nonlr-proj:      11041. kBytes
   fftplans  :       5457. kBytes
   grid      :       8702. kBytes
   one-center:         43. kBytes
   wavefun   :      20542. kBytes
 
  
  
 General timing and accounting informations for this job:
 ========================================================
  
                  Total CPU time used (sec):      287.268
                            User time (sec):      285.781
                          System time (sec):        1.488
                         Elapsed time (sec):      301.095
  
                   Maximum memory used (kb):      102628.
                   Average memory used (kb):           0.
  
                          Minor page faults:       141109
                          Major page faults:            9
                 Voluntary context switches:         7358
