<?xml version="1.0" encoding="ISO-8859-1"?>
<modeling>
 <generator>
  <i name="program" type="string">vasp </i>
  <i name="version" type="string">5.4.4.18Apr17-6-g9f103f2a35  </i>
  <i name="subversion" type="string">(build Nov 01 2019 12:17:22) complex            parallel </i>
  <i name="platform" type="string">LinuxIFC </i>
  <i name="date" type="string">2023 05 19 </i>
  <i name="time" type="string">18:21:56 </i>
 </generator>
 <incar>
  <i type="string" name="PREC">accurate</i>
  <i type="string" name="ALGO"> Fast</i>
  <i type="int" name="IBRION">     2</i>
  <i type="int" name="NSW">   100</i>
  <i type="int" name="ISIF">     2</i>
  <i type="string" name="LREAL"> Auto</i>
  <i type="int" name="ISMEAR">     2</i>
  <i name="SIGMA">      0.10000000</i>
  <i type="logical" name="LWAVE"> F  </i>
  <i type="logical" name="LCHARG"> F  </i>
  <v type="int" name="KPOINT_BSE">    -1     0     0     0</v>
 </incar>
 <structure name="primitive_cell" >
  <crystal>
   <varray name="basis" >
    <v>       4.41732294       4.41732294       0.00000000 </v>
    <v>       4.41732294       0.00000000      -4.41732294 </v>
    <v>       0.00000000       4.41732294      -4.41732294 </v>
   </varray>
   <i name="volume">    172.38816501 </i>
   <varray name="rec_basis" >
    <v>       0.11319073       0.11319073       0.11319073 </v>
    <v>       0.11319073      -0.11319073      -0.11319073 </v>
    <v>      -0.11319073       0.11319073      -0.11319073 </v>
   </varray>
  </crystal>
  <varray name="positions" >
   <v>      -0.12500000      -0.12500000      -0.12500000 </v>
   <v>      -0.37890880       0.12630293       0.12630293 </v>
   <v>       0.12890880      -0.37630293      -0.37630293 </v>
   <v>       0.12630293      -0.37890880       0.12630293 </v>
   <v>       0.12630293       0.12630293      -0.37890880 </v>
   <v>      -0.37630293      -0.37630293       0.12890880 </v>
   <v>      -0.37630293       0.12890880      -0.37630293 </v>
   <v>      -0.12500000       0.37500000      -0.12500000 </v>
   <v>      -0.12500000      -0.12500000       0.37500000 </v>
   <v>       0.37500000      -0.12500000      -0.12500000 </v>
   <v>      -0.50000000      -0.50000000      -0.50000000 </v>
   <v>       0.25000000       0.25000000       0.25000000 </v>
   <v>       0.12630293       0.12630293       0.12630293 </v>
   <v>      -0.37630293      -0.37630293      -0.37630293 </v>
  </varray>
 </structure>
 <varray name="primitive_index" >
  <v type="int" >        1 </v>
  <v type="int" >       47 </v>
  <v type="int" >       49 </v>
  <v type="int" >       26 </v>
  <v type="int" >       28 </v>
  <v type="int" >       54 </v>
  <v type="int" >       56 </v>
  <v type="int" >        3 </v>
  <v type="int" >       14 </v>
  <v type="int" >        4 </v>
  <v type="int" >       12 </v>
  <v type="int" >       23 </v>
  <v type="int" >       27 </v>
  <v type="int" >       37 </v>
 </varray>
 <kpoints>
  <generation param="Auto">
   <i name="subdivisionlength">     45.00000000 </i>
   <v type="int" name="divisions">       5        5        5 </v>
   <v name="usershift">      0.00000000       0.00000000       0.00000000 </v>
   <v name="genvec1">      0.20000000      -0.00000000       0.00000000 </v>
   <v name="genvec2">     -0.00000000       0.20000000       0.00000000 </v>
   <v name="genvec3">     -0.00000000      -0.00000000       0.20000000 </v>
   <v name="shift">      0.00000000       0.00000000       0.00000000 </v>
  </generation>
  <varray name="kpointlist" >
   <v>       0.00000000       0.00000000       0.00000000 </v>
   <v>       0.20000000       0.00000000       0.00000000 </v>
   <v>       0.40000000       0.00000000       0.00000000 </v>
   <v>       0.20000000       0.20000000       0.00000000 </v>
   <v>       0.40000000       0.20000000       0.00000000 </v>
   <v>       0.40000000       0.40000000       0.00000000 </v>
   <v>       0.20000000       0.20000000       0.20000000 </v>
   <v>       0.40000000       0.20000000       0.20000000 </v>
   <v>       0.40000000       0.40000000       0.20000000 </v>
   <v>       0.40000000       0.40000000       0.40000000 </v>
  </varray>
  <varray name="weights" >
   <v>       0.00800000 </v>
   <v>       0.04800000 </v>
   <v>       0.04800000 </v>
   <v>       0.09600000 </v>
   <v>       0.19200000 </v>
   <v>       0.09600000 </v>
   <v>       0.06400000 </v>
   <v>       0.19200000 </v>
   <v>       0.19200000 </v>
   <v>       0.06400000 </v>
  </varray>
 </kpoints>
 <parameters>
  <separator name="general" >
   <i type="string" name="SYSTEM">unknown system</i>
   <i type="logical" name="LCOMPAT"> F  </i>
  </separator>
  <separator name="electronic" >
   <i type="string" name="PREC">accura</i>
   <i name="ENMAX">    400.00000000</i>
   <i name="ENAUG">    627.11200000</i>
   <i name="EDIFF">      0.00010000</i>
   <i type="int" name="IALGO">    68</i>
   <i type="int" name="IWAVPR">    11</i>
   <i type="int" name="NBANDS">   156</i>
   <i name="NELECT">    248.00000000</i>
   <i type="int" name="TURBO">     0</i>
   <i type="int" name="IRESTART">     0</i>
   <i type="int" name="NREBOOT">     0</i>
   <i type="int" name="NMIN">     0</i>
   <i name="EREF">      0.00000000</i>
   <separator name="electronic smearing" >
    <i type="int" name="ISMEAR">     2</i>
    <i name="SIGMA">      0.10000000</i>
    <i name="KSPACING">      0.50000000</i>
    <i type="logical" name="KGAMMA"> T  </i>
   </separator>
   <separator name="electronic projectors" >
    <i type="logical" name="LREAL"> T  </i>
    <v name="ROPT">     -0.00025000     -0.00025000</v>
    <i type="int" name="LMAXPAW">  -100</i>
    <i type="int" name="LMAXMIX">     2</i>
    <i type="logical" name="NLSPLINE"> F  </i>
   </separator>
   <separator name="electronic startup" >
    <i type="int" name="ISTART">     0</i>
    <i type="int" name="ICHARG">     2</i>
    <i type="int" name="INIWAV">     1</i>
   </separator>
   <separator name="electronic spin" >
    <i type="int" name="ISPIN">     1</i>
    <i type="logical" name="LNONCOLLINEAR"> F  </i>
    <v name="MAGMOM">      1.00000000      1.00000000      1.00000000      1.00000000      1.00000000      1.00000000      1.00000000      1.00000000      1.00000000      1.00000000      1.00000000      1.00000000      1.00000000      1.00000000      1.00000000      1.00000000      1.00000000      1.00000000      1.00000000      1.00000000
      1.00000000      1.00000000      1.00000000      1.00000000      1.00000000      1.00000000      1.00000000      1.00000000      1.00000000      1.00000000      1.00000000      1.00000000      1.00000000      1.00000000      1.00000000      1.00000000      1.00000000      1.00000000      1.00000000      1.00000000
      1.00000000      1.00000000      1.00000000      1.00000000      1.00000000      1.00000000      1.00000000      1.00000000      1.00000000      1.00000000      1.00000000      1.00000000      1.00000000      1.00000000      1.00000000      1.00000000</v>
    <i name="NUPDOWN">     -1.00000000</i>
    <i type="logical" name="LSORBIT"> F  </i>
    <v name="SAXIS">      0.00000000      0.00000000      1.00000000</v>
    <i type="logical" name="LSPIRAL"> F  </i>
    <v name="QSPIRAL">      0.00000000      0.00000000      0.00000000</v>
    <i type="logical" name="LZEROZ"> F  </i>
   </separator>
   <separator name="electronic exchange-correlation" >
    <i type="logical" name="LASPH"> F  </i>
    <i type="logical" name="LMETAGGA"> F  </i>
   </separator>
   <separator name="electronic convergence" >
    <i type="int" name="NELM">    60</i>
    <i type="int" name="NELMDL">    -5</i>
    <i type="int" name="NELMIN">     2</i>
    <i name="ENINI">    400.00000000</i>
    <separator name="electronic convergence detail" >
     <i type="logical" name="LDIAG"> T  </i>
     <i type="logical" name="LSUBROT"> F  </i>
     <i name="WEIMIN">      0.00100000</i>
     <i name="EBREAK">      0.00000016</i>
     <i name="DEPER">      0.30000000</i>
     <i type="int" name="NRMM">     4</i>
     <i name="TIME">      0.40000000</i>
    </separator>
   </separator>
   <separator name="electronic mixer" >
    <i name="AMIX">      0.40000000</i>
    <i name="BMIX">      1.00000000</i>
    <i name="AMIN">      0.10000000</i>
    <i name="AMIX_MAG">      1.60000000</i>
    <i name="BMIX_MAG">      1.00000000</i>
    <separator name="electronic mixer details" >
     <i type="int" name="IMIX">     4</i>
     <i type="logical" name="MIXFIRST"> F  </i>
     <i type="int" name="MAXMIX">   -45</i>
     <i name="WC">    100.00000000</i>
     <i type="int" name="INIMIX">     1</i>
     <i type="int" name="MIXPRE">     1</i>
     <i type="int" name="MREMOVE">     5</i>
    </separator>
   </separator>
   <separator name="electronic dipolcorrection" >
    <i type="logical" name="LDIPOL"> F  </i>
    <i type="logical" name="LMONO"> F  </i>
    <i type="int" name="IDIPOL">     0</i>
    <i name="EPSILON">      1.00000000</i>
    <v name="DIPOL">   -100.00000000   -100.00000000   -100.00000000</v>
    <i name="EFIELD">      0.00000000</i>
   </separator>
  </separator>
  <separator name="grids" >
   <i type="int" name="NGX">    60</i>
   <i type="int" name="NGY">    60</i>
   <i type="int" name="NGZ">    60</i>
   <i type="int" name="NGXF">   120</i>
   <i type="int" name="NGYF">   120</i>
   <i type="int" name="NGZF">   120</i>
   <i type="logical" name="ADDGRID"> F  </i>
  </separator>
  <separator name="ionic" >
   <i type="int" name="NSW">   100</i>
   <i type="int" name="IBRION">     2</i>
   <i type="int" name="MDALGO">     0</i>
   <i type="int" name="ISIF">     2</i>
   <i name="PSTRESS">      0.00000000</i>
   <i name="EDIFFG">      0.00100000</i>
   <i type="int" name="NFREE">     1</i>
   <i name="POTIM">      0.50000000</i>
   <i name="SMASS">     -3.00000000</i>
   <i name="SCALEE">      1.00000000</i>
  </separator>
  <separator name="ionic md" >
   <i name="TEBEG">      0.00010000</i>
   <i name="TEEND">      0.00010000</i>
   <i type="int" name="NBLOCK">     1</i>
   <i type="int" name="KBLOCK">   100</i>
   <i type="int" name="NPACO">   256</i>
   <i name="APACO">     16.00000000</i>
  </separator>
  <separator name="symmetry" >
   <i type="int" name="ISYM">     2</i>
   <i name="SYMPREC">      0.00001000</i>
  </separator>
  <separator name="dos" >
   <i type="int" name="LORBIT">     0</i>
   <v name="RWIGS">     -1.00000000     -1.00000000</v>
   <i type="int" name="NEDOS">   301</i>
   <i name="EMIN">     10.00000000</i>
   <i name="EMAX">    -10.00000000</i>
   <i name="EFERMI">      0.00000000</i>
  </separator>
  <separator name="writing" >
   <i type="int" name="NWRITE">     2</i>
   <i type="logical" name="LWAVE"> F  </i>
   <i type="logical" name="LDOWNSAMPLE"> F  </i>
   <i type="logical" name="LCHARG"> F  </i>
   <i type="logical" name="LPARD"> F  </i>
   <i type="logical" name="LVTOT"> F  </i>
   <i type="logical" name="LVHAR"> F  </i>
   <i type="logical" name="LELF"> F  </i>
   <i type="logical" name="LOPTICS"> F  </i>
   <v name="STM">      0.00000000      0.00000000      0.00000000      0.00000000      0.00000000      0.00000000      0.00000000</v>
  </separator>
  <separator name="performance" >
   <i type="int" name="NPAR">     4</i>
   <i type="int" name="NSIM">     4</i>
   <i type="int" name="NBLK">    -1</i>
   <i type="logical" name="LPLANE"> T  </i>
   <i type="logical" name="LSCALAPACK"> F  </i>
   <i type="logical" name="LSCAAWARE"> F  </i>
   <i type="logical" name="LSCALU"> F  </i>
   <i type="logical" name="LASYNC"> F  </i>
   <i type="logical" name="LORBITALREAL"> F  </i>
  </separator>
  <separator name="miscellaneous" >
   <i type="int" name="IDIOT">     3</i>
   <i type="int" name="ISPECIAL">     0</i>
   <i type="logical" name="LMUSIC"> F  </i>
   <v name="POMASS">     14.00100000     28.08500000</v>
   <v name="DARWINR">      0.00000000      0.00000000</v>
   <v name="DARWINV">      1.00000000      1.00000000</v>
   <i type="logical" name="LCORR"> T  </i>
  </separator>
  <i type="logical" name="GGA_COMPAT"> T  </i>
  <i type="logical" name="LBERRY"> F  </i>
  <i type="int" name="ICORELEVEL">     0</i>
  <i type="logical" name="LDAU"> F  </i>
  <i type="int" name="I_CONSTRAINED_M">     0</i>
  <separator name="electronic exchange-correlation" >
   <i type="string" name="GGA">--</i>
   <i type="int" name="VOSKOWN">     0</i>
   <i type="logical" name="LHFCALC"> F  </i>
   <i type="string" name="PRECFOCK"></i>
   <i type="logical" name="LSYMGRAD"> F  </i>
   <i type="logical" name="LHFONE"> F  </i>
   <i type="logical" name="LRHFCALC"> F  </i>
   <i type="logical" name="LTHOMAS"> F  </i>
   <i type="logical" name="LMODELHF"> F  </i>
   <i name="ENCUT4O">     -1.00000000</i>
   <i type="int" name="EXXOEP">     0</i>
   <i type="int" name="FOURORBIT">     0</i>
   <i name="AEXX">      0.00000000</i>
   <i name="HFALPHA">      0.00000000</i>
   <i name="MCALPHA">      0.00000000</i>
   <i name="ALDAX">      1.00000000</i>
   <i name="AGGAX">      1.00000000</i>
   <i name="ALDAC">      1.00000000</i>
   <i name="AGGAC">      1.00000000</i>
   <i type="int" name="NKREDX">     1</i>
   <i type="int" name="NKREDY">     1</i>
   <i type="int" name="NKREDZ">     1</i>
   <i type="logical" name="SHIFTRED"> F  </i>
   <i type="logical" name="ODDONLY"> F  </i>
   <i type="logical" name="EVENONLY"> F  </i>
   <i type="int" name="LMAXFOCK">     0</i>
   <i type="int" name="NMAXFOCKAE">     0</i>
   <i type="logical" name="LFOCKAEDFT"> F  </i>
   <i name="HFSCREEN">      0.00000000</i>
   <i name="HFSCREENC">      0.00000000</i>
   <i type="int" name="NBANDSGWLOW">     0</i>
  </separator>
  <separator name="vdW DFT" >
   <i type="logical" name="LUSE_VDW"> F  </i>
   <i name="Zab_VDW">     -0.84910000</i>
   <i name="PARAM1">      0.12340000</i>
   <i name="PARAM2">      1.00000000</i>
   <i name="PARAM3">      0.00000000</i>
  </separator>
  <separator name="model GW" >
   <i type="int" name="MODEL_GW">     0</i>
   <i name="MODEL_EPS0">      7.38806421</i>
   <i name="MODEL_ALPHA">      1.00000000</i>
  </separator>
  <separator name="linear response parameters" >
   <i type="logical" name="LEPSILON"> F  </i>
   <i type="logical" name="LRPA"> F  </i>
   <i type="logical" name="LNABLA"> F  </i>
   <i type="logical" name="LVEL"> F  </i>
   <i type="int" name="KINTER">     0</i>
   <i name="CSHIFT">      0.10000000</i>
   <i name="OMEGAMAX">     -1.00000000</i>
   <i name="DEG_THRESHOLD">      0.00200000</i>
   <i name="RTIME">     -0.10000000</i>
   <i name="WPLASMAI">      0.00000000</i>
   <v name="DFIELD">      0.00000000      0.00000000      0.00000000</v>
   <v name="WPLASMA">      0.00000000      0.00000000      0.00000000      0.00000000      0.00000000      0.00000000      0.00000000      0.00000000      0.00000000</v>
  </separator>
  <separator name="orbital magnetization" >
   <i type="logical" name="NUCIND"> F  </i>
   <v name="MAGPOS">      0.00000000      0.00000000      0.00000000</v>
   <i type="logical" name="LNICSALL"> T  </i>
   <i type="logical" name="ORBITALMAG"> F  </i>
   <i type="logical" name="LMAGBLOCH"> F  </i>
   <i type="logical" name="LCHIMAG"> F  </i>
   <i type="logical" name="LGAUGE"> T  </i>
   <i type="int" name="MAGATOM">     0</i>
   <v name="MAGDIPOL">      0.00000000      0.00000000      0.00000000</v>
   <v name="AVECCONST">      0.00000000      0.00000000      0.00000000</v>
  </separator>
  <separator name="response functions" >
   <i type="logical" name="LADDER"> F  </i>
   <i type="logical" name="LRPAFORCE"> F  </i>
   <i type="logical" name="LFXC"> F  </i>
   <i type="logical" name="LHARTREE"> T  </i>
   <i type="int" name="IBSE">     0</i>
   <v type="int" name="KPOINT">    -1     0     0     0</v>
   <i type="logical" name="LTCTE"> F  </i>
   <i type="logical" name="LTETE"> F  </i>
   <i type="logical" name="LTRIPLET"> F  </i>
   <i type="logical" name="LFXCEPS"> F  </i>
   <i type="logical" name="LFXHEG"> F  </i>
   <i type="int" name="NATURALO">     2</i>
   <i type="logical" name="L2ORDER"> F  </i>
   <i type="logical" name="LMP2LT"> F  </i>
   <i type="logical" name="LUSEW"> F  </i>
   <i name="ENCUTGW">     -2.00000000</i>
   <i name="ENCUTGWSOFT">     -2.00000000</i>
   <i name="ENCUTLF">     -1.00000000</i>
   <i type="int" name="LMAXMP2">    -1</i>
   <i name="SCISSOR">      0.00000000</i>
   <i type="int" name="NOMEGA">     0</i>
   <i type="int" name="NOMEGAR">     0</i>
   <i type="int" name="NBANDSGW">    -1</i>
   <i type="int" name="NBANDSO">    -1</i>
   <i type="int" name="NBANDSV">    -1</i>
   <i type="int" name="NELM">     1</i>
   <i type="int" name="NELMHF">     1</i>
   <i type="int" name="DIM">     3</i>
   <i type="int" name="ANTIRES">     0</i>
   <i name="OMEGAMAX">    -30.00000000</i>
   <i name="OMEGAMIN">    -30.00000000</i>
   <i name="OMEGATL">   -200.00000000</i>
   <i type="int" name="OMEGAGRID">   140</i>
   <i name="CSHIFT">     -0.10000000</i>
   <i type="logical" name="SELFENERGY"> F  </i>
   <i type="logical" name="LSPECTRAL"> F  </i>
   <i type="logical" name="LSPECTRALGW"> F  </i>
   <i type="logical" name="LSINGLES"> F  </i>
   <i type="logical" name="LFERMIGW"> F  </i>
   <i type="logical" name="ODDONLYGW"> F  </i>
   <i type="logical" name="EVENONLYGW"> F  </i>
   <i type="int" name="NKREDLFX">     1</i>
   <i type="int" name="NKREDLFY">     1</i>
   <i type="int" name="NKREDLFZ">     1</i>
   <i type="int" name="MAXMEM">  2800</i>
   <i type="int" name="TELESCOPE">     0</i>
   <i type="int" name="TAUPAR">     1</i>
   <i type="int" name="OMEGAPAR">    -1</i>
   <i name="LAMBDA">      1.00000000</i>
  </separator>
  <separator name="External order field" >
   <i name="OFIELD_KAPPA">      0.00000000</i>
   <v name="OFIELD_K">      0.00000000      0.00000000      0.00000000</v>
   <i name="OFIELD_Q6_NEAR">      0.00000000</i>
   <i name="OFIELD_Q6_FAR">      0.00000000</i>
   <i name="OFIELD_A">      0.00000000</i>
  </separator>
 </parameters>
 <atominfo>
  <atoms>      56 </atoms>
  <types>       2 </types>
  <array name="atoms" >
   <dimension dim="1">ion</dimension>
   <field type="string">element</field>
   <field type="int">atomtype</field>
   <set>
    <rc><c>N </c><c>   1</c></rc>
    <rc><c>N </c><c>   1</c></rc>
    <rc><c>N </c><c>   1</c></rc>
    <rc><c>N </c><c>   1</c></rc>
    <rc><c>N </c><c>   1</c></rc>
    <rc><c>N </c><c>   1</c></rc>
    <rc><c>N </c><c>   1</c></rc>
    <rc><c>N </c><c>   1</c></rc>
    <rc><c>N </c><c>   1</c></rc>
    <rc><c>N </c><c>   1</c></rc>
    <rc><c>N </c><c>   1</c></rc>
    <rc><c>N </c><c>   1</c></rc>
    <rc><c>N </c><c>   1</c></rc>
    <rc><c>N </c><c>   1</c></rc>
    <rc><c>N </c><c>   1</c></rc>
    <rc><c>N </c><c>   1</c></rc>
    <rc><c>N </c><c>   1</c></rc>
    <rc><c>N </c><c>   1</c></rc>
    <rc><c>N </c><c>   1</c></rc>
    <rc><c>N </c><c>   1</c></rc>
    <rc><c>N </c><c>   1</c></rc>
    <rc><c>N </c><c>   1</c></rc>
    <rc><c>N </c><c>   1</c></rc>
    <rc><c>N </c><c>   1</c></rc>
    <rc><c>Si</c><c>   2</c></rc>
    <rc><c>Si</c><c>   2</c></rc>
    <rc><c>Si</c><c>   2</c></rc>
    <rc><c>Si</c><c>   2</c></rc>
    <rc><c>Si</c><c>   2</c></rc>
    <rc><c>Si</c><c>   2</c></rc>
    <rc><c>Si</c><c>   2</c></rc>
    <rc><c>Si</c><c>   2</c></rc>
    <rc><c>Si</c><c>   2</c></rc>
    <rc><c>Si</c><c>   2</c></rc>
    <rc><c>Si</c><c>   2</c></rc>
    <rc><c>Si</c><c>   2</c></rc>
    <rc><c>Si</c><c>   2</c></rc>
    <rc><c>Si</c><c>   2</c></rc>
    <rc><c>Si</c><c>   2</c></rc>
    <rc><c>Si</c><c>   2</c></rc>
    <rc><c>Si</c><c>   2</c></rc>
    <rc><c>Si</c><c>   2</c></rc>
    <rc><c>Si</c><c>   2</c></rc>
    <rc><c>Si</c><c>   2</c></rc>
    <rc><c>Si</c><c>   2</c></rc>
    <rc><c>Si</c><c>   2</c></rc>
    <rc><c>Si</c><c>   2</c></rc>
    <rc><c>Si</c><c>   2</c></rc>
    <rc><c>Si</c><c>   2</c></rc>
    <rc><c>Si</c><c>   2</c></rc>
    <rc><c>Si</c><c>   2</c></rc>
    <rc><c>Si</c><c>   2</c></rc>
    <rc><c>Si</c><c>   2</c></rc>
    <rc><c>Si</c><c>   2</c></rc>
    <rc><c>Si</c><c>   2</c></rc>
    <rc><c>Si</c><c>   2</c></rc>
   </set>
  </array>
  <array name="atomtypes" >
   <dimension dim="1">type</dimension>
   <field type="int">atomspertype</field>
   <field type="string">element</field>
   <field>mass</field>
   <field>valence</field>
   <field type="string">pseudopotential</field>
   <set>
    <rc><c>  24</c><c>N </c><c>     14.00100000</c><c>      5.00000000</c><c>  PAW_PBE N 08Apr2002                   </c></rc>
    <rc><c>  32</c><c>Si</c><c>     28.08500000</c><c>      4.00000000</c><c>  PAW_PBE Si 05Jan2001                  </c></rc>
   </set>
  </array>
 </atominfo>
 <structure name="initialpos" >
  <crystal>
   <varray name="basis" >
    <v>       8.83464587       0.00000000       0.00000000 </v>
    <v>       0.00000000       8.83464587       0.00000000 </v>
    <v>       0.00000000       0.00000000       8.83464587 </v>
   </varray>
   <i name="volume">    689.55266003 </i>
   <varray name="rec_basis" >
    <v>       0.11319073      -0.00000000       0.00000000 </v>
    <v>      -0.00000000       0.11319073       0.00000000 </v>
    <v>      -0.00000000      -0.00000000       0.11319073 </v>
   </varray>
  </crystal>
  <varray name="positions" >
   <v>       0.87500000       0.87500000       0.12500000 </v>
   <v>       0.37500000       0.12500000       0.37500000 </v>
   <v>       0.62500000       0.87500000       0.37500000 </v>
   <v>       0.12500000       0.12500000       0.12500000 </v>
   <v>       0.25000000       0.75000000       0.25000000 </v>
   <v>       0.00000000       0.00000000       0.50000000 </v>
   <v>       0.87500000       0.37500000       0.62500000 </v>
   <v>       0.37500000       0.62500000       0.87500000 </v>
   <v>       0.62500000       0.37500000       0.87500000 </v>
   <v>       0.12500000       0.62500000       0.62500000 </v>
   <v>       0.25000000       0.25000000       0.75000000 </v>
   <v>       0.00000000       0.50000000       0.00000000 </v>
   <v>       0.37500000       0.87500000       0.62500000 </v>
   <v>       0.87500000       0.12500000       0.87500000 </v>
   <v>       0.12500000       0.87500000       0.87500000 </v>
   <v>       0.62500000       0.12500000       0.62500000 </v>
   <v>       0.75000000       0.75000000       0.75000000 </v>
   <v>       0.50000000       0.00000000       0.00000000 </v>
   <v>       0.37500000       0.37500000       0.12500000 </v>
   <v>       0.87500000       0.62500000       0.37500000 </v>
   <v>       0.12500000       0.37500000       0.37500000 </v>
   <v>       0.62500000       0.62500000       0.12500000 </v>
   <v>       0.75000000       0.25000000       0.25000000 </v>
   <v>       0.50000000       0.50000000       0.50000000 </v>
   <v>       0.37630293       0.37630293       0.37630293 </v>
   <v>       0.87369707       0.12630293       0.12630293 </v>
   <v>       0.62630293       0.12630293       0.37369707 </v>
   <v>       0.12630293       0.87369707       0.12630293 </v>
   <v>       0.12369707       0.12369707       0.37630293 </v>
   <v>       0.12369707       0.37630293       0.12369707 </v>
   <v>       0.37369707       0.87369707       0.37369707 </v>
   <v>       0.37630293       0.12369707       0.12369707 </v>
   <v>       0.37630293       0.87630293       0.87630293 </v>
   <v>       0.87369707       0.62630293       0.62630293 </v>
   <v>       0.62630293       0.62630293       0.87369707 </v>
   <v>       0.12630293       0.37369707       0.62630293 </v>
   <v>       0.12369707       0.62369707       0.87630293 </v>
   <v>       0.12369707       0.87630293       0.62369707 </v>
   <v>       0.37369707       0.37369707       0.87369707 </v>
   <v>       0.37630293       0.62369707       0.62369707 </v>
   <v>       0.87630293       0.37630293       0.87630293 </v>
   <v>       0.37369707       0.12630293       0.62630293 </v>
   <v>       0.12630293       0.12630293       0.87369707 </v>
   <v>       0.62630293       0.87369707       0.62630293 </v>
   <v>       0.62369707       0.12369707       0.87630293 </v>
   <v>       0.62369707       0.37630293       0.62369707 </v>
   <v>       0.87369707       0.87369707       0.87369707 </v>
   <v>       0.87630293       0.12369707       0.62369707 </v>
   <v>       0.87630293       0.87630293       0.37630293 </v>
   <v>       0.37369707       0.62630293       0.12630293 </v>
   <v>       0.12630293       0.62630293       0.37369707 </v>
   <v>       0.62630293       0.37369707       0.12630293 </v>
   <v>       0.62369707       0.62369707       0.37630293 </v>
   <v>       0.62369707       0.87630293       0.12369707 </v>
   <v>       0.87369707       0.37369707       0.37369707 </v>
   <v>       0.87630293       0.62369707       0.12369707 </v>
  </varray>
 </structure>
 <calculation>
  <scstep>
   <time name="dav">    8.47    8.47</time>
   <time name="total">    8.57    8.58</time>
   <energy>
    <i name="alphaZ">    282.86232134 </i>
    <i name="ewald">  -9415.28530675 </i>
    <i name="hartreedc">  -1584.42677167 </i>
    <i name="XCdc">    182.39777480 </i>
    <i name="pawpsdc">   7738.34714636 </i>
    <i name="pawaedc">  -7203.94574617 </i>
    <i name="eentropy">      0.00235315 </i>
    <i name="bandstr">   1217.65809417 </i>
    <i name="atom">   9645.50393724 </i>
    <i name="e_fr_energy">    863.11380248 </i>
    <i name="e_wo_entrp">    863.11144933 </i>
    <i name="e_0_energy">    863.11321419 </i>
   </energy>
  </scstep>
  <scstep>
   <time name="dav">    9.97    9.97</time>
   <time name="total">    9.97    9.98</time>
   <energy>
    <i name="e_fr_energy">   -241.31865743 </i>
    <i name="e_wo_entrp">   -241.31311766 </i>
    <i name="e_0_energy">   -241.31727249 </i>
   </energy>
  </scstep>
  <scstep>
   <time name="dav">   10.08   10.09</time>
   <time name="total">   10.09   10.09</time>
   <energy>
    <i name="e_fr_energy">   -351.57859482 </i>
    <i name="e_wo_entrp">   -351.57758826 </i>
    <i name="e_0_energy">   -351.57834318 </i>
   </energy>
  </scstep>
  <scstep>
   <time name="dav">   10.27   10.27</time>
   <time name="total">   10.27   10.27</time>
   <energy>
    <i name="e_fr_energy">   -355.86745834 </i>
    <i name="e_wo_entrp">   -355.86124847 </i>
    <i name="e_0_energy">   -355.86590587 </i>
   </energy>
  </scstep>
  <scstep>
   <time name="dav">   10.00   10.00</time>
   <time name="total">   10.37   10.38</time>
   <energy>
    <i name="e_fr_energy">   -355.99645206 </i>
    <i name="e_wo_entrp">   -355.99060616 </i>
    <i name="e_0_energy">   -355.99499059 </i>
   </energy>
  </scstep>
  <scstep>
   <time name="diag">    1.02    1.02</time>
   <time name="diis">    5.33    5.33</time>
   <time name="orth">    0.12    0.12</time>
   <time name="total">    6.98    6.98</time>
   <energy>
    <i name="e_fr_energy">   -331.27802319 </i>
    <i name="e_wo_entrp">   -331.28413294 </i>
    <i name="e_0_energy">   -331.27955062 </i>
   </energy>
  </scstep>
  <scstep>
   <time name="diag">    3.89    3.95</time>
   <time name="diis">    7.53    7.90</time>
   <time name="orth">    3.14    3.65</time>
   <time name="total">   17.93   19.44</time>
   <energy>
    <i name="e_fr_energy">   -330.12933347 </i>
    <i name="e_wo_entrp">   -330.13670526 </i>
    <i name="e_0_energy">   -330.13117642 </i>
   </energy>
  </scstep>
  <scstep>
   <time name="diag">    6.98    6.99</time>
   <time name="diis">    7.51    7.52</time>
   <time name="orth">    4.77    4.78</time>
   <time name="total">   22.09   23.00</time>
   <energy>
    <i name="e_fr_energy">   -330.03104615 </i>
    <i name="e_wo_entrp">   -330.03419971 </i>
    <i name="e_0_energy">   -330.03183454 </i>
   </energy>
  </scstep>
  <scstep>
   <time name="diag">    3.95    4.96</time>
   <time name="diis">    5.31    6.64</time>
   <time name="orth">    1.47    1.73</time>
   <time name="total">   12.30   15.03</time>
   <energy>
    <i name="e_fr_energy">   -329.78778717 </i>
    <i name="e_wo_entrp">   -329.79369823 </i>
    <i name="e_0_energy">   -329.78926493 </i>
   </energy>
  </scstep>
  <scstep>
   <time name="diag">    3.33    3.33</time>
   <time name="diis">    7.26    7.27</time>
   <time name="orth">    0.52    0.52</time>
   <time name="total">   12.39   12.41</time>
   <energy>
    <i name="e_fr_energy">   -329.79074375 </i>
    <i name="e_wo_entrp">   -329.79688283 </i>
    <i name="e_0_energy">   -329.79227852 </i>
   </energy>
  </scstep>
  <scstep>
   <time name="diag">    4.59    5.24</time>
   <time name="diis">    5.87    6.47</time>
   <time name="orth">    3.62    3.93</time>
   <time name="total">   16.71   18.46</time>
   <energy>
    <i name="e_fr_energy">   -329.79152340 </i>
    <i name="e_wo_entrp">   -329.79761604 </i>
    <i name="e_0_energy">   -329.79304656 </i>
   </energy>
  </scstep>
  <scstep>
   <time name="diag">    5.09    5.34</time>
   <time name="diis">    6.19    6.19</time>
   <time name="orth">    3.00    3.03</time>
   <time name="total">   17.15   18.22</time>
   <energy>
    <i name="e_fr_energy">   -329.79163608 </i>
    <i name="e_wo_entrp">   -329.79775784 </i>
    <i name="e_0_energy">   -329.79316652 </i>
   </energy>
  </scstep>
  <scstep>
   <time name="diag">    3.14    3.14</time>
   <time name="diis">    3.41    3.41</time>
   <time name="orth">    0.12    0.12</time>
   <time name="total">    8.05    8.14</time>
   <energy>
    <i name="e_fr_energy">   -329.79153402 </i>
    <i name="e_wo_entrp">   -329.79763668 </i>
    <i name="e_0_energy">   -329.79305968 </i>
   </energy>
  </scstep>
  <scstep>
   <time name="diag">    1.03    1.03</time>
   <time name="diis">    3.35    3.36</time>
   <time name="orth">    0.12    0.12</time>
   <time name="total">    4.60    4.61</time>
   <energy>
    <i name="alphaZ">    282.86232134 </i>
    <i name="ewald">  -9415.28530675 </i>
    <i name="hartreedc">  -1812.96101855 </i>
    <i name="XCdc">    197.53421704 </i>
    <i name="pawpsdc">  18457.79338828 </i>
    <i name="pawaedc"> -17924.24304485 </i>
    <i name="eentropy">      0.00609312 </i>
    <i name="bandstr">    238.99786938 </i>
    <i name="atom">   9645.50393724 </i>
    <i name="e_fr_energy">   -329.79154374 </i>
    <i name="e_wo_entrp">   -329.79763686 </i>
    <i name="e_0_energy">   -329.79306702 </i>
   </energy>
  </scstep>
  <structure>
   <crystal>
    <varray name="basis" >
     <v>       8.83464587       0.00000000       0.00000000 </v>
     <v>       0.00000000       8.83464587       0.00000000 </v>
     <v>       0.00000000       0.00000000       8.83464587 </v>
    </varray>
    <i name="volume">    689.55266003 </i>
    <varray name="rec_basis" >
     <v>       0.11319073      -0.00000000       0.00000000 </v>
     <v>      -0.00000000       0.11319073       0.00000000 </v>
     <v>      -0.00000000      -0.00000000       0.11319073 </v>
    </varray>
   </crystal>
   <varray name="positions" >
    <v>       0.87500000       0.87500000       0.12500000 </v>
    <v>       0.37500000       0.12500000       0.37500000 </v>
    <v>       0.62500000       0.87500000       0.37500000 </v>
    <v>       0.12500000       0.12500000       0.12500000 </v>
    <v>       0.25000000       0.75000000       0.25000000 </v>
    <v>       0.00000000       0.00000000       0.50000000 </v>
    <v>       0.87500000       0.37500000       0.62500000 </v>
    <v>       0.37500000       0.62500000       0.87500000 </v>
    <v>       0.62500000       0.37500000       0.87500000 </v>
    <v>       0.12500000       0.62500000       0.62500000 </v>
    <v>       0.25000000       0.25000000       0.75000000 </v>
    <v>       0.00000000       0.50000000       0.00000000 </v>
    <v>       0.37500000       0.87500000       0.62500000 </v>
    <v>       0.87500000       0.12500000       0.87500000 </v>
    <v>       0.12500000       0.87500000       0.87500000 </v>
    <v>       0.62500000       0.12500000       0.62500000 </v>
    <v>       0.75000000       0.75000000       0.75000000 </v>
    <v>       0.50000000       0.00000000       0.00000000 </v>
    <v>       0.37500000       0.37500000       0.12500000 </v>
    <v>       0.87500000       0.62500000       0.37500000 </v>
    <v>       0.12500000       0.37500000       0.37500000 </v>
    <v>       0.62500000       0.62500000       0.12500000 </v>
    <v>       0.75000000       0.25000000       0.25000000 </v>
    <v>       0.50000000       0.50000000       0.50000000 </v>
    <v>       0.37630293       0.37630293       0.37630293 </v>
    <v>       0.87369707       0.12630293       0.12630293 </v>
    <v>       0.62630293       0.12630293       0.37369707 </v>
    <v>       0.12630293       0.87369707       0.12630293 </v>
    <v>       0.12369707       0.12369707       0.37630293 </v>
    <v>       0.12369707       0.37630293       0.12369707 </v>
    <v>       0.37369707       0.87369707       0.37369707 </v>
    <v>       0.37630293       0.12369707       0.12369707 </v>
    <v>       0.37630293       0.87630293       0.87630293 </v>
    <v>       0.87369707       0.62630293       0.62630293 </v>
    <v>       0.62630293       0.62630293       0.87369707 </v>
    <v>       0.12630293       0.37369707       0.62630293 </v>
    <v>       0.12369707       0.62369707       0.87630293 </v>
    <v>       0.12369707       0.87630293       0.62369707 </v>
    <v>       0.37369707       0.37369707       0.87369707 </v>
    <v>       0.37630293       0.62369707       0.62369707 </v>
    <v>       0.87630293       0.37630293       0.87630293 </v>
    <v>       0.37369707       0.12630293       0.62630293 </v>
    <v>       0.12630293       0.12630293       0.87369707 </v>
    <v>       0.62630293       0.87369707       0.62630293 </v>
    <v>       0.62369707       0.12369707       0.87630293 </v>
    <v>       0.62369707       0.37630293       0.62369707 </v>
    <v>       0.87369707       0.87369707       0.87369707 </v>
    <v>       0.87630293       0.12369707       0.62369707 </v>
    <v>       0.87630293       0.87630293       0.37630293 </v>
    <v>       0.37369707       0.62630293       0.12630293 </v>
    <v>       0.12630293       0.62630293       0.37369707 </v>
    <v>       0.62630293       0.37369707       0.12630293 </v>
    <v>       0.62369707       0.62369707       0.37630293 </v>
    <v>       0.62369707       0.87630293       0.12369707 </v>
    <v>       0.87369707       0.37369707       0.37369707 </v>
    <v>       0.87630293       0.62369707       0.12369707 </v>
   </varray>
  </structure>
  <varray name="forces" >
   <v>      -0.00000000      -0.00000000      -0.00000000 </v>
   <v>      -0.00000000      -0.00000000      -0.00000000 </v>
   <v>      -0.00000000      -0.00000000      -0.00000000 </v>
   <v>      -0.00000000      -0.00000000      -0.00000000 </v>
   <v>      -0.00000000      -0.00000000      -0.00000000 </v>
   <v>      -0.00000000      -0.00000000      -0.00000000 </v>
   <v>      -0.00000000      -0.00000000      -0.00000000 </v>
   <v>      -0.00000000      -0.00000000      -0.00000000 </v>
   <v>      -0.00000000      -0.00000000      -0.00000000 </v>
   <v>      -0.00000000      -0.00000000      -0.00000000 </v>
   <v>      -0.00000000      -0.00000000      -0.00000000 </v>
   <v>      -0.00000000      -0.00000000      -0.00000000 </v>
   <v>      -0.00000000      -0.00000000      -0.00000000 </v>
   <v>      -0.00000000      -0.00000000      -0.00000000 </v>
   <v>      -0.00000000      -0.00000000      -0.00000000 </v>
   <v>      -0.00000000      -0.00000000      -0.00000000 </v>
   <v>      -0.00000000      -0.00000000      -0.00000000 </v>
   <v>      -0.00000000      -0.00000000      -0.00000000 </v>
   <v>      -0.00000000      -0.00000000      -0.00000000 </v>
   <v>      -0.00000000      -0.00000000      -0.00000000 </v>
   <v>      -0.00000000      -0.00000000      -0.00000000 </v>
   <v>      -0.00000000      -0.00000000      -0.00000000 </v>
   <v>      -0.00000000      -0.00000000      -0.00000000 </v>
   <v>      -0.00000000      -0.00000000      -0.00000000 </v>
   <v>      -0.10853925      -0.10853925      -0.10853925 </v>
   <v>       0.10853925      -0.10853925      -0.10853925 </v>
   <v>      -0.10853925      -0.10853925       0.10853925 </v>
   <v>      -0.10853925       0.10853925      -0.10853925 </v>
   <v>       0.10853925       0.10853925      -0.10853925 </v>
   <v>       0.10853925      -0.10853925       0.10853925 </v>
   <v>       0.10853925       0.10853925       0.10853925 </v>
   <v>      -0.10853925       0.10853925       0.10853925 </v>
   <v>      -0.10853925      -0.10853925      -0.10853925 </v>
   <v>       0.10853925      -0.10853925      -0.10853925 </v>
   <v>      -0.10853925      -0.10853925       0.10853925 </v>
   <v>      -0.10853925       0.10853925      -0.10853925 </v>
   <v>       0.10853925       0.10853925      -0.10853925 </v>
   <v>       0.10853925      -0.10853925       0.10853925 </v>
   <v>       0.10853925       0.10853925       0.10853925 </v>
   <v>      -0.10853925       0.10853925       0.10853925 </v>
   <v>      -0.10853925      -0.10853925      -0.10853925 </v>
   <v>       0.10853925      -0.10853925      -0.10853925 </v>
   <v>      -0.10853925      -0.10853925       0.10853925 </v>
   <v>      -0.10853925       0.10853925      -0.10853925 </v>
   <v>       0.10853925       0.10853925      -0.10853925 </v>
   <v>       0.10853925      -0.10853925       0.10853925 </v>
   <v>       0.10853925       0.10853925       0.10853925 </v>
   <v>      -0.10853925       0.10853925       0.10853925 </v>
   <v>      -0.10853925      -0.10853925      -0.10853925 </v>
   <v>       0.10853925      -0.10853925      -0.10853925 </v>
   <v>      -0.10853925      -0.10853925       0.10853925 </v>
   <v>      -0.10853925       0.10853925      -0.10853925 </v>
   <v>       0.10853925       0.10853925      -0.10853925 </v>
   <v>       0.10853925      -0.10853925       0.10853925 </v>
   <v>       0.10853925       0.10853925       0.10853925 </v>
   <v>      -0.10853925       0.10853925       0.10853925 </v>
  </varray>
  <varray name="stress" >
   <v>     -84.66994739      -0.00000000      -0.00000000 </v>
   <v>      -0.00000000     -84.66994739      -0.00000000 </v>
   <v>      -0.00000000      -0.00000000     -84.66994739 </v>
  </varray>
  <energy>
   <i name="e_fr_energy">   -329.79154374 </i>
   <i name="e_wo_entrp">   -329.79306702 </i>
   <i name="e_0_energy">      0.00609312 </i>
  </energy>
  <time name="totalsc">  178.90  187.03</time>
 </calculation>
 <calculation>
  <scstep>
   <time name="dav">    9.35    9.35</time>
   <time name="total">    9.82    9.82</time>
   <energy>
    <i name="alphaZ">    282.86232134 </i>
    <i name="ewald">  -9413.61208276 </i>
    <i name="hartreedc">  -1816.32321246 </i>
    <i name="XCdc">    197.54291427 </i>
    <i name="pawpsdc">  18458.74878271 </i>
    <i name="pawaedc"> -17925.19894524 </i>
    <i name="eentropy">      0.00448521 </i>
    <i name="bandstr">    240.66588613 </i>
    <i name="atom">   9645.50393724 </i>
    <i name="e_fr_energy">   -329.80591356 </i>
    <i name="e_wo_entrp">   -329.81039877 </i>
    <i name="e_0_energy">   -329.80703486 </i>
   </energy>
  </scstep>
  <scstep>
   <time name="diag">    3.31    3.57</time>
   <time name="diis">    5.61    6.15</time>
   <time name="orth">    2.14    2.62</time>
   <time name="total">   13.90   16.42</time>
   <energy>
    <i name="e_fr_energy">   -329.81289930 </i>
    <i name="e_wo_entrp">   -329.81719720 </i>
    <i name="e_0_energy">   -329.81397378 </i>
   </energy>
  </scstep>
  <scstep>
   <time name="diag">    6.44    7.12</time>
   <time name="diis">    5.84    6.55</time>
   <time name="orth">    0.19    0.36</time>
   <time name="total">   13.93   15.65</time>
   <energy>
    <i name="e_fr_energy">   -329.81185860 </i>
    <i name="e_wo_entrp">   -329.81596746 </i>
    <i name="e_0_energy">   -329.81288581 </i>
   </energy>
  </scstep>
  <scstep>
   <time name="diag">    5.48    5.56</time>
   <time name="diis">    5.48    5.48</time>
   <time name="orth">    0.12    0.12</time>
   <time name="total">   12.40   12.66</time>
   <energy>
    <i name="e_fr_energy">   -329.81147896 </i>
    <i name="e_wo_entrp">   -329.81537253 </i>
    <i name="e_0_energy">   -329.81245235 </i>
   </energy>
  </scstep>
  <scstep>
   <time name="diag">    1.02    1.02</time>
   <time name="diis">    4.50    4.50</time>
   <time name="orth">    0.12    0.12</time>
   <time name="total">    6.11    6.11</time>
   <energy>
    <i name="e_fr_energy">   -329.81127655 </i>
    <i name="e_wo_entrp">   -329.81516243 </i>
    <i name="e_0_energy">   -329.81224802 </i>
   </energy>
  </scstep>
  <scstep>
   <time name="diag">    1.01    1.02</time>
   <time name="diis">    3.90    3.90</time>
   <time name="orth">    0.12    0.12</time>
   <time name="total">    5.13    5.14</time>
   <energy>
    <i name="alphaZ">    282.86232134 </i>
    <i name="ewald">  -9413.61208276 </i>
    <i name="hartreedc">  -1815.69968905 </i>
    <i name="XCdc">    197.51134933 </i>
    <i name="pawpsdc">  18396.08391567 </i>
    <i name="pawaedc"> -17862.50669523 </i>
    <i name="eentropy">      0.00393470 </i>
    <i name="bandstr">    240.04172694 </i>
    <i name="atom">   9645.50393724 </i>
    <i name="e_fr_energy">   -329.81128182 </i>
    <i name="e_wo_entrp">   -329.81521652 </i>
    <i name="e_0_energy">   -329.81226550 </i>
   </energy>
  </scstep>
  <structure>
   <crystal>
    <varray name="basis" >
     <v>       8.83464587       0.00000000       0.00000000 </v>
     <v>       0.00000000       8.83464587       0.00000000 </v>
     <v>       0.00000000       0.00000000       8.83464587 </v>
    </varray>
    <i name="volume">    689.55266003 </i>
    <varray name="rec_basis" >
     <v>       0.11319073      -0.00000000       0.00000000 </v>
     <v>      -0.00000000       0.11319073       0.00000000 </v>
     <v>      -0.00000000      -0.00000000       0.11319073 </v>
    </varray>
   </crystal>
   <varray name="positions" >
    <v>       0.87500000       0.87500000       0.12500000 </v>
    <v>       0.37500000       0.12500000       0.37500000 </v>
    <v>       0.62500000       0.87500000       0.37500000 </v>
    <v>       0.12500000       0.12500000       0.12500000 </v>
    <v>       0.25000000       0.75000000       0.25000000 </v>
    <v>      -0.00000000      -0.00000000       0.50000000 </v>
    <v>       0.87500000       0.37500000       0.62500000 </v>
    <v>       0.37500000       0.62500000       0.87500000 </v>
    <v>       0.62500000       0.37500000       0.87500000 </v>
    <v>       0.12500000       0.62500000       0.62500000 </v>
    <v>       0.25000000       0.25000000       0.75000000 </v>
    <v>      -0.00000000       0.50000000      -0.00000000 </v>
    <v>       0.37500000       0.87500000       0.62500000 </v>
    <v>       0.87500000       0.12500000       0.87500000 </v>
    <v>       0.12500000       0.87500000       0.87500000 </v>
    <v>       0.62500000       0.12500000       0.62500000 </v>
    <v>       0.75000000       0.75000000       0.75000000 </v>
    <v>       0.50000000      -0.00000000      -0.00000000 </v>
    <v>       0.37500000       0.37500000       0.12500000 </v>
    <v>       0.87500000       0.62500000       0.37500000 </v>
    <v>       0.12500000       0.37500000       0.37500000 </v>
    <v>       0.62500000       0.62500000       0.12500000 </v>
    <v>       0.75000000       0.25000000       0.25000000 </v>
    <v>       0.50000000       0.50000000       0.50000000 </v>
    <v>       0.37571024       0.37571024       0.37571024 </v>
    <v>       0.87428976       0.12571024       0.12571024 </v>
    <v>       0.62571024       0.12571024       0.37428976 </v>
    <v>       0.12571024       0.87428976       0.12571024 </v>
    <v>       0.12428976       0.12428976       0.37571024 </v>
    <v>       0.12428976       0.37571024       0.12428976 </v>
    <v>       0.37428976       0.87428976       0.37428976 </v>
    <v>       0.37571024       0.12428976       0.12428976 </v>
    <v>       0.37571024       0.87571024       0.87571024 </v>
    <v>       0.87428976       0.62571024       0.62571024 </v>
    <v>       0.62571024       0.62571024       0.87428976 </v>
    <v>       0.12571024       0.37428976       0.62571024 </v>
    <v>       0.12428976       0.62428976       0.87571024 </v>
    <v>       0.12428976       0.87571024       0.62428976 </v>
    <v>       0.37428976       0.37428976       0.87428976 </v>
    <v>       0.37571024       0.62428976       0.62428976 </v>
    <v>       0.87571024       0.37571024       0.87571024 </v>
    <v>       0.37428976       0.12571024       0.62571024 </v>
    <v>       0.12571024       0.12571024       0.87428976 </v>
    <v>       0.62571024       0.87428976       0.62571024 </v>
    <v>       0.62428976       0.12428976       0.87571024 </v>
    <v>       0.62428976       0.37571024       0.62428976 </v>
    <v>       0.87428976       0.87428976       0.87428976 </v>
    <v>       0.87571024       0.12428976       0.62428976 </v>
    <v>       0.87571024       0.87571024       0.37571024 </v>
    <v>       0.37428976       0.62571024       0.12571024 </v>
    <v>       0.12571024       0.62571024       0.37428976 </v>
    <v>       0.62571024       0.37428976       0.12571024 </v>
    <v>       0.62428976       0.62428976       0.37571024 </v>
    <v>       0.62428976       0.87571024       0.12428976 </v>
    <v>       0.87428976       0.37428976       0.37428976 </v>
    <v>       0.87571024       0.62428976       0.12428976 </v>
   </varray>
  </structure>
  <varray name="forces" >
   <v>       0.00000000       0.00000000       0.00000000 </v>
   <v>       0.00000000       0.00000000       0.00000000 </v>
   <v>       0.00000000       0.00000000       0.00000000 </v>
   <v>       0.00000000       0.00000000       0.00000000 </v>
   <v>       0.00000000       0.00000000       0.00000000 </v>
   <v>       0.00000000       0.00000000       0.00000000 </v>
   <v>       0.00000000       0.00000000       0.00000000 </v>
   <v>       0.00000000       0.00000000       0.00000000 </v>
   <v>       0.00000000       0.00000000       0.00000000 </v>
   <v>       0.00000000       0.00000000       0.00000000 </v>
   <v>       0.00000000       0.00000000       0.00000000 </v>
   <v>       0.00000000       0.00000000       0.00000000 </v>
   <v>       0.00000000       0.00000000       0.00000000 </v>
   <v>       0.00000000       0.00000000       0.00000000 </v>
   <v>       0.00000000       0.00000000       0.00000000 </v>
   <v>       0.00000000       0.00000000       0.00000000 </v>
   <v>       0.00000000       0.00000000       0.00000000 </v>
   <v>       0.00000000       0.00000000       0.00000000 </v>
   <v>       0.00000000       0.00000000       0.00000000 </v>
   <v>       0.00000000       0.00000000       0.00000000 </v>
   <v>       0.00000000       0.00000000       0.00000000 </v>
   <v>       0.00000000       0.00000000       0.00000000 </v>
   <v>       0.00000000       0.00000000       0.00000000 </v>
   <v>       0.00000000       0.00000000       0.00000000 </v>
   <v>       0.03174122       0.03174122       0.03174122 </v>
   <v>      -0.03174122       0.03174122       0.03174122 </v>
   <v>       0.03174122       0.03174122      -0.03174122 </v>
   <v>       0.03174122      -0.03174122       0.03174122 </v>
   <v>      -0.03174122      -0.03174122       0.03174122 </v>
   <v>      -0.03174122       0.03174122      -0.03174122 </v>
   <v>      -0.03174122      -0.03174122      -0.03174122 </v>
   <v>       0.03174122      -0.03174122      -0.03174122 </v>
   <v>       0.03174122       0.03174122       0.03174122 </v>
   <v>      -0.03174122       0.03174122       0.03174122 </v>
   <v>       0.03174122       0.03174122      -0.03174122 </v>
   <v>       0.03174122      -0.03174122       0.03174122 </v>
   <v>      -0.03174122      -0.03174122       0.03174122 </v>
   <v>      -0.03174122       0.03174122      -0.03174122 </v>
   <v>      -0.03174122      -0.03174122      -0.03174122 </v>
   <v>       0.03174122      -0.03174122      -0.03174122 </v>
   <v>       0.03174122       0.03174122       0.03174122 </v>
   <v>      -0.03174122       0.03174122       0.03174122 </v>
   <v>       0.03174122       0.03174122      -0.03174122 </v>
   <v>       0.03174122      -0.03174122       0.03174122 </v>
   <v>      -0.03174122      -0.03174122       0.03174122 </v>
   <v>      -0.03174122       0.03174122      -0.03174122 </v>
   <v>      -0.03174122      -0.03174122      -0.03174122 </v>
   <v>       0.03174122      -0.03174122      -0.03174122 </v>
   <v>       0.03174122       0.03174122       0.03174122 </v>
   <v>      -0.03174122       0.03174122       0.03174122 </v>
   <v>       0.03174122       0.03174122      -0.03174122 </v>
   <v>       0.03174122      -0.03174122       0.03174122 </v>
   <v>      -0.03174122      -0.03174122       0.03174122 </v>
   <v>      -0.03174122       0.03174122      -0.03174122 </v>
   <v>      -0.03174122      -0.03174122      -0.03174122 </v>
   <v>       0.03174122      -0.03174122      -0.03174122 </v>
  </varray>
  <varray name="stress" >
   <v>     -83.21934822      -0.00000000      -0.00000000 </v>
   <v>      -0.00000000     -83.21934822      -0.00000000 </v>
   <v>      -0.00000000      -0.00000000     -83.21934822 </v>
  </varray>
  <energy>
   <i name="e_fr_energy">   -329.81128182 </i>
   <i name="e_wo_entrp">   -329.81226550 </i>
   <i name="e_0_energy">      0.00393470 </i>
  </energy>
  <time name="totalsc">   72.77   77.30</time>
 </calculation>
 <calculation>
  <scstep>
   <time name="dav">    8.88    8.89</time>
   <time name="total">    9.36    9.37</time>
   <energy>
    <i name="alphaZ">    282.86232134 </i>
    <i name="ewald">  -9414.03376161 </i>
    <i name="hartreedc">  -1815.02625907 </i>
    <i name="XCdc">    197.51386133 </i>
    <i name="pawpsdc">  18397.47586327 </i>
    <i name="pawaedc"> -17863.89901109 </i>
    <i name="eentropy">      0.00430275 </i>
    <i name="bandstr">    239.78604246 </i>
    <i name="atom">   9645.50393724 </i>
    <i name="e_fr_energy">   -329.81270339 </i>
    <i name="e_wo_entrp">   -329.81700613 </i>
    <i name="e_0_energy">   -329.81377907 </i>
   </energy>
  </scstep>
  <scstep>
   <time name="diag">    1.00    1.00</time>
   <time name="diis">    5.44    5.44</time>
   <time name="orth">    0.12    0.12</time>
   <time name="total">    7.04    7.04</time>
   <energy>
    <i name="e_fr_energy">   -329.81304293 </i>
    <i name="e_wo_entrp">   -329.81737962 </i>
    <i name="e_0_energy">   -329.81412711 </i>
   </energy>
  </scstep>
  <scstep>
   <time name="diag">    1.03    1.03</time>
   <time name="diis">    3.49    3.49</time>
   <time name="orth">    0.12    0.12</time>
   <time name="total">    4.73    4.73</time>
   <energy>
    <i name="alphaZ">    282.86232134 </i>
    <i name="ewald">  -9414.03376161 </i>
    <i name="hartreedc">  -1815.18140096 </i>
    <i name="XCdc">    197.52034243 </i>
    <i name="pawpsdc">  18401.97063912 </i>
    <i name="pawaedc"> -17868.39785059 </i>
    <i name="eentropy">      0.00438611 </i>
    <i name="bandstr">    239.93842143 </i>
    <i name="atom">   9645.50393724 </i>
    <i name="e_fr_energy">   -329.81296550 </i>
    <i name="e_wo_entrp">   -329.81735160 </i>
    <i name="e_0_energy">   -329.81406202 </i>
   </energy>
  </scstep>
  <structure>
   <crystal>
    <varray name="basis" >
     <v>       8.83464587       0.00000000       0.00000000 </v>
     <v>       0.00000000       8.83464587       0.00000000 </v>
     <v>       0.00000000       0.00000000       8.83464587 </v>
    </varray>
    <i name="volume">    689.55266003 </i>
    <varray name="rec_basis" >
     <v>       0.11319073      -0.00000000       0.00000000 </v>
     <v>      -0.00000000       0.11319073       0.00000000 </v>
     <v>      -0.00000000      -0.00000000       0.11319073 </v>
    </varray>
   </crystal>
   <varray name="positions" >
    <v>       0.87500000       0.87500000       0.12500000 </v>
    <v>       0.37500000       0.12500000       0.37500000 </v>
    <v>       0.62500000       0.87500000       0.37500000 </v>
    <v>       0.12500000       0.12500000       0.12500000 </v>
    <v>       0.25000000       0.75000000       0.25000000 </v>
    <v>      -0.00000000      -0.00000000       0.50000000 </v>
    <v>       0.87500000       0.37500000       0.62500000 </v>
    <v>       0.37500000       0.62500000       0.87500000 </v>
    <v>       0.62500000       0.37500000       0.87500000 </v>
    <v>       0.12500000       0.62500000       0.62500000 </v>
    <v>       0.25000000       0.25000000       0.75000000 </v>
    <v>      -0.00000000       0.50000000      -0.00000000 </v>
    <v>       0.37500000       0.87500000       0.62500000 </v>
    <v>       0.87500000       0.12500000       0.87500000 </v>
    <v>       0.12500000       0.87500000       0.87500000 </v>
    <v>       0.62500000       0.12500000       0.62500000 </v>
    <v>       0.75000000       0.75000000       0.75000000 </v>
    <v>       0.50000000      -0.00000000      -0.00000000 </v>
    <v>       0.37500000       0.37500000       0.12500000 </v>
    <v>       0.87500000       0.62500000       0.37500000 </v>
    <v>       0.12500000       0.37500000       0.37500000 </v>
    <v>       0.62500000       0.62500000       0.12500000 </v>
    <v>       0.75000000       0.25000000       0.25000000 </v>
    <v>       0.50000000       0.50000000       0.50000000 </v>
    <v>       0.37584058       0.37584058       0.37584058 </v>
    <v>       0.87415942       0.12584058       0.12584058 </v>
    <v>       0.62584058       0.12584058       0.37415942 </v>
    <v>       0.12584058       0.87415942       0.12584058 </v>
    <v>       0.12415942       0.12415942       0.37584058 </v>
    <v>       0.12415942       0.37584058       0.12415942 </v>
    <v>       0.37415942       0.87415942       0.37415942 </v>
    <v>       0.37584058       0.12415942       0.12415942 </v>
    <v>       0.37584058       0.87584058       0.87584058 </v>
    <v>       0.87415942       0.62584058       0.62584058 </v>
    <v>       0.62584058       0.62584058       0.87415942 </v>
    <v>       0.12584058       0.37415942       0.62584058 </v>
    <v>       0.12415942       0.62415942       0.87584058 </v>
    <v>       0.12415942       0.87584058       0.62415942 </v>
    <v>       0.37415942       0.37415942       0.87415942 </v>
    <v>       0.37584058       0.62415942       0.62415942 </v>
    <v>       0.87584058       0.37584058       0.87584058 </v>
    <v>       0.37415942       0.12584058       0.62584058 </v>
    <v>       0.12584058       0.12584058       0.87415942 </v>
    <v>       0.62584058       0.87415942       0.62584058 </v>
    <v>       0.62415942       0.12415942       0.87584058 </v>
    <v>       0.62415942       0.37584058       0.62415942 </v>
    <v>       0.87415942       0.87415942       0.87415942 </v>
    <v>       0.87584058       0.12415942       0.62415942 </v>
    <v>       0.87584058       0.87584058       0.37584058 </v>
    <v>       0.37415942       0.62584058       0.12584058 </v>
    <v>       0.12584058       0.62584058       0.37415942 </v>
    <v>       0.62584058       0.37415942       0.12584058 </v>
    <v>       0.62415942       0.62415942       0.37584058 </v>
    <v>       0.62415942       0.87584058       0.12415942 </v>
    <v>       0.87415942       0.37415942       0.37415942 </v>
    <v>       0.87584058       0.62415942       0.12415942 </v>
   </varray>
  </structure>
  <varray name="forces" >
   <v>       0.00000000      -0.00000000      -0.00000000 </v>
   <v>       0.00000000      -0.00000000      -0.00000000 </v>
   <v>       0.00000000      -0.00000000      -0.00000000 </v>
   <v>       0.00000000      -0.00000000      -0.00000000 </v>
   <v>       0.00000000      -0.00000000      -0.00000000 </v>
   <v>       0.00000000      -0.00000000      -0.00000000 </v>
   <v>       0.00000000      -0.00000000      -0.00000000 </v>
   <v>       0.00000000      -0.00000000      -0.00000000 </v>
   <v>       0.00000000      -0.00000000      -0.00000000 </v>
   <v>       0.00000000      -0.00000000      -0.00000000 </v>
   <v>       0.00000000      -0.00000000      -0.00000000 </v>
   <v>       0.00000000      -0.00000000      -0.00000000 </v>
   <v>       0.00000000      -0.00000000      -0.00000000 </v>
   <v>       0.00000000      -0.00000000      -0.00000000 </v>
   <v>       0.00000000      -0.00000000      -0.00000000 </v>
   <v>       0.00000000      -0.00000000      -0.00000000 </v>
   <v>       0.00000000      -0.00000000      -0.00000000 </v>
   <v>       0.00000000      -0.00000000      -0.00000000 </v>
   <v>       0.00000000      -0.00000000      -0.00000000 </v>
   <v>       0.00000000      -0.00000000      -0.00000000 </v>
   <v>       0.00000000      -0.00000000      -0.00000000 </v>
   <v>       0.00000000      -0.00000000      -0.00000000 </v>
   <v>       0.00000000      -0.00000000      -0.00000000 </v>
   <v>       0.00000000      -0.00000000      -0.00000000 </v>
   <v>       0.00067372       0.00067372       0.00067372 </v>
   <v>      -0.00067372       0.00067372       0.00067372 </v>
   <v>       0.00067372       0.00067372      -0.00067372 </v>
   <v>       0.00067372      -0.00067372       0.00067372 </v>
   <v>      -0.00067372      -0.00067372       0.00067372 </v>
   <v>      -0.00067372       0.00067372      -0.00067372 </v>
   <v>      -0.00067372      -0.00067372      -0.00067372 </v>
   <v>       0.00067372      -0.00067372      -0.00067372 </v>
   <v>       0.00067372       0.00067372       0.00067372 </v>
   <v>      -0.00067372       0.00067372       0.00067372 </v>
   <v>       0.00067372       0.00067372      -0.00067372 </v>
   <v>       0.00067372      -0.00067372       0.00067372 </v>
   <v>      -0.00067372      -0.00067372       0.00067372 </v>
   <v>      -0.00067372       0.00067372      -0.00067372 </v>
   <v>      -0.00067372      -0.00067372      -0.00067372 </v>
   <v>       0.00067372      -0.00067372      -0.00067372 </v>
   <v>       0.00067372       0.00067372       0.00067372 </v>
   <v>      -0.00067372       0.00067372       0.00067372 </v>
   <v>       0.00067372       0.00067372      -0.00067372 </v>
   <v>       0.00067372      -0.00067372       0.00067372 </v>
   <v>      -0.00067372      -0.00067372       0.00067372 </v>
   <v>      -0.00067372       0.00067372      -0.00067372 </v>
   <v>      -0.00067372      -0.00067372      -0.00067372 </v>
   <v>       0.00067372      -0.00067372      -0.00067372 </v>
   <v>       0.00067372       0.00067372       0.00067372 </v>
   <v>      -0.00067372       0.00067372       0.00067372 </v>
   <v>       0.00067372       0.00067372      -0.00067372 </v>
   <v>       0.00067372      -0.00067372       0.00067372 </v>
   <v>      -0.00067372      -0.00067372       0.00067372 </v>
   <v>      -0.00067372       0.00067372      -0.00067372 </v>
   <v>      -0.00067372      -0.00067372      -0.00067372 </v>
   <v>       0.00067372      -0.00067372      -0.00067372 </v>
  </varray>
  <varray name="stress" >
   <v>     -83.78199349      -0.00000000      -0.00000000 </v>
   <v>      -0.00000000     -83.78199349      -0.00000000 </v>
   <v>      -0.00000000      -0.00000000     -83.78199349 </v>
  </varray>
  <energy>
   <i name="e_fr_energy">   -329.81296550 </i>
   <i name="e_wo_entrp">   -329.81406202 </i>
   <i name="e_0_energy">      0.00438611 </i>
  </energy>
  <time name="totalsc">   31.62   31.63</time>
  <eigenvalues>
   <array>
    <dimension dim="1">band</dimension>
    <dimension dim="2">kpoint</dimension>
    <dimension dim="3">spin</dimension>
    <field>eigene</field>
    <field>occ</field>
    <set>
     <set comment="spin 1">
      <set comment="kpoint 1">
       <r>   -9.7150    1.0000 </r>
       <r>   -8.9733    1.0000 </r>
       <r>   -8.9733    1.0000 </r>
       <r>   -8.9733    1.0000 </r>
       <r>   -8.9733    1.0000 </r>
       <r>   -8.9733    1.0000 </r>
       <r>   -8.9733    1.0000 </r>
       <r>   -8.6859    1.0000 </r>
       <r>   -8.1422    1.0000 </r>
       <r>   -8.0712    1.0000 </r>
       <r>   -8.0712    1.0000 </r>
       <r>   -8.0712    1.0000 </r>
       <r>   -8.0712    1.0000 </r>
       <r>   -8.0712    1.0000 </r>
       <r>   -8.0712    1.0000 </r>
       <r>   -7.1208    1.0000 </r>
       <r>   -7.1208    1.0000 </r>
       <r>   -7.1208    1.0000 </r>
       <r>   -7.1208    1.0000 </r>
       <r>   -7.1208    1.0000 </r>
       <r>   -7.1208    1.0000 </r>
       <r>   -7.0251    1.0000 </r>
       <r>   -7.0251    1.0000 </r>
       <r>   -7.0251    1.0000 </r>
       <r>   -1.5689    1.0000 </r>
       <r>   -1.5689    1.0000 </r>
       <r>   -1.5689    1.0000 </r>
       <r>   -1.2346    1.0000 </r>
       <r>   -1.2119    1.0000 </r>
       <r>   -1.2119    1.0000 </r>
       <r>   -1.2119    1.0000 </r>
       <r>   -1.2119    1.0000 </r>
       <r>   -1.2119    1.0000 </r>
       <r>   -1.2119    1.0000 </r>
       <r>   -0.3546    1.0000 </r>
       <r>   -0.3546    1.0000 </r>
       <r>   -0.3546    1.0000 </r>
       <r>   -0.3546    1.0000 </r>
       <r>   -0.3546    1.0000 </r>
       <r>   -0.3546    1.0000 </r>
       <r>   -0.0233    1.0000 </r>
       <r>   -0.0233    1.0000 </r>
       <r>   -0.0233    1.0000 </r>
       <r>    0.1582    1.0000 </r>
       <r>    0.1582    1.0000 </r>
       <r>    0.1582    1.0000 </r>
       <r>    0.1582    1.0000 </r>
       <r>    0.1582    1.0000 </r>
       <r>    0.1582    1.0000 </r>
       <r>    0.5209    1.0000 </r>
       <r>    0.5209    1.0000 </r>
       <r>    0.5209    1.0000 </r>
       <r>    0.5209    1.0000 </r>
       <r>    0.5209    1.0000 </r>
       <r>    0.5209    1.0000 </r>
       <r>    0.9867    1.0000 </r>
       <r>    0.9867    1.0000 </r>
       <r>    2.2488    1.0000 </r>
       <r>    2.2488    1.0000 </r>
       <r>    2.2488    1.0000 </r>
       <r>    2.2488    1.0000 </r>
       <r>    2.2488    1.0000 </r>
       <r>    2.2488    1.0000 </r>
       <r>    2.2629    1.0000 </r>
       <r>    2.2629    1.0000 </r>
       <r>    2.2629    1.0000 </r>
       <r>    2.2629    1.0000 </r>
       <r>    2.2629    1.0000 </r>
       <r>    2.2629    1.0000 </r>
       <r>    2.3229    1.0000 </r>
       <r>    2.3229    1.0000 </r>
       <r>    2.3229    1.0000 </r>
       <r>    2.3229    1.0000 </r>
       <r>    2.3229    1.0000 </r>
       <r>    2.3229    1.0000 </r>
       <r>    2.4551    1.0000 </r>
       <r>    2.4551    1.0000 </r>
       <r>    2.4551    1.0000 </r>
       <r>    2.8636    1.0000 </r>
       <r>    2.8636    1.0000 </r>
       <r>    2.8636    1.0000 </r>
       <r>    2.8636    1.0000 </r>
       <r>    2.8636    1.0000 </r>
       <r>    2.8636    1.0000 </r>
       <r>    3.7070    1.0000 </r>
       <r>    4.0562    1.0000 </r>
       <r>    4.0562    1.0000 </r>
       <r>    4.0562    1.0000 </r>
       <r>    4.6816    1.0000 </r>
       <r>    4.6816    1.0000 </r>
       <r>    4.6816    1.0000 </r>
       <r>    4.6816    1.0000 </r>
       <r>    4.6816    1.0000 </r>
       <r>    4.6816    1.0000 </r>
       <r>    5.1106    1.0000 </r>
       <r>    5.1106    1.0000 </r>
       <r>    5.1106    1.0000 </r>
       <r>    6.3356    1.0000 </r>
       <r>    6.3356    1.0000 </r>
       <r>    6.3356    1.0000 </r>
       <r>    6.8125    1.0000 </r>
       <r>    6.8125    1.0000 </r>
       <r>    6.8125    1.0000 </r>
       <r>    6.8125    1.0000 </r>
       <r>    6.8125    1.0000 </r>
       <r>    6.8125    1.0000 </r>
       <r>    7.4758    1.0000 </r>
       <r>    7.4758    1.0000 </r>
       <r>    7.4758    1.0000 </r>
       <r>    7.4758    1.0000 </r>
       <r>    7.4758    1.0000 </r>
       <r>    7.4758    1.0000 </r>
       <r>    7.5468    1.0000 </r>
       <r>    7.5468    1.0000 </r>
       <r>    7.5468    1.0000 </r>
       <r>    7.5468    1.0000 </r>
       <r>    7.5468    1.0000 </r>
       <r>    7.5468    1.0000 </r>
       <r>    7.8911    1.0000 </r>
       <r>    7.8911    1.0000 </r>
       <r>    7.8911    1.0000 </r>
       <r>    7.9061    1.0000 </r>
       <r>    7.9061    1.0000 </r>
       <r>    7.9061    1.0000 </r>
       <r>    7.9061    1.0000 </r>
       <r>    7.9061    1.0000 </r>
       <r>    7.9061    1.0000 </r>
       <r>    9.4493    0.0000 </r>
       <r>    9.8027    0.0000 </r>
       <r>    9.8027    0.0000 </r>
       <r>    9.8027    0.0000 </r>
       <r>    9.8027    0.0000 </r>
       <r>    9.8027    0.0000 </r>
       <r>    9.8027    0.0000 </r>
       <r>    9.8371    0.0000 </r>
       <r>    9.8371    0.0000 </r>
       <r>    9.8371    0.0000 </r>
       <r>    9.8371    0.0000 </r>
       <r>    9.8371    0.0000 </r>
       <r>    9.8371    0.0000 </r>
       <r>    9.9703    0.0000 </r>
       <r>    9.9840    0.0000 </r>
       <r>    9.9840    0.0000 </r>
       <r>    9.9840    0.0000 </r>
       <r>    9.9840    0.0000 </r>
       <r>    9.9840    0.0000 </r>
       <r>    9.9840    0.0000 </r>
       <r>   10.0010    0.0000 </r>
       <r>   10.0010    0.0000 </r>
       <r>   10.6404    0.0000 </r>
       <r>   10.6404    0.0000 </r>
       <r>   10.6404    0.0000 </r>
       <r>   11.8519    0.0000 </r>
       <r>   11.8522    0.0000 </r>
       <r>   11.8537    0.0000 </r>
       <r>   11.8589    0.0000 </r>
      </set>
      <set comment="kpoint 2">
       <r>   -9.6728    1.0000 </r>
       <r>   -9.1555    1.0000 </r>
       <r>   -8.9659    1.0000 </r>
       <r>   -8.9659    1.0000 </r>
       <r>   -8.9659    1.0000 </r>
       <r>   -8.9659    1.0000 </r>
       <r>   -8.8551    1.0000 </r>
       <r>   -8.6980    1.0000 </r>
       <r>   -8.1976    1.0000 </r>
       <r>   -8.1579    1.0000 </r>
       <r>   -8.0952    1.0000 </r>
       <r>   -8.0952    1.0000 </r>
       <r>   -8.0952    1.0000 </r>
       <r>   -8.0952    1.0000 </r>
       <r>   -7.8311    1.0000 </r>
       <r>   -7.1118    1.0000 </r>
       <r>   -7.1118    1.0000 </r>
       <r>   -7.1001    1.0000 </r>
       <r>   -7.1001    1.0000 </r>
       <r>   -7.1001    1.0000 </r>
       <r>   -7.1001    1.0000 </r>
       <r>   -7.0893    1.0000 </r>
       <r>   -7.0345    1.0000 </r>
       <r>   -7.0345    1.0000 </r>
       <r>   -1.5542    1.0000 </r>
       <r>   -1.5542    1.0000 </r>
       <r>   -1.4613    1.0000 </r>
       <r>   -1.2708    1.0000 </r>
       <r>   -1.2708    1.0000 </r>
       <r>   -1.1660    1.0000 </r>
       <r>   -1.1660    1.0000 </r>
       <r>   -1.1660    1.0000 </r>
       <r>   -1.1660    1.0000 </r>
       <r>   -1.1536    1.0000 </r>
       <r>   -0.6008    1.0000 </r>
       <r>   -0.4961    1.0000 </r>
       <r>   -0.4961    1.0000 </r>
       <r>   -0.4961    1.0000 </r>
       <r>   -0.4961    1.0000 </r>
       <r>   -0.3128    1.0000 </r>
       <r>   -0.2658    1.0000 </r>
       <r>   -0.0967    1.0000 </r>
       <r>    0.0724    1.0000 </r>
       <r>    0.0724    1.0000 </r>
       <r>    0.1397    1.0000 </r>
       <r>    0.1397    1.0000 </r>
       <r>    0.1397    1.0000 </r>
       <r>    0.1397    1.0000 </r>
       <r>    0.3438    1.0000 </r>
       <r>    0.5608    1.0000 </r>
       <r>    0.5608    1.0000 </r>
       <r>    0.6307    1.0000 </r>
       <r>    0.6307    1.0000 </r>
       <r>    0.6307    1.0000 </r>
       <r>    0.6307    1.0000 </r>
       <r>    1.0408    1.0000 </r>
       <r>    1.3869    1.0000 </r>
       <r>    1.8197    1.0000 </r>
       <r>    1.9172    1.0000 </r>
       <r>    1.9172    1.0000 </r>
       <r>    1.9172    1.0000 </r>
       <r>    1.9172    1.0000 </r>
       <r>    2.1138    1.0000 </r>
       <r>    2.1632    1.0000 </r>
       <r>    2.1632    1.0000 </r>
       <r>    2.3434    1.0000 </r>
       <r>    2.3434    1.0000 </r>
       <r>    2.3434    1.0000 </r>
       <r>    2.3434    1.0000 </r>
       <r>    2.3981    1.0000 </r>
       <r>    2.3981    1.0000 </r>
       <r>    2.4538    1.0000 </r>
       <r>    2.4743    1.0000 </r>
       <r>    2.6852    1.0000 </r>
       <r>    2.6852    1.0000 </r>
       <r>    2.6852    1.0000 </r>
       <r>    2.6852    1.0000 </r>
       <r>    2.7255    1.0000 </r>
       <r>    2.8967    1.0000 </r>
       <r>    2.8967    1.0000 </r>
       <r>    2.8967    1.0000 </r>
       <r>    2.8967    1.0000 </r>
       <r>    3.0307    1.0000 </r>
       <r>    3.0307    1.0000 </r>
       <r>    3.7888    1.0000 </r>
       <r>    3.8669    1.0000 </r>
       <r>    3.8669    1.0000 </r>
       <r>    3.9442    1.0000 </r>
       <r>    4.5214    1.0000 </r>
       <r>    4.5214    1.0000 </r>
       <r>    4.5214    1.0000 </r>
       <r>    4.5214    1.0000 </r>
       <r>    4.7047    1.0000 </r>
       <r>    4.7047    1.0000 </r>
       <r>    5.0175    1.0000 </r>
       <r>    5.0175    1.0000 </r>
       <r>    5.1784    1.0000 </r>
       <r>    6.3898    1.0000 </r>
       <r>    6.3926    1.0000 </r>
       <r>    6.6348    1.0000 </r>
       <r>    6.6990    1.0000 </r>
       <r>    6.6990    1.0000 </r>
       <r>    6.7865    1.0000 </r>
       <r>    6.7865    1.0000 </r>
       <r>    6.7865    1.0000 </r>
       <r>    6.7865    1.0000 </r>
       <r>    7.0641    1.0000 </r>
       <r>    7.1665    1.0000 </r>
       <r>    7.1665    1.0000 </r>
       <r>    7.1665    1.0000 </r>
       <r>    7.1665    1.0000 </r>
       <r>    7.3756    1.0000 </r>
       <r>    7.4875    1.0000 </r>
       <r>    7.4875    1.0000 </r>
       <r>    7.6453    1.0000 </r>
       <r>    7.6453    1.0000 </r>
       <r>    7.6453    1.0000 </r>
       <r>    7.6453    1.0000 </r>
       <r>    7.8780    1.0000 </r>
       <r>    7.8780    1.0000 </r>
       <r>    8.1434    0.9999 </r>
       <r>    8.1434    0.9999 </r>
       <r>    8.2848    0.9963 </r>
       <r>    8.2882    0.9969 </r>
       <r>    8.2882    0.9969 </r>
       <r>    8.2882    0.9969 </r>
       <r>    8.2882    0.9969 </r>
       <r>    9.3617    0.0000 </r>
       <r>    9.3617    0.0000 </r>
       <r>    9.3617    0.0000 </r>
       <r>    9.3617    0.0000 </r>
       <r>    9.5758    0.0000 </r>
       <r>    9.6505    0.0000 </r>
       <r>    9.6505    0.0000 </r>
       <r>    9.7710    0.0000 </r>
       <r>    9.7721    0.0000 </r>
       <r>    9.9598    0.0000 </r>
       <r>    9.9616    0.0000 </r>
       <r>    9.9922    0.0000 </r>
       <r>    9.9922    0.0000 </r>
       <r>    9.9922    0.0000 </r>
       <r>    9.9922    0.0000 </r>
       <r>   10.0154    0.0000 </r>
       <r>   10.2602    0.0000 </r>
       <r>   10.2602    0.0000 </r>
       <r>   10.2602    0.0000 </r>
       <r>   10.2602    0.0000 </r>
       <r>   10.4483    0.0000 </r>
       <r>   10.4996    0.0000 </r>
       <r>   10.5809    0.0000 </r>
       <r>   10.5809    0.0000 </r>
       <r>   10.5876    0.0000 </r>
       <r>   11.4246    0.0000 </r>
       <r>   11.6516    0.0000 </r>
       <r>   11.6583    0.0000 </r>
       <r>   11.6681    0.0000 </r>
      </set>
      <set comment="kpoint 3">
       <r>   -9.5511    1.0000 </r>
       <r>   -9.3668    1.0000 </r>
       <r>   -8.9532    1.0000 </r>
       <r>   -8.9532    1.0000 </r>
       <r>   -8.9532    1.0000 </r>
       <r>   -8.9532    1.0000 </r>
       <r>   -8.7822    1.0000 </r>
       <r>   -8.7315    1.0000 </r>
       <r>   -8.2215    1.0000 </r>
       <r>   -8.1939    1.0000 </r>
       <r>   -8.1328    1.0000 </r>
       <r>   -8.1328    1.0000 </r>
       <r>   -8.1328    1.0000 </r>
       <r>   -8.1328    1.0000 </r>
       <r>   -7.5383    1.0000 </r>
       <r>   -7.2714    1.0000 </r>
       <r>   -7.0882    1.0000 </r>
       <r>   -7.0882    1.0000 </r>
       <r>   -7.0681    1.0000 </r>
       <r>   -7.0681    1.0000 </r>
       <r>   -7.0681    1.0000 </r>
       <r>   -7.0681    1.0000 </r>
       <r>   -7.0586    1.0000 </r>
       <r>   -7.0586    1.0000 </r>
       <r>   -1.4981    1.0000 </r>
       <r>   -1.4981    1.0000 </r>
       <r>   -1.3929    1.0000 </r>
       <r>   -1.3929    1.0000 </r>
       <r>   -1.1563    1.0000 </r>
       <r>   -1.0379    1.0000 </r>
       <r>   -1.0379    1.0000 </r>
       <r>   -1.0379    1.0000 </r>
       <r>   -1.0379    1.0000 </r>
       <r>   -0.9313    1.0000 </r>
       <r>   -0.7474    1.0000 </r>
       <r>   -0.7474    1.0000 </r>
       <r>   -0.7474    1.0000 </r>
       <r>   -0.7474    1.0000 </r>
       <r>   -0.7363    1.0000 </r>
       <r>   -0.7178    1.0000 </r>
       <r>   -0.5335    1.0000 </r>
       <r>   -0.4638    1.0000 </r>
       <r>    0.1188    1.0000 </r>
       <r>    0.1188    1.0000 </r>
       <r>    0.1188    1.0000 </r>
       <r>    0.1188    1.0000 </r>
       <r>    0.3076    1.0000 </r>
       <r>    0.3076    1.0000 </r>
       <r>    0.5278    1.0000 </r>
       <r>    0.5278    1.0000 </r>
       <r>    0.7843    1.0000 </r>
       <r>    0.7843    1.0000 </r>
       <r>    0.7843    1.0000 </r>
       <r>    0.7843    1.0000 </r>
       <r>    0.8487    1.0000 </r>
       <r>    1.2026    1.0000 </r>
       <r>    1.4658    1.0000 </r>
       <r>    1.4812    1.0000 </r>
       <r>    1.6636    1.0000 </r>
       <r>    1.6636    1.0000 </r>
       <r>    1.6636    1.0000 </r>
       <r>    1.6636    1.0000 </r>
       <r>    2.0647    1.0000 </r>
       <r>    2.0765    1.0000 </r>
       <r>    2.0765    1.0000 </r>
       <r>    2.2311    1.0000 </r>
       <r>    2.2311    1.0000 </r>
       <r>    2.5170    1.0000 </r>
       <r>    2.5232    1.0000 </r>
       <r>    2.5232    1.0000 </r>
       <r>    2.5232    1.0000 </r>
       <r>    2.5232    1.0000 </r>
       <r>    2.8306    1.0000 </r>
       <r>    2.8306    1.0000 </r>
       <r>    2.8306    1.0000 </r>
       <r>    2.8306    1.0000 </r>
       <r>    3.0038    1.0000 </r>
       <r>    3.0933    1.0000 </r>
       <r>    3.0933    1.0000 </r>
       <r>    3.0933    1.0000 </r>
       <r>    3.0933    1.0000 </r>
       <r>    3.2088    1.0000 </r>
       <r>    3.2725    1.0000 </r>
       <r>    3.2725    1.0000 </r>
       <r>    3.5369    1.0000 </r>
       <r>    3.5369    1.0000 </r>
       <r>    3.5467    1.0000 </r>
       <r>    3.6397    1.0000 </r>
       <r>    4.2265    1.0000 </r>
       <r>    4.2265    1.0000 </r>
       <r>    4.2265    1.0000 </r>
       <r>    4.2265    1.0000 </r>
       <r>    4.7785    1.0000 </r>
       <r>    4.7785    1.0000 </r>
       <r>    4.8885    1.0000 </r>
       <r>    4.8885    1.0000 </r>
       <r>    5.5726    1.0000 </r>
       <r>    6.1241    1.0000 </r>
       <r>    6.1462    1.0000 </r>
       <r>    6.5300    1.0000 </r>
       <r>    6.5895    1.0000 </r>
       <r>    6.6272    1.0000 </r>
       <r>    6.6272    1.0000 </r>
       <r>    6.6272    1.0000 </r>
       <r>    6.6272    1.0000 </r>
       <r>    6.8022    1.0000 </r>
       <r>    7.1376    1.0000 </r>
       <r>    7.1376    1.0000 </r>
       <r>    7.1376    1.0000 </r>
       <r>    7.1376    1.0000 </r>
       <r>    7.2899    1.0000 </r>
       <r>    7.2899    1.0000 </r>
       <r>    7.4587    1.0000 </r>
       <r>    7.4587    1.0000 </r>
       <r>    7.6471    1.0000 </r>
       <r>    7.6471    1.0000 </r>
       <r>    7.6471    1.0000 </r>
       <r>    7.6471    1.0000 </r>
       <r>    7.9559    1.0000 </r>
       <r>    7.9559    1.0000 </r>
       <r>    8.3029    1.0015 </r>
       <r>    8.3029    1.0015 </r>
       <r>    8.6762    0.0049 </r>
       <r>    8.6762    0.0049 </r>
       <r>    8.6762    0.0049 </r>
       <r>    8.6762    0.0049 </r>
       <r>    9.0690    0.0000 </r>
       <r>    9.0994    0.0000 </r>
       <r>    9.0994    0.0000 </r>
       <r>    9.0994    0.0000 </r>
       <r>    9.0994    0.0000 </r>
       <r>    9.5850    0.0000 </r>
       <r>    9.5858    0.0000 </r>
       <r>    9.5858    0.0000 </r>
       <r>    9.7844    0.0000 </r>
       <r>    9.7953    0.0000 </r>
       <r>    9.8751    0.0000 </r>
       <r>    9.8761    0.0000 </r>
       <r>   10.0389    0.0000 </r>
       <r>   10.0389    0.0000 </r>
       <r>   10.0389    0.0000 </r>
       <r>   10.0390    0.0000 </r>
       <r>   10.1600    0.0000 </r>
       <r>   10.1600    0.0000 </r>
       <r>   10.3264    0.0000 </r>
       <r>   10.4984    0.0000 </r>
       <r>   10.4984    0.0000 </r>
       <r>   10.4984    0.0000 </r>
       <r>   10.4984    0.0000 </r>
       <r>   10.6677    0.0000 </r>
       <r>   10.7900    0.0000 </r>
       <r>   10.8359    0.0000 </r>
       <r>   11.3325    0.0000 </r>
       <r>   11.4787    0.0000 </r>
       <r>   11.4882    0.0000 </r>
       <r>   11.5017    0.0000 </r>
      </set>
      <set comment="kpoint 4">
       <r>   -9.6314    1.0000 </r>
       <r>   -9.1327    1.0000 </r>
       <r>   -9.1327    1.0000 </r>
       <r>   -8.9828    1.0000 </r>
       <r>   -8.9428    1.0000 </r>
       <r>   -8.8603    1.0000 </r>
       <r>   -8.8603    1.0000 </r>
       <r>   -8.7101    1.0000 </r>
       <r>   -8.2264    1.0000 </r>
       <r>   -8.2264    1.0000 </r>
       <r>   -8.2152    1.0000 </r>
       <r>   -8.1761    1.0000 </r>
       <r>   -7.9950    1.0000 </r>
       <r>   -7.8555    1.0000 </r>
       <r>   -7.8555    1.0000 </r>
       <r>   -7.1583    1.0000 </r>
       <r>   -7.1084    1.0000 </r>
       <r>   -7.0951    1.0000 </r>
       <r>   -7.0951    1.0000 </r>
       <r>   -7.0905    1.0000 </r>
       <r>   -7.0905    1.0000 </r>
       <r>   -7.0645    1.0000 </r>
       <r>   -7.0391    1.0000 </r>
       <r>   -7.0309    1.0000 </r>
       <r>   -1.5709    1.0000 </r>
       <r>   -1.4503    1.0000 </r>
       <r>   -1.4479    1.0000 </r>
       <r>   -1.2690    1.0000 </r>
       <r>   -1.2690    1.0000 </r>
       <r>   -1.2018    1.0000 </r>
       <r>   -1.1933    1.0000 </r>
       <r>   -1.1933    1.0000 </r>
       <r>   -1.0356    1.0000 </r>
       <r>   -1.0297    1.0000 </r>
       <r>   -0.8050    1.0000 </r>
       <r>   -0.7035    1.0000 </r>
       <r>   -0.7035    1.0000 </r>
       <r>   -0.4163    1.0000 </r>
       <r>   -0.3949    1.0000 </r>
       <r>   -0.3949    1.0000 </r>
       <r>   -0.3525    1.0000 </r>
       <r>   -0.0774    1.0000 </r>
       <r>   -0.0774    1.0000 </r>
       <r>    0.0956    1.0000 </r>
       <r>    0.1260    1.0000 </r>
       <r>    0.1296    1.0000 </r>
       <r>    0.1663    1.0000 </r>
       <r>    0.2158    1.0000 </r>
       <r>    0.2158    1.0000 </r>
       <r>    0.3024    1.0000 </r>
       <r>    0.6253    1.0000 </r>
       <r>    0.6253    1.0000 </r>
       <r>    0.7079    1.0000 </r>
       <r>    0.7079    1.0000 </r>
       <r>    1.0751    1.0000 </r>
       <r>    1.2998    1.0000 </r>
       <r>    1.5408    1.0000 </r>
       <r>    1.6272    1.0000 </r>
       <r>    1.8062    1.0000 </r>
       <r>    1.9120    1.0000 </r>
       <r>    1.9120    1.0000 </r>
       <r>    1.9916    1.0000 </r>
       <r>    1.9916    1.0000 </r>
       <r>    2.0937    1.0000 </r>
       <r>    2.0937    1.0000 </r>
       <r>    2.1498    1.0000 </r>
       <r>    2.1844    1.0000 </r>
       <r>    2.3337    1.0000 </r>
       <r>    2.3638    1.0000 </r>
       <r>    2.4358    1.0000 </r>
       <r>    2.4485    1.0000 </r>
       <r>    2.4485    1.0000 </r>
       <r>    2.5799    1.0000 </r>
       <r>    2.5799    1.0000 </r>
       <r>    2.8390    1.0000 </r>
       <r>    2.8886    1.0000 </r>
       <r>    2.8886    1.0000 </r>
       <r>    2.9108    1.0000 </r>
       <r>    2.9176    1.0000 </r>
       <r>    2.9198    1.0000 </r>
       <r>    2.9917    1.0000 </r>
       <r>    2.9917    1.0000 </r>
       <r>    3.2051    1.0000 </r>
[...]
       <r>   10.3733    0.0000 </r>
       <r>   10.3733    0.0000 </r>
       <r>   10.6710    0.0000 </r>
       <r>   10.6711    0.0000 </r>
       <r>   10.6720    0.0000 </r>
       <r>   10.7082    0.0000 </r>
       <r>   10.7082    0.0000 </r>
       <r>   10.7084    0.0000 </r>
       <r>   10.9078    0.0000 </r>
       <r>   10.9360    0.0000 </r>
       <r>   10.9656    0.0000 </r>
       <r>   10.9691    0.0000 </r>
       <r>   11.0012    0.0000 </r>
       <r>   11.0017    0.0000 </r>
      </set>
     </set>
    </set>
   </array>
  </eigenvalues>
  <separator name="orbital magnetization" >
   <v name="MAGDIPOLOUT">      0.00000000      0.00000000      0.00000000</v>
  </separator>
  <dos>
   <i name="efermi">      8.46914067 </i>
   <total>
    <array>
     <dimension dim="1">gridpoints</dimension>
     <dimension dim="2">spin</dimension>
     <field>energy</field>
     <field>total</field>
     <field>integrated</field>
     <set>
      <set comment="spin 1">
       <r>   -10.7937     0.0000     0.0000 </r>
       <r>   -10.7146     0.0000     0.0000 </r>
       <r>   -10.6355     0.0000     0.0000 </r>
       <r>   -10.5564     0.0000     0.0000 </r>
       <r>   -10.4773     0.0000     0.0000 </r>
       <r>   -10.3982     0.0000     0.0000 </r>
       <r>   -10.3191     0.0000     0.0000 </r>
       <r>   -10.2400     0.0000     0.0000 </r>
       <r>   -10.1609     0.0000     0.0000 </r>
       <r>   -10.0818     0.0000     0.0000 </r>
       <r>   -10.0027     0.0002     0.0000 </r>
       <r>    -9.9235     0.0044     0.0004 </r>
       <r>    -9.8444     0.0053     0.0008 </r>
       <r>    -9.7653    -0.1002    -0.0071 </r>
       <r>    -9.6862     0.6918     0.0476 </r>
       <r>    -9.6071     2.8731     0.2749 </r>
       <r>    -9.5280     4.8056     0.6550 </r>
       <r>    -9.4489     6.7471     1.1887 </r>
       <r>    -9.3698     6.9836     1.7412 </r>
       <r>    -9.2907    10.9792     2.6097 </r>
       <r>    -9.2116    12.1802     3.5732 </r>
       <r>    -9.1325    17.5833     4.9641 </r>
       <r>    -9.0534    21.7800     6.6870 </r>
       <r>    -8.9743    13.3135     7.7401 </r>
       <r>    -8.8952    30.1115    10.1221 </r>
       <r>    -8.8161    41.6501    13.4168 </r>
       <r>    -8.7370    25.1125    15.4033 </r>
       <r>    -8.6579     7.9490    16.0321 </r>
       <r>    -8.5788    -0.2360    16.0134 </r>
       <r>    -8.4997    -0.4452    15.9782 </r>
       <r>    -8.4206    -0.6785    15.9245 </r>
       <r>    -8.3415    19.9174    17.5000 </r>
       <r>    -8.2624    43.0863    20.9084 </r>
       <r>    -8.1833    29.3808    23.2325 </r>
       <r>    -8.1042    10.8856    24.0936 </r>
       <r>    -8.0250     4.5994    24.4574 </r>
       <r>    -7.9459     3.7693    24.7556 </r>
       <r>    -7.8668    11.1512    25.6377 </r>
       <r>    -7.7877    16.2127    26.9202 </r>
       <r>    -7.7086     5.7475    27.3749 </r>
       <r>    -7.6295    10.2304    28.1841 </r>
       <r>    -7.5504    17.2916    29.5520 </r>
       <r>    -7.4713     9.0118    30.2648 </r>
       <r>    -7.3922     6.1007    30.7474 </r>
       <r>    -7.3131     7.5382    31.3437 </r>
       <r>    -7.2340     2.7240    31.5592 </r>
       <r>    -7.1549    -3.5009    31.2823 </r>
       <r>    -7.0758    84.7298    37.9848 </r>
       <r>    -6.9967   122.9821    47.7132 </r>
       <r>    -6.9176     7.1534    48.2790 </r>
       <r>    -6.8385    -4.2780    47.9406 </r>
       <r>    -6.7594     0.6788    47.9943 </r>
       <r>    -6.6803     0.0708    47.9999 </r>
       <r>    -6.6012     0.0011    48.0000 </r>
       <r>    -6.5221     0.0000    48.0000 </r>
       <r>    -6.4430     0.0000    48.0000 </r>
       <r>    -6.3639     0.0000    48.0000 </r>
       <r>    -6.2848     0.0000    48.0000 </r>
       <r>    -6.2056     0.0000    48.0000 </r>
       <r>    -6.1265     0.0000    48.0000 </r>
       <r>    -6.0474     0.0000    48.0000 </r>
       <r>    -5.9683     0.0000    48.0000 </r>
       <r>    -5.8892     0.0000    48.0000 </r>
       <r>    -5.8101     0.0000    48.0000 </r>
       <r>    -5.7310     0.0000    48.0000 </r>
       <r>    -5.6519     0.0000    48.0000 </r>
       <r>    -5.5728     0.0000    48.0000 </r>
       <r>    -5.4937     0.0000    48.0000 </r>
       <r>    -5.4146     0.0000    48.0000 </r>
       <r>    -5.3355     0.0000    48.0000 </r>
       <r>    -5.2564     0.0000    48.0000 </r>
       <r>    -5.1773     0.0000    48.0000 </r>
       <r>    -5.0982     0.0000    48.0000 </r>
       <r>    -5.0191     0.0000    48.0000 </r>
       <r>    -4.9400     0.0000    48.0000 </r>
       <r>    -4.8609     0.0000    48.0000 </r>
       <r>    -4.7818     0.0000    48.0000 </r>
       <r>    -4.7027     0.0000    48.0000 </r>
       <r>    -4.6236     0.0000    48.0000 </r>
       <r>    -4.5445     0.0000    48.0000 </r>
       <r>    -4.4654     0.0000    48.0000 </r>
       <r>    -4.3863     0.0000    48.0000 </r>
       <r>    -4.3071     0.0000    48.0000 </r>
       <r>    -4.2280     0.0000    48.0000 </r>
       <r>    -4.1489     0.0000    48.0000 </r>
       <r>    -4.0698     0.0000    48.0000 </r>
       <r>    -3.9907     0.0000    48.0000 </r>
       <r>    -3.9116     0.0000    48.0000 </r>
       <r>    -3.8325     0.0000    48.0000 </r>
       <r>    -3.7534     0.0000    48.0000 </r>
       <r>    -3.6743     0.0000    48.0000 </r>
       <r>    -3.5952     0.0000    48.0000 </r>
       <r>    -3.5161     0.0000    48.0000 </r>
       <r>    -3.4370     0.0000    48.0000 </r>
       <r>    -3.3579     0.0000    48.0000 </r>
       <r>    -3.2788     0.0000    48.0000 </r>
       <r>    -3.1997     0.0000    48.0000 </r>
       <r>    -3.1206     0.0000    48.0000 </r>
       <r>    -3.0415     0.0000    48.0000 </r>
       <r>    -2.9624     0.0000    48.0000 </r>
       <r>    -2.8833     0.0000    48.0000 </r>
       <r>    -2.8042     0.0000    48.0000 </r>
       <r>    -2.7251     0.0000    48.0000 </r>
       <r>    -2.6460     0.0000    48.0000 </r>
       <r>    -2.5669     0.0000    48.0000 </r>
       <r>    -2.4878     0.0000    48.0000 </r>
       <r>    -2.4086     0.0000    48.0000 </r>
       <r>    -2.3295     0.0000    48.0000 </r>
       <r>    -2.2504     0.0000    48.0000 </r>
       <r>    -2.1713     0.0000    48.0000 </r>
       <r>    -2.0922     0.0000    48.0000 </r>
       <r>    -2.0131     0.0000    48.0000 </r>
       <r>    -1.9340     0.0000    48.0000 </r>
       <r>    -1.8549     0.0037    48.0003 </r>
       <r>    -1.7758     0.0516    48.0044 </r>
       <r>    -1.6967    -0.1446    47.9929 </r>
       <r>    -1.6176    -0.0860    47.9861 </r>
       <r>    -1.5385     7.2945    48.5632 </r>
       <r>    -1.4594    22.6184    50.3524 </r>
       <r>    -1.3803    34.4755    53.0795 </r>
       <r>    -1.3012    30.3070    55.4769 </r>
       <r>    -1.2221    45.8723    59.1056 </r>
       <r>    -1.1430    45.8257    62.7307 </r>
       <r>    -1.0639    31.6241    65.2322 </r>
       <r>    -0.9848    30.3859    67.6359 </r>
       <r>    -0.9057    25.8081    69.6774 </r>
       <r>    -0.8266    15.7790    70.9256 </r>
       <r>    -0.7475    19.6776    72.4822 </r>
       <r>    -0.6684    18.8862    73.9762 </r>
       <r>    -0.5892    22.0064    75.7170 </r>
       <r>    -0.5101    29.4250    78.0446 </r>
       <r>    -0.4310    16.6472    79.3615 </r>
       <r>    -0.3519    18.8461    80.8523 </r>
       <r>    -0.2728    24.9194    82.8235 </r>
       <r>    -0.1937    14.8236    83.9961 </r>
       <r>    -0.1146     7.6055    84.5978 </r>
       <r>    -0.0355    22.5192    86.3791 </r>
       <r>     0.0436    39.9297    89.5377 </r>
       <r>     0.1227    39.8320    92.6886 </r>
       <r>     0.2018    24.8646    94.6555 </r>
       <r>     0.2809    12.9392    95.6790 </r>
       <r>     0.3600     8.7882    96.3742 </r>
       <r>     0.4391    20.2757    97.9781 </r>
       <r>     0.5182    24.4711    99.9139 </r>
       <r>     0.5973    21.8748   101.6443 </r>
       <r>     0.6764    20.6498   103.2778 </r>
       <r>     0.7555    10.1794   104.0830 </r>
       <r>     0.8346    11.9701   105.0299 </r>
       <r>     0.9137     8.1615   105.6755 </r>
       <r>     0.9928     3.2611   105.9335 </r>
       <r>     1.0719     9.6391   106.6960 </r>
       <r>     1.1510    12.4269   107.6790 </r>
       <r>     1.2301    12.9633   108.7044 </r>
       <r>     1.3093    18.3827   110.1586 </r>
       <r>     1.3884     7.9917   110.7908 </r>
       <r>     1.4675     8.9117   111.4957 </r>
       <r>     1.5466     7.8540   112.1170 </r>
       <r>     1.6257    10.7928   112.9707 </r>
       <r>     1.7048    34.9227   115.7333 </r>
       <r>     1.7839    36.9771   118.6583 </r>
       <r>     1.8630    16.3691   119.9532 </r>
       <r>     1.9421    22.6514   121.7450 </r>
       <r>     2.0212    38.7843   124.8130 </r>
       <r>     2.1003    42.3654   128.1643 </r>
       <r>     2.1794    40.0638   131.3335 </r>
       <r>     2.2585    28.2903   133.5714 </r>
       <r>     2.3376    37.2254   136.5161 </r>
       <r>     2.4167    41.6054   139.8072 </r>
       <r>     2.4958    32.4449   142.3738 </r>
       <r>     2.5749    26.8703   144.4993 </r>
       <r>     2.6540    20.8326   146.1473 </r>
       <r>     2.7331    27.0109   148.2840 </r>
       <r>     2.8122    22.1154   150.0334 </r>
       <r>     2.8913    47.8155   153.8158 </r>
       <r>     2.9704    53.0597   158.0130 </r>
       <r>     3.0495    34.0668   160.7079 </r>
       <r>     3.1286    20.8930   162.3606 </r>
       <r>     3.2078    26.0760   164.4233 </r>
       <r>     3.2869    24.5571   166.3659 </r>
       <r>     3.3660     8.8841   167.0686 </r>
       <r>     3.4451    14.2619   168.1968 </r>
       <r>     3.5242    19.8334   169.7657 </r>
       <r>     3.6033    10.5321   170.5989 </r>
       <r>     3.6824    13.0516   171.6313 </r>
       <r>     3.7615    11.0491   172.5053 </r>
       <r>     3.8406    10.7902   173.3589 </r>
       <r>     3.9197    10.2642   174.1708 </r>
       <r>     3.9988    13.1491   175.2110 </r>
       <r>     4.0779    13.4964   176.2786 </r>
       <r>     4.1570     5.6017   176.7217 </r>
       <r>     4.2361    16.3475   178.0149 </r>
       <r>     4.3152    15.0552   179.2058 </r>
       <r>     4.3943     4.7090   179.5783 </r>
       <r>     4.4734    10.3029   180.3933 </r>
       <r>     4.5525    22.7699   182.1945 </r>
       <r>     4.6316    21.8457   183.9226 </r>
       <r>     4.7107    30.0076   186.2963 </r>
       <r>     4.7898    31.0926   188.7559 </r>
       <r>     4.8689    18.7046   190.2355 </r>
       <r>     4.9480    14.1810   191.3572 </r>
       <r>     5.0271     4.6170   191.7225 </r>
       <r>     5.1063     4.5685   192.0839 </r>
       <r>     5.1854     5.4347   192.5138 </r>
       <r>     5.2645     2.4877   192.7106 </r>
       <r>     5.3436     1.1131   192.7986 </r>
       <r>     5.4227     1.2444   192.8970 </r>
       <r>     5.5018     8.2905   193.5529 </r>
       <r>     5.5809     7.8813   194.1763 </r>
       <r>     5.6600     4.9299   194.5663 </r>
       <r>     5.7391     8.0251   195.2011 </r>
       <r>     5.8182     8.9815   195.9116 </r>
       <r>     5.8973    14.1550   197.0313 </r>
       <r>     5.9764     2.7436   197.2483 </r>
       <r>     6.0555     6.4596   197.7593 </r>
       <r>     6.1346    15.3034   198.9699 </r>
       <r>     6.2137    10.3037   199.7849 </r>
       <r>     6.2928     8.0677   200.4231 </r>
       <r>     6.3719     9.3876   201.1657 </r>
       <r>     6.4510     8.3336   201.8249 </r>
       <r>     6.5301    11.1456   202.7066 </r>
       <r>     6.6092    18.9733   204.2075 </r>
       <r>     6.6883    30.1079   206.5891 </r>
       <r>     6.7674    20.4705   208.2084 </r>
       <r>     6.8465    23.9954   210.1066 </r>
       <r>     6.9257    13.1756   211.1488 </r>
       <r>     7.0048    25.4241   213.1600 </r>
       <r>     7.0839    22.4136   214.9330 </r>
       <r>     7.1630    21.8303   216.6599 </r>
       <r>     7.2421    18.8193   218.1485 </r>
       <r>     7.3212     6.9903   218.7015 </r>
       <r>     7.4003    24.6758   220.6535 </r>
       <r>     7.4794    43.4154   224.0878 </r>
       <r>     7.5585    20.8520   225.7373 </r>
       <r>     7.6376    14.8874   226.9149 </r>
       <r>     7.7167    28.0482   229.1337 </r>
       <r>     7.7958    31.7370   231.6442 </r>
       <r>     7.8749    31.1752   234.1103 </r>
       <r>     7.9540    15.9179   235.3695 </r>
       <r>     8.0331    24.0487   237.2718 </r>
       <r>     8.1122    19.9991   238.8538 </r>
       <r>     8.1913    26.9432   240.9851 </r>
       <r>     8.2704    31.0813   243.4438 </r>
       <r>     8.3495    29.9322   245.8116 </r>
       <r>     8.4286    21.1140   247.4818 </r>
       <r>     8.5077    11.1396   248.3630 </r>
       <r>     8.5868     6.3813   248.8677 </r>
       <r>     8.6659     3.4235   249.1386 </r>
       <r>     8.7450    11.9217   250.0816 </r>
       <r>     8.8242    10.9167   250.9452 </r>
       <r>     8.9033     9.5918   251.7039 </r>
       <r>     8.9824    20.7851   253.3481 </r>
       <r>     9.0615    23.1751   255.1814 </r>
       <r>     9.1406    15.1809   256.3822 </r>
       <r>     9.2197    17.3207   257.7524 </r>
       <r>     9.2988    18.8655   259.2447 </r>
       <r>     9.3779    22.4430   261.0200 </r>
       <r>     9.4570    20.0525   262.6063 </r>
       <r>     9.5361    33.6922   265.2715 </r>
       <r>     9.6152    19.1854   266.7891 </r>
       <r>     9.6943     9.4452   267.5363 </r>
       <r>     9.7734    24.7438   269.4936 </r>
       <r>     9.8525    46.0016   273.1325 </r>
       <r>     9.9316    44.6705   276.6662 </r>
       <r>    10.0107    31.5831   279.1645 </r>
       <r>    10.0898    28.7187   281.4363 </r>
       <r>    10.1689    27.0298   283.5745 </r>
       <r>    10.2480    25.8551   285.6197 </r>
       <r>    10.3271    33.9516   288.3054 </r>
       <r>    10.4062    36.6022   291.2008 </r>
       <r>    10.4853    33.5769   293.8569 </r>
       <r>    10.5644    24.4358   295.7899 </r>
       <r>    10.6435    17.3747   297.1643 </r>
       <r>    10.7227    15.6502   298.4023 </r>
       <r>    10.8018    12.4866   299.3900 </r>
       <r>    10.8809    17.1391   300.7458 </r>
       <r>    10.9600    26.9297   302.8760 </r>
       <r>    11.0391    29.0122   305.1710 </r>
       <r>    11.1182    22.7682   306.9721 </r>
       <r>    11.1973    15.6206   308.2077 </r>
       <r>    11.2764    15.4951   309.4335 </r>
       <r>    11.3555    10.2003   310.2403 </r>
       <r>    11.4346    10.7131   311.0878 </r>
       <r>    11.5137     3.9445   311.3998 </r>
       <r>    11.5928     2.0009   311.5581 </r>
       <r>    11.6719     3.5089   311.8357 </r>
       <r>    11.7510     1.4151   311.9476 </r>
       <r>    11.8301     0.0544   311.9519 </r>
       <r>    11.9092     0.5713   311.9971 </r>
       <r>    11.9883     0.0560   312.0015 </r>
       <r>    12.0674    -0.0231   311.9997 </r>
       <r>    12.1465     0.0034   312.0000 </r>
       <r>    12.2256     0.0003   312.0000 </r>
       <r>    12.3047     0.0000   312.0000 </r>
       <r>    12.3838     0.0000   312.0000 </r>
       <r>    12.4629     0.0000   312.0000 </r>
       <r>    12.5421     0.0000   312.0000 </r>
       <r>    12.6212     0.0000   312.0000 </r>
       <r>    12.7003     0.0000   312.0000 </r>
       <r>    12.7794     0.0000   312.0000 </r>
       <r>    12.8585     0.0000   312.0000 </r>
       <r>    12.9376     0.0000   312.0000 </r>
      </set>
     </set>
    </array>
   </total>
  </dos>
 </calculation>
 <structure name="finalpos" >
  <crystal>
   <varray name="basis" >
    <v>       8.83464587       0.00000000       0.00000000 </v>
    <v>       0.00000000       8.83464587       0.00000000 </v>
    <v>       0.00000000       0.00000000       8.83464587 </v>
   </varray>
   <i name="volume">    689.55266003 </i>
   <varray name="rec_basis" >
    <v>       0.11319073      -0.00000000       0.00000000 </v>
    <v>      -0.00000000       0.11319073       0.00000000 </v>
    <v>      -0.00000000      -0.00000000       0.11319073 </v>
   </varray>
  </crystal>
  <varray name="positions" >
   <v>       0.87500000       0.87500000       0.12500000 </v>
   <v>       0.37500000       0.12500000       0.37500000 </v>
   <v>       0.62500000       0.87500000       0.37500000 </v>
   <v>       0.12500000       0.12500000       0.12500000 </v>
   <v>       0.25000000       0.75000000       0.25000000 </v>
   <v>      -0.00000000      -0.00000000       0.50000000 </v>
   <v>       0.87500000       0.37500000       0.62500000 </v>
   <v>       0.37500000       0.62500000       0.87500000 </v>
   <v>       0.62500000       0.37500000       0.87500000 </v>
   <v>       0.12500000       0.62500000       0.62500000 </v>
   <v>       0.25000000       0.25000000       0.75000000 </v>
   <v>      -0.00000000       0.50000000      -0.00000000 </v>
   <v>       0.37500000       0.87500000       0.62500000 </v>
   <v>       0.87500000       0.12500000       0.87500000 </v>
   <v>       0.12500000       0.87500000       0.87500000 </v>
   <v>       0.62500000       0.12500000       0.62500000 </v>
   <v>       0.75000000       0.75000000       0.75000000 </v>
   <v>       0.50000000      -0.00000000      -0.00000000 </v>
   <v>       0.37500000       0.37500000       0.12500000 </v>
   <v>       0.87500000       0.62500000       0.37500000 </v>
   <v>       0.12500000       0.37500000       0.37500000 </v>
   <v>       0.62500000       0.62500000       0.12500000 </v>
   <v>       0.75000000       0.25000000       0.25000000 </v>
   <v>       0.50000000       0.50000000       0.50000000 </v>
   <v>       0.37584058       0.37584058       0.37584058 </v>
   <v>       0.87415942       0.12584058       0.12584058 </v>
   <v>       0.62584058       0.12584058       0.37415942 </v>
   <v>       0.12584058       0.87415942       0.12584058 </v>
   <v>       0.12415942       0.12415942       0.37584058 </v>
   <v>       0.12415942       0.37584058       0.12415942 </v>
   <v>       0.37415942       0.87415942       0.37415942 </v>
   <v>       0.37584058       0.12415942       0.12415942 </v>
   <v>       0.37584058       0.87584058       0.87584058 </v>
   <v>       0.87415942       0.62584058       0.62584058 </v>
   <v>       0.62584058       0.62584058       0.87415942 </v>
   <v>       0.12584058       0.37415942       0.62584058 </v>
   <v>       0.12415942       0.62415942       0.87584058 </v>
   <v>       0.12415942       0.87584058       0.62415942 </v>
   <v>       0.37415942       0.37415942       0.87415942 </v>
   <v>       0.37584058       0.62415942       0.62415942 </v>
   <v>       0.87584058       0.37584058       0.87584058 </v>
   <v>       0.37415942       0.12584058       0.62584058 </v>
   <v>       0.12584058       0.12584058       0.87415942 </v>
   <v>       0.62584058       0.87415942       0.62584058 </v>
   <v>       0.62415942       0.12415942       0.87584058 </v>
   <v>       0.62415942       0.37584058       0.62415942 </v>
   <v>       0.87415942       0.87415942       0.87415942 </v>
   <v>       0.87584058       0.12415942       0.62415942 </v>
   <v>       0.87584058       0.87584058       0.37584058 </v>
   <v>       0.37415942       0.62584058       0.12584058 </v>
   <v>       0.12584058       0.62584058       0.37415942 </v>
   <v>       0.62584058       0.37415942       0.12584058 </v>
   <v>       0.62415942       0.62415942       0.37584058 </v>
   <v>       0.62415942       0.87584058       0.12415942 </v>
   <v>       0.87415942       0.37415942       0.37415942 </v>
   <v>       0.87584058       0.62415942       0.12415942 </v>
  </varray>
 </structure>
</modeling>
