unknown system                          
           1
     8.834646    0.000000    0.000000
     0.000000    8.834646    0.000000
     0.000000    0.000000    8.834646
   Si   N 
  24  32
Direct configuration=     1
   0.87500000  0.87500000  0.12500000
   0.37500000  0.12500000  0.37500000
   0.62500000  0.87500000  0.37500000
   0.12500000  0.12500000  0.12500000
   0.25000000  0.75000000  0.25000000
   0.00000000  0.00000000  0.50000000
   0.87500000  0.37500000  0.62500000
   0.37500000  0.62500000  0.87500000
   0.62500000  0.37500000  0.87500000
   0.12500000  0.62500000  0.62500000
   0.25000000  0.25000000  0.75000000
   0.00000000  0.50000000  0.00000000
   0.37500000  0.87500000  0.62500000
   0.87500000  0.12500000  0.87500000
   0.12500000  0.87500000  0.87500000
   0.62500000  0.12500000  0.62500000
   0.75000000  0.75000000  0.75000000
   0.50000000  0.00000000  0.00000000
   0.37500000  0.37500000  0.12500000
   0.87500000  0.62500000  0.37500000
   0.12500000  0.37500000  0.37500000
   0.62500000  0.62500000  0.12500000
   0.75000000  0.25000000  0.25000000
   0.50000000  0.50000000  0.50000000
   0.37630293  0.37630293  0.37630293
   0.87369707  0.12630293  0.12630293
   0.62630293  0.12630293  0.37369707
   0.12630293  0.87369707  0.12630293
   0.12369707  0.12369707  0.37630293
   0.12369707  0.37630293  0.12369707
   0.37369707  0.87369707  0.37369707
   0.37630293  0.12369707  0.12369707
   0.37630293  0.87630293  0.87630293
   0.87369707  0.62630293  0.62630293
   0.62630293  0.62630293  0.87369707
   0.12630293  0.37369707  0.62630293
   0.12369707  0.62369707  0.87630293
   0.12369707  0.87630293  0.62369707
   0.37369707  0.37369707  0.87369707
   0.37630293  0.62369707  0.62369707
   0.87630293  0.37630293  0.87630293
   0.37369707  0.12630293  0.62630293
   0.12630293  0.12630293  0.87369707
   0.62630293  0.87369707  0.62630293
   0.62369707  0.12369707  0.87630293
   0.62369707  0.37630293  0.62369707
   0.87369707  0.87369707  0.87369707
   0.87630293  0.12369707  0.62369707
   0.87630293  0.87630293  0.37630293
   0.37369707  0.62630293  0.12630293
   0.12630293  0.62630293  0.37369707
   0.62630293  0.37369707  0.12630293
   0.62369707  0.62369707  0.37630293
   0.62369707  0.87630293  0.12369707
   0.87369707  0.37369707  0.37369707
   0.87630293  0.62369707  0.12369707
Direct configuration=     2
   0.87500000  0.87500000  0.12500000
   0.37500000  0.12500000  0.37500000
   0.62500000  0.87500000  0.37500000
   0.12500000  0.12500000  0.12500000
   0.25000000  0.75000000  0.25000000
  -0.00000000 -0.00000000  0.50000000
   0.87500000  0.37500000  0.62500000
   0.37500000  0.62500000  0.87500000
   0.62500000  0.37500000  0.87500000
   0.12500000  0.62500000  0.62500000
   0.25000000  0.25000000  0.75000000
  -0.00000000  0.50000000 -0.00000000
   0.37500000  0.87500000  0.62500000
   0.87500000  0.12500000  0.87500000
   0.12500000  0.87500000  0.87500000
   0.62500000  0.12500000  0.62500000
   0.75000000  0.75000000  0.75000000
   0.50000000 -0.00000000 -0.00000000
   0.37500000  0.37500000  0.12500000
   0.87500000  0.62500000  0.37500000
   0.12500000  0.37500000  0.37500000
   0.62500000  0.62500000  0.12500000
   0.75000000  0.25000000  0.25000000
   0.50000000  0.50000000  0.50000000
   0.37571024  0.37571024  0.37571024
   0.87428976  0.12571024  0.12571024
   0.62571024  0.12571024  0.37428976
   0.12571024  0.87428976  0.12571024
   0.12428976  0.12428976  0.37571024
   0.12428976  0.37571024  0.12428976
   0.37428976  0.87428976  0.37428976
   0.37571024  0.12428976  0.12428976
   0.37571024  0.87571024  0.87571024
   0.87428976  0.62571024  0.62571024
   0.62571024  0.62571024  0.87428976
   0.12571024  0.37428976  0.62571024
   0.12428976  0.62428976  0.87571024
   0.12428976  0.87571024  0.62428976
   0.37428976  0.37428976  0.87428976
   0.37571024  0.62428976  0.62428976
   0.87571024  0.37571024  0.87571024
   0.37428976  0.12571024  0.62571024
   0.12571024  0.12571024  0.87428976
   0.62571024  0.87428976  0.62571024
   0.62428976  0.12428976  0.87571024
   0.62428976  0.37571024  0.62428976
   0.87428976  0.87428976  0.87428976
   0.87571024  0.12428976  0.62428976
   0.87571024  0.87571024  0.37571024
   0.37428976  0.62571024  0.12571024
   0.12571024  0.62571024  0.37428976
   0.62571024  0.37428976  0.12571024
   0.62428976  0.62428976  0.37571024
   0.62428976  0.87571024  0.12428976
   0.87428976  0.37428976  0.37428976
   0.87571024  0.62428976  0.12428976
Direct configuration=     3
   0.87500000  0.87500000  0.12500000
   0.37500000  0.12500000  0.37500000
   0.62500000  0.87500000  0.37500000
   0.12500000  0.12500000  0.12500000
   0.25000000  0.75000000  0.25000000
  -0.00000000 -0.00000000  0.50000000
   0.87500000  0.37500000  0.62500000
   0.37500000  0.62500000  0.87500000
   0.62500000  0.37500000  0.87500000
   0.12500000  0.62500000  0.62500000
   0.25000000  0.25000000  0.75000000
  -0.00000000  0.50000000 -0.00000000
   0.37500000  0.87500000  0.62500000
   0.87500000  0.12500000  0.87500000
   0.12500000  0.87500000  0.87500000
   0.62500000  0.12500000  0.62500000
   0.75000000  0.75000000  0.75000000
   0.50000000 -0.00000000 -0.00000000
   0.37500000  0.37500000  0.12500000
   0.87500000  0.62500000  0.37500000
   0.12500000  0.37500000  0.37500000
   0.62500000  0.62500000  0.12500000
   0.75000000  0.25000000  0.25000000
   0.50000000  0.50000000  0.50000000
   0.37584058  0.37584058  0.37584058
   0.87415942  0.12584058  0.12584058
   0.62584058  0.12584058  0.37415942
   0.12584058  0.87415942  0.12584058
   0.12415942  0.12415942  0.37584058
   0.12415942  0.37584058  0.12415942
   0.37415942  0.87415942  0.37415942
   0.37584058  0.12415942  0.12415942
   0.37584058  0.87584058  0.87584058
   0.87415942  0.62584058  0.62584058
   0.62584058  0.62584058  0.87415942
   0.12584058  0.37415942  0.62584058
   0.12415942  0.62415942  0.87584058
   0.12415942  0.87584058  0.62415942
   0.37415942  0.37415942  0.87415942
   0.37584058  0.62415942  0.62415942
   0.87584058  0.37584058  0.87584058
   0.37415942  0.12584058  0.62584058
   0.12584058  0.12584058  0.87415942
   0.62584058  0.87415942  0.62584058
   0.62415942  0.12415942  0.87584058
   0.62415942  0.37584058  0.62415942
   0.87415942  0.87415942  0.87415942
   0.87584058  0.12415942  0.62415942
   0.87584058  0.87584058  0.37584058
   0.37415942  0.62584058  0.12584058
   0.12584058  0.62584058  0.37415942
   0.62584058  0.37415942  0.12584058
   0.62415942  0.62415942  0.37584058
   0.62415942  0.87584058  0.12415942
   0.87415942  0.37415942  0.37415942
   0.87584058  0.62415942  0.12415942
