  56  56   0   0
  0.9990670E+01  0.8240006E-09  0.8240006E-09  0.8240006E-09  0.5000000E-15
  1.000000000000000E-004
  CAR 
 unknown system                          
     16.94199014    -10.24593186  301     11.52680496      1.00000000
    -10.246  0.0000E+00  0.0000E+00
    -10.155  0.0000E+00  0.0000E+00
    -10.065  0.0000E+00  0.0000E+00
     -9.974  0.0000E+00  0.0000E+00
     -9.883  0.1194E-33  0.1082E-34
     -9.793  0.2800E-27  0.2538E-28
     -9.702  0.1214E-21  0.1100E-22
     -9.612  0.9611E-17  0.8710E-18
     -9.521  0.1366E-12  0.1238E-13
     -9.430  0.3376E-09  0.3061E-10
     -9.340  0.1395E-06  0.1267E-07
     -9.249  0.8883E-05  0.8177E-06
     -9.158  0.5114E-04  0.5452E-05
     -9.068 -0.3851E-03 -0.2945E-04
     -8.977  0.3343E-02  0.2735E-03
     -8.887  0.2245E-01  0.2308E-02
     -8.796  0.2342E-01  0.4431E-02
     -8.705  0.4762E-01  0.8747E-02
     -8.615  0.4571E-01  0.1289E-01
     -8.524  0.3696E-01  0.1624E-01
     -8.433  0.8062E-01  0.2355E-01
     -8.343  0.5664E-01  0.2868E-01
     -8.252  0.8764E-01  0.3662E-01
     -8.162  0.5554E-01  0.4165E-01
     -8.071  0.1125E+00  0.5185E-01
     -7.980  0.1276E+00  0.6341E-01
     -7.890  0.9392E-01  0.7192E-01
     -7.799  0.1086E+00  0.8176E-01
     -7.708  0.2063E+00  0.1005E+00
     -7.618  0.1817E+00  0.1169E+00
     -7.527  0.1781E+00  0.1331E+00
     -7.437  0.1706E+00  0.1485E+00
     -7.346  0.2406E+00  0.1703E+00
     -7.255  0.3192E+00  0.1993E+00
     -7.165  0.2651E+00  0.2233E+00
     -7.074  0.1524E+00  0.2371E+00
     -6.983  0.9799E-01  0.2460E+00
     -6.893  0.1065E+00  0.2556E+00
     -6.802  0.1217E+00  0.2667E+00
     -6.712  0.5902E-01  0.2720E+00
     -6.621  0.3182E-01  0.2749E+00
     -6.530  0.1073E+00  0.2846E+00
     -6.440  0.1305E+00  0.2964E+00
     -6.349  0.4776E-01  0.3008E+00
     -6.258  0.5465E-01  0.3057E+00
     -6.168  0.5562E-01  0.3108E+00
     -6.077  0.5171E-01  0.3155E+00
     -5.986  0.9506E-02  0.3163E+00
     -5.896 -0.8171E-02  0.3156E+00
     -5.805  0.4365E+00  0.3551E+00
     -5.715  0.1137E+01  0.4582E+00
     -5.624  0.2781E+00  0.4834E+00
     -5.533 -0.4267E-01  0.4795E+00
     -5.443  0.4516E-02  0.4800E+00
     -5.352  0.4600E-03  0.4800E+00
     -5.261  0.3680E-05  0.4800E+00
     -5.171  0.4532E-08  0.4800E+00
     -5.080  0.9799E-12  0.4800E+00
     -4.990  0.2940E-16  0.4800E+00
     -4.899  0.0000E+00  0.4800E+00
     -4.808  0.0000E+00  0.4800E+00
     -4.718  0.0000E+00  0.4800E+00
     -4.627  0.0000E+00  0.4800E+00
     -4.536  0.0000E+00  0.4800E+00
     -4.446  0.0000E+00  0.4800E+00
     -4.355  0.0000E+00  0.4800E+00
     -4.265  0.0000E+00  0.4800E+00
     -4.174  0.0000E+00  0.4800E+00
     -4.083  0.0000E+00  0.4800E+00
     -3.993  0.0000E+00  0.4800E+00
     -3.902  0.0000E+00  0.4800E+00
     -3.811  0.0000E+00  0.4800E+00
     -3.721  0.0000E+00  0.4800E+00
     -3.630  0.0000E+00  0.4800E+00
     -3.540  0.0000E+00  0.4800E+00
     -3.449  0.0000E+00  0.4800E+00
     -3.358  0.0000E+00  0.4800E+00
     -3.268  0.0000E+00  0.4800E+00
     -3.177  0.0000E+00  0.4800E+00
     -3.086  0.0000E+00  0.4800E+00
     -2.996  0.0000E+00  0.4800E+00
     -2.905  0.0000E+00  0.4800E+00
     -2.815  0.0000E+00  0.4800E+00
     -2.724  0.0000E+00  0.4800E+00
     -2.633  0.0000E+00  0.4800E+00
     -2.543  0.0000E+00  0.4800E+00
     -2.452  0.0000E+00  0.4800E+00
     -2.361  0.0000E+00  0.4800E+00
     -2.271  0.0000E+00  0.4800E+00
     -2.180  0.0000E+00  0.4800E+00
     -2.090  0.0000E+00  0.4800E+00
     -1.999  0.0000E+00  0.4800E+00
     -1.908  0.0000E+00  0.4800E+00
     -1.818  0.0000E+00  0.4800E+00
     -1.727  0.0000E+00  0.4800E+00
     -1.636  0.0000E+00  0.4800E+00
     -1.546  0.0000E+00  0.4800E+00
     -1.455  0.0000E+00  0.4800E+00
     -1.365  0.0000E+00  0.4800E+00
     -1.274  0.0000E+00  0.4800E+00
     -1.183  0.2052E-31  0.4800E+00
     -1.093  0.2763E-25  0.4800E+00
     -1.002  0.6960E-20  0.4800E+00
     -0.911  0.3286E-15  0.4800E+00
     -0.821  0.2925E-11  0.4800E+00
     -0.730  0.4983E-08  0.4800E+00
     -0.640  0.1614E-05  0.4800E+00
     -0.549  0.8683E-04  0.4800E+00
     -0.458  0.2010E-03  0.4800E+00
     -0.368 -0.2749E-02  0.4798E+00
     -0.277  0.3577E-01  0.4830E+00
     -0.186  0.1218E+00  0.4941E+00
     -0.096  0.1870E+00  0.5110E+00
     -0.005  0.3266E+00  0.5406E+00
      0.085  0.3235E+00  0.5699E+00
      0.176  0.3886E+00  0.6051E+00
      0.267  0.2214E+00  0.6252E+00
      0.357  0.4009E+00  0.6615E+00
      0.448  0.2273E+00  0.6821E+00
      0.539  0.2542E+00  0.7052E+00
      0.629  0.1704E+00  0.7206E+00
      0.720  0.1335E+00  0.7327E+00
      0.810  0.2014E+00  0.7510E+00
      0.901  0.2106E+00  0.7701E+00
      0.992  0.2456E+00  0.7923E+00
      1.082  0.1578E+00  0.8066E+00
      1.173  0.1292E+00  0.8183E+00
      1.264  0.1194E+00  0.8292E+00
      1.354  0.9261E-01  0.8375E+00
      1.445  0.5465E-01  0.8425E+00
      1.536  0.1907E+00  0.8598E+00
      1.626  0.1684E+00  0.8750E+00
      1.717  0.1423E+00  0.8879E+00
      1.807  0.2586E+00  0.9114E+00
      1.898  0.2544E+00  0.9344E+00
      1.989  0.2994E+00  0.9616E+00
      2.079  0.1850E+00  0.9783E+00
      2.170  0.1527E+00  0.9922E+00
      2.261  0.1799E+00  0.1008E+01
      2.351  0.1538E+00  0.1022E+01
      2.442  0.1731E+00  0.1038E+01
      2.532  0.1274E+00  0.1050E+01
      2.623  0.1849E+00  0.1066E+01
      2.714  0.2765E-01  0.1069E+01
      2.804  0.9088E-01  0.1077E+01
      2.895  0.2612E+00  0.1101E+01
      2.986  0.1487E+00  0.1114E+01
      3.076  0.5205E-01  0.1119E+01
      3.167  0.2262E+00  0.1139E+01
      3.257  0.2823E+00  0.1165E+01
      3.348  0.2824E+00  0.1191E+01
      3.439  0.2552E+00  0.1214E+01
      3.529  0.3000E+00  0.1241E+01
      3.620  0.3710E+00  0.1275E+01
      3.711  0.3333E+00  0.1305E+01
      3.801  0.2751E+00  0.1330E+01
      3.892  0.1934E+00  0.1347E+01
      3.982  0.3536E+00  0.1379E+01
      4.073  0.3612E+00  0.1412E+01
      4.164  0.3011E+00  0.1439E+01
      4.254  0.2077E+00  0.1458E+01
      4.345  0.2620E+00  0.1482E+01
      4.436  0.2082E+00  0.1501E+01
      4.526  0.3772E+00  0.1535E+01
      4.617  0.4329E+00  0.1574E+01
      4.707  0.2733E+00  0.1599E+01
      4.798  0.2340E+00  0.1620E+01
      4.889  0.3104E+00  0.1648E+01
      4.979  0.1517E+00  0.1662E+01
      5.070  0.6945E-01  0.1668E+01
      5.161  0.1585E+00  0.1683E+01
      5.251  0.9330E-01  0.1691E+01
      5.342  0.1174E+00  0.1702E+01
      5.432  0.1774E+00  0.1718E+01
      5.523  0.1262E+00  0.1729E+01
      5.614  0.2939E-01  0.1732E+01
      5.704  0.1509E+00  0.1746E+01
      5.795  0.1602E+00  0.1760E+01
      5.886  0.4330E-01  0.1764E+01
      5.976  0.1518E+00  0.1778E+01
      6.067  0.9319E-01  0.1786E+01
      6.157  0.9552E-01  0.1795E+01
      6.248  0.3473E-01  0.1798E+01
      6.339  0.2255E+00  0.1819E+01
      6.429  0.1992E+00  0.1837E+01
      6.520  0.2718E+00  0.1861E+01
      6.611  0.2715E+00  0.1886E+01
      6.701  0.1695E+00  0.1901E+01
      6.792  0.1255E+00  0.1913E+01
      6.882  0.4779E-01  0.1917E+01
      6.973  0.3546E-01  0.1920E+01
      7.064  0.6521E-03  0.1920E+01
      7.154 -0.1837E-03  0.1920E+01
      7.245  0.9057E-04  0.1920E+01
      7.336 -0.1098E-04  0.1920E+01
      7.426 -0.4175E-03  0.1920E+01
      7.517  0.7026E-02  0.1921E+01
      7.607  0.4619E-02  0.1921E+01
      7.698 -0.1739E-02  0.1921E+01
      7.789  0.9018E-02  0.1922E+01
      7.879  0.1397E-01  0.1923E+01
      7.970 -0.2358E-02  0.1923E+01
      8.061  0.3918E-01  0.1926E+01
      8.151  0.3013E-01  0.1929E+01
      8.242  0.5487E-02  0.1930E+01
      8.332  0.2103E-01  0.1932E+01
      8.423  0.9861E-01  0.1941E+01
      8.514  0.6801E-01  0.1947E+01
      8.604  0.8268E-01  0.1954E+01
      8.695  0.9417E-01  0.1963E+01
      8.786  0.1328E+00  0.1975E+01
      8.876  0.3007E-01  0.1977E+01
      8.967  0.6124E-01  0.1983E+01
      9.057  0.1474E+00  0.1996E+01
      9.148  0.1314E+00  0.2008E+01
      9.239  0.8400E-01  0.2016E+01
      9.329  0.3390E-01  0.2019E+01
      9.420  0.1847E+00  0.2036E+01
      9.511  0.1758E+00  0.2052E+01
      9.601  0.1606E-01  0.2053E+01
      9.692  0.1912E+00  0.2070E+01
      9.783  0.1507E+00  0.2084E+01
      9.873  0.1316E+00  0.2096E+01
      9.964  0.3867E+00  0.2131E+01
     10.054  0.3133E+00  0.2159E+01
     10.145  0.2187E+00  0.2179E+01
     10.236  0.2180E+00  0.2199E+01
     10.326  0.2623E+00  0.2223E+01
     10.417  0.2132E+00  0.2242E+01
     10.508  0.1019E+00  0.2251E+01
     10.598  0.1505E+00  0.2265E+01
     10.689  0.1708E+00  0.2280E+01
     10.779  0.1038E+00  0.2290E+01
     10.870  0.7553E-01  0.2297E+01
     10.961  0.2694E+00  0.2321E+01
     11.051  0.3045E+00  0.2349E+01
     11.142  0.2488E+00  0.2371E+01
     11.233  0.2450E+00  0.2393E+01
     11.323  0.2203E+00  0.2413E+01
     11.414  0.3175E+00  0.2442E+01
     11.504  0.3606E+00  0.2475E+01
     11.595  0.1263E+00  0.2486E+01
     11.686  0.2988E-01  0.2489E+01
     11.776  0.8818E-01  0.2497E+01
     11.867  0.5596E-01  0.2502E+01
     11.958  0.1429E+00  0.2515E+01
     12.048  0.6984E-01  0.2521E+01
     12.139  0.9416E-01  0.2530E+01
     12.229  0.3041E+00  0.2557E+01
     12.320  0.2917E+00  0.2584E+01
     12.411  0.1846E+00  0.2601E+01
     12.501  0.1827E+00  0.2617E+01
     12.592  0.2335E+00  0.2638E+01
     12.683  0.3016E+00  0.2666E+01
     12.773  0.2724E+00  0.2690E+01
     12.864  0.2301E+00  0.2711E+01
     12.954  0.1714E+00  0.2727E+01
     13.045  0.2169E+00  0.2746E+01
     13.136  0.2689E+00  0.2771E+01
     13.226  0.3573E+00  0.2803E+01
     13.317  0.2547E+00  0.2826E+01
     13.408  0.2017E+00  0.2845E+01
     13.498  0.2972E+00  0.2871E+01
     13.589  0.2161E+00  0.2891E+01
     13.679  0.2092E+00  0.2910E+01
     13.770  0.2166E+00  0.2930E+01
     13.861  0.2603E+00  0.2953E+01
     13.951  0.2854E+00  0.2979E+01
     14.042  0.1880E+00  0.2996E+01
     14.133  0.1603E+00  0.3011E+01
     14.223  0.2965E+00  0.3038E+01
     14.314  0.1892E+00  0.3055E+01
     14.404  0.8931E-01  0.3063E+01
     14.495  0.8440E-01  0.3070E+01
     14.586  0.1005E+00  0.3080E+01
     14.676  0.1289E+00  0.3091E+01
     14.767  0.1109E+00  0.3101E+01
     14.858  0.5683E-01  0.3106E+01
     14.948  0.1715E-01  0.3108E+01
     15.039  0.3143E-01  0.3111E+01
     15.129  0.4176E-01  0.3115E+01
     15.220  0.3892E-01  0.3118E+01
     15.311  0.6931E-02  0.3119E+01
     15.401  0.1185E-02  0.3119E+01
     15.492  0.8647E-02  0.3120E+01
     15.583  0.3554E-03  0.3120E+01
     15.673  0.7478E-03  0.3120E+01
     15.764  0.2759E-02  0.3120E+01
     15.854  0.4612E-04  0.3120E+01
     15.945 -0.3997E-04  0.3120E+01
     16.036  0.8592E-05  0.3120E+01
     16.126  0.1862E-06  0.3120E+01
     16.217  0.4687E-09  0.3120E+01
     16.308  0.1850E-12  0.3120E+01
     16.398  0.1254E-16  0.3120E+01
     16.489  0.0000E+00  0.3120E+01
     16.579  0.0000E+00  0.3120E+01
     16.670  0.0000E+00  0.3120E+01
     16.761  0.0000E+00  0.3120E+01
     16.851  0.0000E+00  0.3120E+01
     16.942  0.0000E+00  0.3120E+01
