   56   56  100    1
  0.9990670E+01  0.8240006E-09  0.8240006E-09  0.8240006E-09  0.5000000E-15
  1.000000000000000E-004
  CAR 
 unknown system                          
    248     10    156
 
  0.3742002E-15  0.3742002E-15  0.3742002E-15  0.8000000E-02
    1       -9.010117   1.000000
    2       -7.807172   1.000000
    3       -7.807172   1.000000
    4       -7.807172   1.000000
    5       -7.807164   1.000000
    6       -7.807164   1.000000
    7       -7.807164   1.000000
    8       -7.285374   1.000000
    9       -7.092683   1.000000
   10       -7.092683   1.000000
   11       -7.092683   1.000000
   12       -7.092674   1.000000
   13       -7.092674   1.000000
   14       -7.092674   1.000000
   15       -6.943539   1.000000
   16       -5.873641   1.000000
   17       -5.873641   1.000000
   18       -5.873641   1.000000
   19       -5.873641   1.000000
   20       -5.873641   1.000000
   21       -5.873641   1.000000
   22       -5.707663   1.000000
   23       -5.707663   1.000000
   24       -5.707663   1.000000
   25       -0.340543   1.000000
   26       -0.212283   1.000000
   27       -0.212283   1.000000
   28       -0.212283   1.000000
   29        0.318901   1.000000
   30        0.318901   1.000000
   31        0.318901   1.000000
   32        0.318901   1.000000
   33        0.318901   1.000000
   34        0.318901   1.000000
   35        0.915254   1.000000
   36        0.915254   1.000000
   37        0.915254   1.000000
   38        0.915261   1.000000
   39        0.915261   1.000000
   40        0.915261   1.000000
   41        1.551510   1.000000
   42        1.551510   1.000000
   43        1.551510   1.000000
   44        1.975023   1.000000
   45        1.975023   1.000000
   46        1.975023   1.000000
   47        1.975031   1.000000
   48        1.975031   1.000000
   49        1.975031   1.000000
   50        2.072862   1.000000
   51        2.072862   1.000000
   52        2.495023   1.000000
   53        2.495023   1.000000
   54        2.495023   1.000000
   55        2.495023   1.000000
   56        2.495023   1.000000
   57        2.495023   1.000000
   58        3.564572   1.000000
   59        3.564572   1.000000
   60        3.564572   1.000000
   61        3.564573   1.000000
   62        3.564573   1.000000
   63        3.564573   1.000000
   64        3.774422   1.000000
   65        3.774422   1.000000
   66        3.774422   1.000000
   67        3.774422   1.000000
   68        3.774422   1.000000
   69        3.774422   1.000000
   70        3.822470   1.000000
   71        3.822470   1.000000
   72        3.822470   1.000000
   73        3.822474   1.000000
   74        3.822474   1.000000
   75        3.822474   1.000000
   76        4.121999   1.000000
   77        4.121999   1.000000
   78        4.121999   1.000000
   79        4.514201   1.000000
   80        4.514201   1.000000
   81        4.514201   1.000000
   82        4.514201   1.000000
   83        4.514201   1.000000
   84        4.514201   1.000000
   85        5.775623   1.000000
   86        5.775623   1.000000
   87        5.775623   1.000000
   88        6.483406   1.000000
   89        6.483406   1.000000
   90        6.483406   1.000000
   91        6.483406   1.000000
   92        6.483406   1.000000
   93        6.483406   1.000000
   94        6.898081   1.000000
   95        6.977212   1.000000
   96        6.977212   1.000000
   97        6.977212   1.000000
   98        9.680279   1.000000
   99        9.680279   1.000000
  100        9.680279   1.000000
  101        9.680280   1.000000
  102        9.680280   1.000000
  103        9.680280   1.000000
  104        9.871984   1.000000
  105        9.871984   1.000000
  106        9.871984   1.000000
  107       10.363521   1.000000
  108       10.363521   1.000000
  109       10.363521   1.000000
  110       10.363521   1.000000
  111       10.363521   1.000000
  112       10.363521   1.000000
  113       10.634078   1.000000
  114       10.634078   1.000000
  115       10.634078   1.000000
  116       10.670535   1.000000
  117       10.670535   1.000000
  118       10.670535   1.000000
  119       10.670553   1.000000
  120       10.670553   1.000000
  121       10.670553   1.000000
  122       11.013872   1.000000
  123       11.013872   1.000000
  124       11.013872   1.000000
  125       11.013872   1.000000
  126       11.013872   1.000000
  127       11.013872   1.000000
  128       12.526346   0.000000
  129       12.540416   0.000000
  130       12.540416   0.000000
  131       12.540416   0.000000
  132       12.540425   0.000000
  133       12.540425   0.000000
  134       12.540425   0.000000
  135       12.728148   0.000000
  136       12.728148   0.000000
  137       13.160949   0.000000
  138       13.160949   0.000000
  139       13.160949   0.000000
  140       13.160962   0.000000
  141       13.160962   0.000000
  142       13.160962   0.000000
  143       13.207958   0.000000
  144       13.207958   0.000000
  145       13.207958   0.000000
  146       13.207958   0.000000
  147       13.207958   0.000000
  148       13.207958   0.000000
  149       14.186681   0.000000
  150       14.186681   0.000000
  151       14.292466   0.000000
  152       14.292467   0.000000
  153       14.292467   0.000000
  154       14.863008   0.000000
  155       15.696102   0.000000
  156       15.706176   0.000000
 
  0.2000000E+00  0.3742002E-15  0.3742002E-15  0.4800000E-01
    1       -8.952276   1.000000
    2       -8.164004   1.000000
    3       -7.780886   1.000000
    4       -7.780886   1.000000
    5       -7.780879   1.000000
    6       -7.780879   1.000000
    7       -7.562018   1.000000
    8       -7.305131   1.000000
    9       -7.150605   1.000000
   10       -7.150605   1.000000
   11       -7.150597   1.000000
   12       -7.150597   1.000000
   13       -7.148569   1.000000
   14       -6.969510   1.000000
   15       -6.846367   1.000000
   16       -5.858537   1.000000
   17       -5.858537   1.000000
   18       -5.832701   1.000000
   19       -5.832701   1.000000
   20       -5.832701   1.000000
   21       -5.832701   1.000000
   22       -5.802972   1.000000
   23       -5.723961   1.000000
   24       -5.723961   1.000000
   25       -0.211658   1.000000
   26       -0.182744   1.000000
   27       -0.182744   1.000000
   28       -0.084246   1.000000
   29        0.238095   1.000000
   30        0.238095   1.000000
   31        0.329209   1.000000
   32        0.329209   1.000000
   33        0.329209   1.000000
   34        0.329209   1.000000
   35        0.670985   1.000000
   36        0.864810   1.000000
   37        0.864810   1.000000
   38        0.864817   1.000000
   39        0.864817   1.000000
   40        1.053093   1.000000
   41        1.103267   1.000000
   42        1.387723   1.000000
   43        1.675147   1.000000
   44        1.675147   1.000000
   45        1.950544   1.000000
   46        1.950544   1.000000
   47        1.950552   1.000000
   48        1.950552   1.000000
   49        2.137623   1.000000
   50        2.221050   1.000000
   51        2.437253   1.000000
   52        2.437253   1.000000
   53        2.437254   1.000000
   54        2.437254   1.000000
   55        2.536417   1.000000
   56        2.536417   1.000000
   57        2.702959   1.000000
   58        3.053851   1.000000
   59        3.385524   1.000000
   60        3.385524   1.000000
   61        3.385526   1.000000
   62        3.385526   1.000000
   63        3.596031   1.000000
   64        3.596031   1.000000
   65        3.790680   1.000000
   66        3.790680   1.000000
   67        3.790681   1.000000
   68        3.790681   1.000000
   69        3.840686   1.000000
   70        4.061634   1.000000
   71        4.061634   1.000000
   72        4.087818   1.000000
   73        4.097489   1.000000
   74        4.135345   1.000000
   75        4.248342   1.000000
   76        4.248342   1.000000
   77        4.248342   1.000000
   78        4.248342   1.000000
   79        4.538524   1.000000
   80        4.538524   1.000000
   81        4.538526   1.000000
   82        4.538526   1.000000
   83        4.708114   1.000000
   84        4.708114   1.000000
   85        5.623263   1.000000
   86        5.623263   1.000000
   87        5.635673   1.000000
   88        6.305174   1.000000
   89        6.305174   1.000000
   90        6.305174   1.000000
   91        6.305174   1.000000
   92        6.420154   1.000000
   93        6.510515   1.000000
   94        6.510515   1.000000
   95        6.891830   1.000000
   96        6.891830   1.000000
   97        7.505146   1.000000
   98        8.967673   1.000000
   99        9.680582   1.000000
  100        9.758961   1.000000
  101        9.758961   1.000000
  102        9.758962   1.000000
  103        9.758962   1.000000
  104        9.844485   1.000000
  105       10.020345   1.000000
  106       10.020345   1.000000
  107       10.020352   1.000000
  108       10.020353   1.000000
  109       10.207470   1.000000
  110       10.207470   1.000000
  111       10.259111   1.000000
  112       10.338098   1.000000
  113       10.338098   1.000000
  114       10.535394   1.000000
  115       10.535394   1.000000
  116       10.535401   1.000000
  117       10.535401   1.000000
  118       10.595625   1.000000
  119       10.595625   1.000000
  120       10.682033   1.000000
  121       11.238096   0.999505
  122       11.276129   0.997967
  123       11.276129   0.997967
  124       11.531814   0.447114
  125       11.531814   0.447114
  126       11.531820   0.447053
  127       11.531820   0.447053
  128       12.250722   0.000000
  129       12.250722   0.000000
  130       12.250727   0.000000
  131       12.250727   0.000000
  132       12.481835   0.000000
  133       12.691444   0.000000
  134       12.707578   0.000000
  135       12.741485   0.000000
  136       12.778605   0.000000
  137       12.834528   0.000000
  138       13.044655   0.000000
  139       13.044655   0.000000
  140       13.166712   0.000000
  141       13.166712   0.000000
  142       13.166717   0.000000
  143       13.166717   0.000000
  144       13.528243   0.000000
  145       13.528244   0.000000
  146       13.528249   0.000000
  147       13.528249   0.000000
  148       13.781098   0.000000
  149       13.897039   0.000000
  150       14.075142   0.000000
  151       14.256401   0.000000
  152       14.256403   0.000000
  153       14.366205   0.000000
  154       15.188464   0.000000
  155       15.229167   0.000000
  156       15.436457   0.000000
 
  0.4000000E+00  0.3742002E-15  0.3742002E-15  0.4800000E-01
    1       -8.782031   1.000000
    2       -8.510458   1.000000
    3       -7.728224   1.000000
    4       -7.728224   1.000000
    5       -7.728217   1.000000
    6       -7.728217   1.000000
    7       -7.439204   1.000000
    8       -7.359524   1.000000
    9       -7.249711   1.000000
   10       -7.249711   1.000000
   11       -7.249702   1.000000
   12       -7.249702   1.000000
   13       -7.108761   1.000000
   14       -7.035323   1.000000
   15       -6.453173   1.000000
   16       -6.070727   1.000000
   17       -5.817982   1.000000
   18       -5.817982   1.000000
   19       -5.770679   1.000000
   20       -5.770679   1.000000
   21       -5.770678   1.000000
   22       -5.770678   1.000000
   23       -5.766634   1.000000
   24       -5.766634   1.000000
   25       -0.088834   1.000000
   26       -0.088834   1.000000
   27        0.067357   1.000000
   28        0.067357   1.000000
   29        0.154346   1.000000
   30        0.267707   1.000000
   31        0.348989   1.000000
   32        0.348989   1.000000
   33        0.348990   1.000000
   34        0.348990   1.000000
   35        0.568292   1.000000
   36        0.712098   1.000000
   37        0.723354   1.000000
   38        0.741087   1.000000
   39        0.780236   1.000000
   40        0.780236   1.000000
   41        0.780242   1.000000
   42        0.780242   1.000000
   43        1.912075   1.000000
   44        1.912075   1.000000
   45        1.912083   1.000000
   46        1.912083   1.000000
   47        1.999363   1.000000
   48        1.999363   1.000000
   49        2.326150   1.000000
   50        2.385179   1.000000
   51        2.385179   1.000000
   52        2.392848   1.000000
   53        2.392848   1.000000
   54        2.392850   1.000000
   55        2.392850   1.000000
   56        2.610484   1.000000
   57        2.635244   1.000000
   58        3.145477   1.000000
   59        3.145477   1.000000
   60        3.145478   1.000000
   61        3.145478   1.000000
   62        3.231708   1.000000
   63        3.549539   1.000000
   64        3.592351   1.000000
   65        3.592351   1.000000
   66        3.859550   1.000000
   67        3.859550   1.000000
   68        4.118996   1.000000
   69        4.136717   1.000000
   70        4.136717   1.000000
   71        4.136718   1.000000
   72        4.136718   1.000000
   73        4.410438   1.000000
   74        4.410438   1.000000
   75        4.410442   1.000000
   76        4.410442   1.000000
   77        4.721019   1.000000
   78        4.775921   1.000000
   79        4.775921   1.000000
   80        4.775927   1.000000
   81        4.775927   1.000000
   82        4.854913   1.000000
   83        4.999880   1.000000
   84        4.999880   1.000000
   85        5.252583   1.000000
   86        5.302124   1.000000
   87        5.302124   1.000000
   88        5.702457   1.000000
   89        5.941909   1.000000
   90        5.941909   1.000000
   91        5.941910   1.000000
   92        5.941910   1.000000
   93        6.597717   1.000000
   94        6.597717   1.000000
   95        6.735272   1.000000
   96        6.735272   1.000000
   97        8.251721   1.000000
   98        8.721805   1.000000
   99        9.034507   1.000000
  100        9.216820   1.000000
  101        9.582657   1.000000
  102        9.582657   1.000000
  103        9.582667   1.000000
  104        9.582667   1.000000
  105       10.036766   1.000000
  106       10.036766   1.000000
  107       10.036766   1.000000
  108       10.036766   1.000000
  109       10.240604   1.000000
  110       10.374277   1.000000
  111       10.374277   1.000000
  112       10.475177   1.000000
  113       10.475177   1.000000
  114       10.475182   1.000000
  115       10.475182   1.000000
  116       10.479592   1.000000
  117       10.479592   1.000000
  118       10.495036   1.000000
  119       10.962886   1.000000
  120       10.962886   1.000000
  121       11.513107   0.642812
  122       11.513107   0.642812
  123       11.513117   0.642706
  124       11.513117   0.642706
  125       11.535709   0.406390
  126       11.535709   0.406390
  127       12.229092   0.000000
  128       12.412477   0.000000
  129       12.412477   0.000000
  130       12.412478   0.000000
  131       12.412478   0.000000
  132       12.512519   0.000000
  133       12.598761   0.000000
  134       12.756864   0.000000
  135       12.849742   0.000000
  136       12.931512   0.000000
  137       12.931513   0.000000
  138       12.952897   0.000000
  139       12.997172   0.000000
  140       13.222654   0.000000
  141       13.222655   0.000000
  142       13.222657   0.000000
  143       13.222658   0.000000
  144       13.409763   0.000000
  145       13.663116   0.000000
  146       13.663117   0.000000
  147       13.802655   0.000000
  148       13.913795   0.000000
  149       13.913797   0.000000
  150       13.913807   0.000000
  151       13.913811   0.000000
  152       14.077418   0.000000
  153       14.810380   0.000000
  154       14.812433   0.000000
  155       14.830912   0.000000
  156       15.045940   0.000000
 
  0.2000000E+00  0.2000000E+00  0.3742002E-15  0.9600000E-01
    1       -8.894990   1.000000
    2       -8.119233   1.000000
    3       -8.119233   1.000000
    4       -7.777902   1.000000
    5       -7.748273   1.000000
    6       -7.567892   1.000000
    7       -7.567892   1.000000
    8       -7.355508   1.000000
    9       -7.325877   1.000000
   10       -7.212127   1.000000
   11       -7.212127   1.000000
   12       -7.005523   1.000000
   13       -7.001249   1.000000
   14       -6.887435   1.000000
   15       -6.887435   1.000000
   16       -5.907019   1.000000
   17       -5.851716   1.000000
   18       -5.825158   1.000000
   19       -5.825158   1.000000
   20       -5.816570   1.000000
   21       -5.816570   1.000000
   22       -5.763870   1.000000
   23       -5.731278   1.000000
   24       -5.716496   1.000000
   25       -0.299882   1.000000
   26       -0.069011   1.000000
   27       -0.049365   1.000000
   28        0.052572   1.000000
   29        0.169769   1.000000
   30        0.169769   1.000000
   31        0.267259   1.000000
   32        0.316142   1.000000
   33        0.316142   1.000000
   34        0.479243   1.000000
   35        0.520953   1.000000
   36        0.637473   1.000000
   37        0.637473   1.000000
   38        0.940323   1.000000
   39        1.012234   1.000000
   40        1.012234   1.000000
   41        1.099926   1.000000
   42        1.448864   1.000000
   43        1.448864   1.000000
   44        1.549140   1.000000
   45        1.799237   1.000000
   46        1.871956   1.000000
   47        1.917892   1.000000
   48        2.019157   1.000000
   49        2.087906   1.000000
   50        2.087906   1.000000
   51        2.393330   1.000000
   52        2.393330   1.000000
   53        2.584531   1.000000
   54        2.584531   1.000000
   55        2.588955   1.000000
   56        2.819458   1.000000
   57        2.888071   1.000000
   58        3.167881   1.000000
   59        3.332750   1.000000
   60        3.332750   1.000000
   61        3.412727   1.000000
   62        3.412727   1.000000
   63        3.517858   1.000000
   64        3.589885   1.000000
   65        3.589885   1.000000
   66        3.678139   1.000000
   67        3.750046   1.000000
   68        3.753158   1.000000
   69        4.021355   1.000000
   70        4.032386   1.000000
   71        4.032386   1.000000
   72        4.091656   1.000000
   73        4.185904   1.000000
   74        4.185904   1.000000
   75        4.340123   1.000000
   76        4.403013   1.000000
   77        4.403013   1.000000
   78        4.548861   1.000000
   79        4.554706   1.000000
   80        4.567515   1.000000
   81        4.664018   1.000000
   82        4.664018   1.000000
   83        4.892871   1.000000
   84        4.892871   1.000000
   85        5.265686   1.000000
   86        5.477894   1.000000
   87        5.719763   1.000000
   88        5.911498   1.000000
   89        6.131786   1.000000
   90        6.326469   1.000000
   91        6.326469   1.000000
   92        6.367193   1.000000
   93        6.367193   1.000000
   94        6.478658   1.000000
   95        6.789029   1.000000
   96        6.894372   1.000000
   97        7.801258   1.000000
   98        9.075289   1.000000
   99        9.075289   1.000000
  100        9.427966   1.000000
  101        9.640909   1.000000
  102        9.658462   1.000000
  103        9.658462   1.000000
  104        9.822725   1.000000
  105        9.822725   1.000000
  106        9.922997   1.000000
  107        9.963032   1.000000
  108       10.061678   1.000000
  109       10.120455   1.000000
  110       10.208743   1.000000
  111       10.256919   1.000000
  112       10.256919   1.000000
  113       10.398816   1.000000
  114       10.450507   1.000000
  115       10.569718   1.000000
  116       10.576335   1.000000
  117       10.966906   1.000000
  118       10.966906   1.000000
  119       11.072485   1.000000
  120       11.072485   1.000000
  121       11.124346   0.999999
  122       11.357928   1.000448
  123       11.357928   1.000448
  124       11.366065   1.004175
  125       11.616195  -0.050074
  126       11.783095   0.001702
  127       11.783095   0.001702
  128       11.949266   0.000000
  129       12.175932   0.000000
  130       12.175932   0.000000
  131       12.382725   0.000000
  132       12.382725   0.000000
  133       12.654841   0.000000
  134       12.709025   0.000000
  135       12.836641   0.000000
  136       12.836641   0.000000
  137       12.845836   0.000000
  138       12.883404   0.000000
  139       12.969223   0.000000
  140       13.149911   0.000000
  141       13.149915   0.000000
  142       13.433053   0.000000
  143       13.433053   0.000000
  144       13.510892   0.000000
  145       13.569907   0.000000
  146       13.624809   0.000000
  147       13.717091   0.000000
  148       13.972101   0.000000
  149       13.977056   0.000000
  150       13.977056   0.000000
  151       14.043567   0.000000
  152       14.220489   0.000000
  153       14.311127   0.000000
  154       14.974690   0.000000
  155       15.029219   0.000000
  156       15.143390   0.000000
 
  0.4000000E+00  0.2000000E+00  0.3742002E-15  0.1920000E+00
    1       -8.726414   1.000000
    2       -8.458460   1.000000
    3       -7.994655   1.000000
    4       -7.838229   1.000000
    5       -7.676048   1.000000
    6       -7.602619   1.000000
    7       -7.460001   1.000000
    8       -7.444138   1.000000
    9       -7.381732   1.000000
   10       -7.347826   1.000000
   11       -7.165515   1.000000
   12       -7.079595   1.000000
   13       -6.964290   1.000000
   14       -6.946042   1.000000
   15       -6.502819   1.000000
   16       -6.151090   1.000000
   17       -5.808572   1.000000
   18       -5.792975   1.000000
   19       -5.786415   1.000000
   20       -5.785723   1.000000
   21       -5.753444   1.000000
   22       -5.746968   1.000000
   23       -5.744091   1.000000
   24       -5.719679   1.000000
   25       -0.236497   1.000000
   26       -0.047521   1.000000
   27        0.025341   1.000000
   28        0.097092   1.000000
   29        0.166462   1.000000
   30        0.170298   1.000000
   31        0.284492   1.000000
   32        0.412037   1.000000
   33        0.420350   1.000000
   34        0.513140   1.000000
   35        0.524476   1.000000
   36        0.543993   1.000000
   37        0.626103   1.000000
   38        0.679322   1.000000
   39        0.745469   1.000000
   40        0.895915   1.000000
   41        0.906743   1.000000
   42        0.932607   1.000000
   43        1.603410   1.000000
   44        1.663644   1.000000
   45        1.787781   1.000000
   46        1.796067   1.000000
   47        1.815214   1.000000
   48        2.120833   1.000000
   49        2.169323   1.000000
   50        2.266681   1.000000
   51        2.295004   1.000000
   52        2.387759   1.000000
   53        2.538495   1.000000
   54        2.578651   1.000000
   55        2.582658   1.000000
   56        2.854287   1.000000
   57        2.933863   1.000000
   58        3.123546   1.000000
   59        3.207696   1.000000
   60        3.323235   1.000000
   61        3.407740   1.000000
   62        3.448508   1.000000
   63        3.525266   1.000000
   64        3.607272   1.000000
   65        3.655803   1.000000
   66        3.875544   1.000000
   67        3.905894   1.000000
   68        3.929972   1.000000
   69        3.974838   1.000000
   70        4.056354   1.000000
   71        4.107693   1.000000
   72        4.146454   1.000000
   73        4.403929   1.000000
   74        4.419445   1.000000
   75        4.478655   1.000000
   76        4.496385   1.000000
   77        4.550718   1.000000
   78        4.561328   1.000000
   79        4.659881   1.000000
   80        4.779720   1.000000
   81        4.841149   1.000000
   82        4.887209   1.000000
   83        4.887884   1.000000
   84        5.167558   1.000000
   85        5.169350   1.000000
   86        5.346195   1.000000
   87        5.428032   1.000000
   88        5.688958   1.000000
   89        5.725251   1.000000
   90        5.941418   1.000000
   91        6.153205   1.000000
   92        6.324663   1.000000
   93        6.433800   1.000000
   94        6.514369   1.000000
   95        6.601053   1.000000
   96        6.728577   1.000000
   97        8.445555   1.000000
   98        8.762936   1.000000
   99        8.961582   1.000000
  100        8.968413   1.000000
  101        9.138321   1.000000
  102        9.195197   1.000000
  103        9.689745   1.000000
  104        9.712636   1.000000
  105        9.869359   1.000000
  106        9.883347   1.000000
  107        9.933777   1.000000
  108       10.010929   1.000000
  109       10.017487   1.000000
  110       10.218543   1.000000
  111       10.275286   1.000000
  112       10.388313   1.000000
  113       10.554110   1.000000
  114       10.673154   1.000000
  115       10.875968   1.000000
  116       10.904546   1.000000
  117       10.920662   1.000000
  118       10.970393   1.000000
  119       11.026691   1.000000
  120       11.038613   1.000000
  121       11.156315   0.999994
  122       11.234932   0.999569
  123       11.471026   0.968695
  124       11.474727   0.950117
  125       11.931394   0.000001
  126       12.059445   0.000000
  127       12.191605   0.000000
  128       12.234298   0.000000
  129       12.259485   0.000000
  130       12.447028   0.000000
  131       12.486209   0.000000
  132       12.507977   0.000000
  133       12.623691   0.000000
  134       12.648621   0.000000
  135       12.659284   0.000000
  136       12.772538   0.000000
  137       12.968988   0.000000
  138       13.014785   0.000000
  139       13.143883   0.000000
  140       13.166730   0.000000
  141       13.174505   0.000000
  142       13.244624   0.000000
  143       13.287767   0.000000
  144       13.434057   0.000000
  145       13.522883   0.000000
  146       13.785182   0.000000
  147       13.852367   0.000000
  148       13.858123   0.000000
  149       13.901984   0.000000
  150       13.949110   0.000000
  151       14.204531   0.000000
  152       14.397923   0.000000
  153       14.427212   0.000000
  154       14.602904   0.000000
  155       14.692668   0.000000
  156       14.740659   0.000000
 
  0.4000000E+00  0.4000000E+00  0.3742002E-15  0.9600000E-01
    1       -8.563651   1.000000
    2       -8.307704   1.000000
    3       -8.307704   1.000000
    4       -8.078463   1.000000
    5       -7.602717   1.000000
    6       -7.520224   1.000000
    7       -7.520224   1.000000
    8       -7.441459   1.000000
    9       -7.417518   1.000000
   10       -7.294058   1.000000
   11       -7.294058   1.000000
   12       -7.184659   1.000000
   13       -6.743842   1.000000
   14       -6.605505   1.000000
   15       -6.605505   1.000000
   16       -6.336093   1.000000
   17       -5.799460   1.000000
   18       -5.775227   1.000000
   19       -5.775227   1.000000
   20       -5.747400   1.000000
   21       -5.731500   1.000000
   22       -5.726763   1.000000
   23       -5.726763   1.000000
   24       -5.698377   1.000000
   25       -0.274688   1.000000
   26       -0.125443   1.000000
   27       -0.125443   1.000000
   28       -0.001596   1.000000
   29        0.239095   1.000000
   30        0.350230   1.000000
   31        0.351080   1.000000
   32        0.352063   1.000000
   33        0.352063   1.000000
   34        0.432317   1.000000
   35        0.470889   1.000000
   36        0.470889   1.000000
   37        0.790169   1.000000
   38        0.790169   1.000000
   39        0.806342   1.000000
   40        0.810604   1.000000
   41        1.022584   1.000000
   42        1.215147   1.000000
   43        1.215147   1.000000
   44        1.218556   1.000000
   45        1.535018   1.000000
   46        1.774747   1.000000
   47        1.774747   1.000000
   48        1.916704   1.000000
   49        2.210615   1.000000
   50        2.210615   1.000000
   51        2.248742   1.000000
   52        2.410830   1.000000
   53        2.549668   1.000000
   54        2.782247   1.000000
   55        2.868861   1.000000
   56        2.868861   1.000000
   57        3.303302   1.000000
   58        3.321723   1.000000
   59        3.321723   1.000000
   60        3.424998   1.000000
   61        3.605090   1.000000
   62        3.605090   1.000000
   63        3.656164   1.000000
   64        3.827074   1.000000
   65        3.870745   1.000000
   66        3.901612   1.000000
   67        3.919081   1.000000
   68        3.919081   1.000000
   69        3.988117   1.000000
   70        3.990063   1.000000
   71        3.990063   1.000000
   72        4.058886   1.000000
   73        4.226243   1.000000
   74        4.261263   1.000000
   75        4.261263   1.000000
   76        4.331980   1.000000
   77        4.458844   1.000000
   78        4.590477   1.000000
   79        4.590477   1.000000
   80        4.800847   1.000000
   81        4.856939   1.000000
   82        4.911781   1.000000
   83        4.911781   1.000000
   84        5.113616   1.000000
   85        5.352585   1.000000
   86        5.413087   1.000000
   87        5.413087   1.000000
   88        5.543199   1.000000
   89        5.801534   1.000000
   90        6.100482   1.000000
   91        6.100482   1.000000
   92        6.338985   1.000000
   93        6.474695   1.000000
   94        6.474695   1.000000
   95        6.515846   1.000000
   96        6.687723   1.000000
   97        8.521570   1.000000
   98        8.590816   1.000000
   99        8.590816   1.000000
  100        8.821731   1.000000
  101        8.917194   1.000000
  102        9.424668   1.000000
  103        9.424668   1.000000
  104        9.658519   1.000000
  105        9.876862   1.000000
  106        9.882860   1.000000
  107        9.882860   1.000000
  108        9.958849   1.000000
  109       10.035552   1.000000
  110       10.035552   1.000000
  111       10.177491   1.000000