       N       E                     dE             d eps       ncg     rms          rms(c)
DAV:   1     0.889550906536E+03    0.88955E+03   -0.10101E+05  3120   0.118E+03
DAV:   2    -0.254032935054E+03   -0.11436E+04   -0.10983E+04  3912   0.247E+02
DAV:   3    -0.349960421242E+03   -0.95927E+02   -0.91917E+02  3864   0.678E+01
DAV:   4    -0.353037900279E+03   -0.30775E+01   -0.29823E+01  3896   0.110E+01
DAV:   5    -0.353128480762E+03   -0.90580E-01   -0.89767E-01  3784   0.163E+00    0.412E+01
RMM:   6    -0.324370521089E+03    0.28758E+02   -0.14433E+02  3120   0.211E+01    0.188E+01
RMM:   7    -0.323988684892E+03    0.38184E+00   -0.43926E+00  3282   0.307E+00    0.105E+01
RMM:   8    -0.323870263934E+03    0.11842E+00   -0.17309E+00  3124   0.274E+00    0.187E+00
RMM:   9    -0.323771773180E+03    0.98491E-01   -0.16535E-01  3190   0.698E-01    0.712E-01
RMM:  10    -0.323765469503E+03    0.63037E-02   -0.10246E-01  3285   0.499E-01    0.250E-01
RMM:  11    -0.323765817678E+03   -0.34817E-03   -0.57729E-03  3212   0.140E-01    0.906E-02
RMM:  12    -0.323765747817E+03    0.69861E-04   -0.26056E-03  3235   0.735E-02    0.432E-02
RMM:  13    -0.323765675863E+03    0.71954E-04   -0.24374E-04  2008   0.242E-02
   1 F= -.32376568E+03 E0= -.32376616E+03  d E =-.323766E+03
       N       E                     dE             d eps       ncg     rms          rms(c)
DAV:   1    -0.323760667096E+03    0.50807E-02   -0.34312E-01  3600   0.167E+00    0.305E-01
RMM:   2    -0.323764154539E+03   -0.34874E-02   -0.46679E-02  3126   0.542E-01    0.303E-01
RMM:   3    -0.323763617374E+03    0.53717E-03   -0.23320E-03  3206   0.810E-02    0.237E-01
RMM:   4    -0.323763438740E+03    0.17863E-03   -0.10435E-03  3094   0.622E-02    0.937E-02
RMM:   5    -0.323763415051E+03    0.23689E-04   -0.26982E-04  2017   0.335E-02
   2 F= -.32376342E+03 E0= -.32376380E+03  d E =0.226081E-02
       N       E                     dE             d eps       ncg     rms          rms(c)
DAV:   1    -0.323771503746E+03   -0.80650E-02   -0.99511E-02  3400   0.890E-01    0.168E-01
RMM:   2    -0.323772334508E+03   -0.83076E-03   -0.12635E-02  3122   0.286E-01    0.166E-01
RMM:   3    -0.323772165593E+03    0.16892E-03   -0.64146E-04  2505   0.451E-02    0.122E-01
RMM:   4    -0.323772130412E+03    0.35181E-04   -0.17329E-04  1811   0.297E-02
   3 F= -.32377213E+03 E0= -.32377254E+03  d E =-.645455E-02
