 vasp.5.4.4.18Apr17-6-g9f103f2a35 (build Nov 01 2019 12:17:22) complex          
  
 executed on             LinuxIFC date 2023.05.19  18:21:58
 running on   16 total cores
 distrk:  each k-point on   16 cores,    1 groups
 distr:  one band on NCORES_PER_BAND=   4 cores,    4 groups


--------------------------------------------------------------------------------------------------------


 INCAR:
 POTCAR:    PAW_PBE N 08Apr2002                   
 POTCAR:    PAW_PBE Si 05Jan2001                  
 POTCAR:    PAW_PBE N 08Apr2002                   
   VRHFIN =N: s2p3                                                              
   LEXCH  = PE                                                                  
   EATOM  =   264.5486 eV,   19.4438 Ry                                         
                                                                                
   TITEL  = PAW_PBE N 08Apr2002                                                 
   LULTRA =        F    use ultrasoft PP ?                                      
   IUNSCR =        1    unscreen: 0-lin 1-nonlin 2-no                           
   RPACOR =    1.200    partial core radius                                     
   POMASS =   14.001; ZVAL   =    5.000    mass and valenz                      
   RCORE  =    1.500    outmost cutoff radius                                   
   RWIGS  =    1.400; RWIGS  =    0.741    wigner-seitz radius (au A)           
   ENMAX  =  400.000; ENMIN  =  300.000 eV                                      
   ICORE  =        2    local potential                                         
   LCOR   =        T    correct aug charges                                     
   LPAW   =        T    paw PP                                                  
   EAUG   =  627.112                                                            
   DEXC   =    0.000                                                            
   RMAX   =    1.529    core radius for proj-oper                               
   RAUG   =    1.300    factor for augmentation sphere                          
   RDEP   =    1.514    radius for radial grids                                 
   RDEPT  =    1.338    core radius for aug-charge                              
                                                                                
   Atomic configuration                                                         
    4 entries                                                                   
     n  l   j            E        occ.                                          
     1  0  0.50      -384.7179   2.0000                                         
     2  0  0.50       -18.5828   2.0000                                         
     2  1  0.50        -7.0898   3.0000                                         
     3  2  1.50        -6.8029   0.0000                                         
   Description                                                                  
     l       E           TYP  RCUT    TYP  RCUT                                 
     0    -18.5828119     23  1.200                                             
     0    -13.5018863     23  1.200                                             
     1     -7.0897853     23  1.500                                             
     1      9.5240782     23  1.500                                             
     2     -6.8029130      7  1.500                                             
  local pseudopotential read in
  partial core-charges read in
  partial kinetic energy density read in
  atomic valenz-charges read in
  non local Contribution for L=           0  read in
    real space projection operators read in
  non local Contribution for L=           0  read in
    real space projection operators read in
  non local Contribution for L=           1  read in
    real space projection operators read in
  non local Contribution for L=           1  read in
    real space projection operators read in
    PAW grid and wavefunctions read in
 
   number of l-projection  operators is LMAX  =           4
   number of lm-projection operators is LMMAX =           8
 
 POTCAR:    PAW_PBE Si 05Jan2001                  
   VRHFIN =Si: s2p2                                                             
   LEXCH  = PE                                                                  
   EATOM  =   103.0669 eV,    7.5752 Ry                                         
                                                                                
   TITEL  = PAW_PBE Si 05Jan2001                                                
   LULTRA =        F    use ultrasoft PP ?                                      
   IUNSCR =        1    unscreen: 0-lin 1-nonlin 2-no                           
   RPACOR =    1.500    partial core radius                                     
   POMASS =   28.085; ZVAL   =    4.000    mass and valenz                      
   RCORE  =    1.900    outmost cutoff radius                                   
   RWIGS  =    2.480; RWIGS  =    1.312    wigner-seitz radius (au A)           
   ENMAX  =  245.345; ENMIN  =  184.009 eV                                      
   ICORE  =        2    local potential                                         
   LCOR   =        T    correct aug charges                                     
   LPAW   =        T    paw PP                                                  
   EAUG   =  322.069                                                            
   DEXC   =    0.000                                                            
   RMAX   =    1.950    core radius for proj-oper                               
   RAUG   =    1.300    factor for augmentation sphere                          
   RDEP   =    1.993    radius for radial grids                                 
   RDEPT  =    1.837    core radius for aug-charge                              
                                                                                
   Atomic configuration                                                         
    6 entries                                                                   
     n  l   j            E        occ.                                          
     1  0  0.50     -1785.8828   2.0000                                         
     2  0  0.50      -139.4969   2.0000                                         
     2  1  1.50       -95.5546   6.0000                                         
     3  0  0.50       -10.8127   2.0000                                         
     3  1  0.50        -4.0811   2.0000                                         
     3  2  1.50        -4.0817   0.0000                                         
   Description                                                                  
     l       E           TYP  RCUT    TYP  RCUT                                 
     0    -10.8127223     23  1.900                                             
     0     -7.6451159     23  1.900                                             
     1     -4.0811372     23  1.900                                             
     1      2.4879257     23  1.900                                             
     2     -4.0817478      7  1.900                                             
  local pseudopotential read in
  partial core-charges read in
  partial kinetic energy density read in
  atomic valenz-charges read in
  non local Contribution for L=           0  read in
    real space projection operators read in
  non local Contribution for L=           0  read in
    real space projection operators read in
  non local Contribution for L=           1  read in
    real space projection operators read in
  non local Contribution for L=           1  read in
    real space projection operators read in
    PAW grid and wavefunctions read in
 
   number of l-projection  operators is LMAX  =           4
   number of lm-projection operators is LMMAX =           8
 
 Optimization of the real space projectors (new method)

 maximal supplied QI-value         = 25.13
 optimisation between [QCUT,QGAM] = [ 10.05, 20.36] = [ 28.30,116.06] Ry 
 Optimized for a Real-space Cutoff    1.70 Angstroem

   l    n(q)    QCUT    max X(q) W(low)/X(q) W(high)/X(q)  e(spline) 
   0     10    10.053    79.467    0.61E-04    0.98E-04    0.61E-06
   0     10    10.053    66.151    0.60E-04    0.98E-04    0.61E-06
   1     10    10.053     8.350    0.17E-03    0.71E-03    0.45E-05
   1     10    10.053     5.531    0.18E-03    0.77E-03    0.49E-05
 Optimization of the real space projectors (new method)

 maximal supplied QI-value         = 19.84
 optimisation between [QCUT,QGAM] = [ 10.12, 20.44] = [ 28.68,116.96] Ry 
 Optimized for a Real-space Cutoff    1.38 Angstroem

   l    n(q)    QCUT    max X(q) W(low)/X(q) W(high)/X(q)  e(spline) 
   0      8    10.119   159.560    0.58E-04    0.11E-03    0.54E-07
   0      8    10.119   115.863    0.56E-04    0.11E-03    0.54E-07
   1      8    10.119    88.339    0.22E-03    0.17E-03    0.19E-06
   1      8    10.119    48.592    0.22E-03    0.17E-03    0.18E-06
  PAW_PBE N 08Apr2002                   :
 energy of atom  1       EATOM= -264.5486
 kinetic energy error for atom=    0.0736 (will be added to EATOM!!)
  PAW_PBE Si 05Jan2001                  :
 energy of atom  2       EATOM= -103.0669
 kinetic energy error for atom=    0.0012 (will be added to EATOM!!)
 
 
 POSCAR: Si24 N32                                
  positions in direct lattice
  No initial velocities read in
 exchange correlation table for  LEXCH =        8
   RHO(1)=    0.500       N(1)  =     2000
   RHO(2)=  100.500       N(2)  =     4000
 


--------------------------------------------------------------------------------------------------------


 ion  position               nearest neighbor table
   1  0.875  0.875  0.125-  28 2.07  54 2.07  47 2.07  49 2.07  26 2.07  56 2.07
   2  0.375  0.125  0.375-  25 2.07  27 2.07  29 2.07  31 2.07  32 2.07  42 2.07
   3  0.625  0.875  0.375-  27 2.07  31 2.07  44 2.07  49 2.07  53 2.07  54 2.07
   4  0.125  0.125  0.125-  26 2.07  29 2.07  32 2.07  43 2.07  28 2.07  30 2.07
   5  0.250  0.750  0.250-  28 1.77  50 1.77  51 1.77  31 1.77
   6  0.000  0.000  0.500-  29 1.77  38 1.77  48 1.77  49 1.77
   7  0.875  0.375  0.625-  36 2.07  46 2.07  41 2.07  34 2.07  48 2.07  55 2.07
   8  0.375  0.625  0.875-  33 2.07  35 2.07  37 2.07  39 2.07  40 2.07  50 2.07
   9  0.625  0.375  0.875-  35 2.07  39 2.07  41 2.07  45 2.07  46 2.07  52 2.07
  10  0.125  0.625  0.625-  34 2.07  37 2.07  40 2.07  51 2.07  36 2.07  38 2.07
  11  0.250  0.250  0.750-  36 1.77  42 1.77  43 1.77  39 1.77
  12  0.000  0.500  0.000-  30 1.77  37 1.77  56 1.77  41 1.77
  13  0.375  0.875  0.625-  38 2.07  44 2.07  31 2.07  40 2.07  42 2.07  33 2.07
  14  0.875  0.125  0.875-  26 2.07  41 2.07  43 2.07  45 2.07  47 2.07  48 2.07
  15  0.125  0.875  0.875-  28 2.07  33 2.07  37 2.07  38 2.07  43 2.07  47 2.07
  16  0.625  0.125  0.625-  27 2.07  42 2.07  45 2.07  48 2.07  46 2.07  44 2.07
  17  0.750  0.750  0.750-  34 1.77  35 1.77  44 1.77  47 1.77
  18  0.500  0.000  0.000-  32 1.77  45 1.77  54 1.77  33 1.77
  19  0.375  0.375  0.125-  30 2.07  52 2.07  32 2.07  39 2.07  50 2.07  25 2.07
  20  0.875  0.625  0.375-  34 2.07  49 2.07  51 2.07  53 2.07  55 2.07  56 2.07
  21  0.125  0.375  0.375-  25 2.07  29 2.07  30 2.07  36 2.07  51 2.07  55 2.07
  22  0.625  0.625  0.125-  35 2.07  50 2.07  53 2.07  56 2.07  54 2.07  52 2.07
  23  0.750  0.250  0.250-  26 1.77  27 1.77  52 1.77  55 1.77
  24  0.500  0.500  0.500-  40 1.77  46 1.77  53 1.77  25 1.77
  25  0.376  0.376  0.376-  24 1.77  19 2.07  21 2.07   2 2.07  40 2.88  46 2.88  53 2.88  42 2.91
                            36 2.91  50 2.91  51 2.91  52 2.91  27 2.91  30 2.94  32 2.94  29 2.94
  26  0.874  0.126  0.126-  23 1.77   4 2.07  14 2.07   1 2.07  52 2.88  27 2.88  55 2.88  45 2.91
                            49 2.91  29 2.91  41 2.91  54 2.91  30 2.91  28 2.94  47 2.94  43 2.94
  27  0.626  0.126  0.374-  23 1.77  16 2.07   2 2.07   3 2.07  26 2.88  52 2.88  55 2.88  46 2.91
                            48 2.91  49 2.91  25 2.91  54 2.91  32 2.91  42 2.94  44 2.94  31 2.94
  28  0.126  0.874  0.126-   5 1.77   1 2.07   4 2.07  15 2.07  50 2.88  31 2.88  51 2.88  37 2.91
                            49 2.91  29 2.91  33 2.91  32 2.91  56 2.91  43 2.94  47 2.94  26 2.94
  29  0.124  0.124  0.376-   6 1.77   4 2.07   2 2.07  21 2.07  38 2.88  48 2.88  49 2.88  36 2.91
                            26 2.91  42 2.91  28 2.91  31 2.91  55 2.91  30 2.94  32 2.94  25 2.94
  30  0.124  0.376  0.124-  12 1.77  19 2.07   4 2.07  21 2.07  56 2.88  41 2.88  37 2.88  43 2.91
                            51 2.91  55 2.91  39 2.91  50 2.91  26 2.91  32 2.94  25 2.94  29 2.94
  31  0.374  0.874  0.374-   5 1.77   3 2.07   2 2.07  13 2.07  28 2.88  50 2.88  51 2.88  38 2.91
                            40 2.91  29 2.91  32 2.91  53 2.91  54 2.91  42 2.94  44 2.94  27 2.94
  32  0.376  0.124  0.124-  18 1.77   4 2.07   2 2.07  19 2.07  54 2.88  45 2.88  33 2.88  39 2.91
                            43 2.91  31 2.91  27 2.91  52 2.91  28 2.91  29 2.94  30 2.94  25 2.94
  33  0.376  0.876  0.876-  18 1.77  13 2.07  15 2.07   8 2.07  32 2.88  54 2.88  45 2.88  42 2.91
                            43 2.91  44 2.91  28 2.91  50 2.91  35 2.91  38 2.94  40 2.94  37 2.94
  34  0.874  0.626  0.626-  17 1.77  10 2.07   7 2.07  20 2.07  44 2.88  35 2.88  47 2.88  37 2.91
                            41 2.91  49 2.91  53 2.91  46 2.91  38 2.91  51 2.94  36 2.94  55 2.94
  35  0.626  0.626  0.874-  17 1.77  22 2.07   8 2.07   9 2.07  34 2.88  44 2.88  47 2.88  41 2.91
                            33 2.91  46 2.91  40 2.91  54 2.91  56 2.91  50 2.94  52 2.94  39 2.94
  36  0.126  0.374  0.626-  11 1.77   7 2.07  10 2.07  21 2.07  42 2.88  39 2.88  43 2.88  25 2.91
                            41 2.91  29 2.91  37 2.91  40 2.91  48 2.91  34 2.94  51 2.94  55 2.94
  37  0.124  0.624  0.876-  12 1.77  10 2.07   8 2.07  15 2.07  30 2.88  56 2.88  41 2.88  36 2.91
                            39 2.91  28 2.91  47 2.91  50 2.91  34 2.91  38 2.94  40 2.94  33 2.94
  38  0.124  0.876  0.624-   6 1.77  13 2.07  10 2.07  15 2.07  48 2.88  29 2.88  49 2.88  47 2.91
                            31 2.91  43 2.91  51 2.91  42 2.91  34 2.91  33 2.94  37 2.94  40 2.94
  39  0.374  0.374  0.874-  11 1.77   9 2.07   8 2.07  19 2.07  36 2.88  42 2.88  43 2.88  37 2.91
                            40 2.91  32 2.91  30 2.91  45 2.91  46 2.91  50 2.94  52 2.94  35 2.94
  40  0.376  0.624  0.624-  24 1.77  10 2.07  13 2.07   8 2.07  46 2.88  25 2.88  53 2.88  39 2.91
                            31 2.91  51 2.91  35 2.91  44 2.91  36 2.91  38 2.94  33 2.94  37 2.94
  41  0.876  0.376  0.876-  12 1.77   9 2.07   7 2.07  14 2.07  30 2.88  56 2.88  37 2.88  35 2.91
                            36 2.91  26 2.91  43 2.91  52 2.91  34 2.91  46 2.94  48 2.94  45 2.94
  42  0.374  0.126  0.626-  11 1.77  16 2.07  13 2.07   2 2.07  36 2.88  39 2.88  43 2.88  25 2.91
                            29 2.91  33 2.91  45 2.91  38 2.91  46 2.91  44 2.94  31 2.94  27 2.94
  43  0.126  0.126  0.874-  11 1.77   4 2.07  14 2.07  15 2.07  36 2.88  42 2.88  39 2.88  30 2.91
                            38 2.91  32 2.91  41 2.91  33 2.91  48 2.91  28 2.94  26 2.94  47 2.94
  44  0.626  0.874  0.626-  17 1.77  13 2.07  16 2.07   3 2.07  34 2.88  35 2.88  47 2.88  45 2.91
                            33 2.91  49 2.91  53 2.91  40 2.91  48 2.91  42 2.94  27 2.94  31 2.94
  45  0.624  0.124  0.876-  18 1.77  16 2.07   9 2.07  14 2.07  32 2.88  54 2.88  33 2.88  39 2.91
                            42 2.91  44 2.91  47 2.91  52 2.91  26 2.91  46 2.94  48 2.94  41 2.94
  46  0.624  0.376  0.624-  24 1.77   7 2.07  16 2.07   9 2.07  40 2.88  25 2.88  53 2.88  39 2.91
                            27 2.91  35 2.91  55 2.91  34 2.91  42 2.91  48 2.94  41 2.94  45 2.94
  47  0.874  0.874  0.874-  17 1.77  14 2.07  15 2.07   1 2.07  34 2.88  44 2.88  35 2.88  38 2.91
                            37 2.91  45 2.91  48 2.91  54 2.91  56 2.91  28 2.94  26 2.94  43 2.94
  48  0.876  0.124  0.624-   6 1.77  16 2.07  14 2.07   7 2.07  38 2.88  29 2.88  49 2.88  43 2.91
                            47 2.91  27 2.91  55 2.91  44 2.91  36 2.91  41 2.94  45 2.94  46 2.94
  49  0.876  0.876  0.376-   6 1.77   3 2.07   1 2.07  20 2.07  38 2.88  48 2.88  29 2.88  26 2.91
                            34 2.91  27 2.91  44 2.91  28 2.91  51 2.91  54 2.94  56 2.94  53 2.94
  50  0.374  0.626  0.126-   5 1.77  22 2.07  19 2.07   8 2.07  28 2.88  31 2.88  51 2.88  33 2.91
                            37 2.91  25 2.91  53 2.91  30 2.91  54 2.91  52 2.94  39 2.94  35 2.94
  51  0.126  0.626  0.374-   5 1.77  10 2.07  20 2.07  21 2.07  28 2.88  50 2.88  31 2.88  25 2.91
                            38 2.91  40 2.91  49 2.91  30 2.91  56 2.91  36 2.94  34 2.94  55 2.94
  52  0.626  0.374  0.126-  23 1.77  19 2.07  22 2.07   9 2.07  26 2.88  27 2.88  55 2.88  41 2.91
                            45 2.91  53 2.91  25 2.91  32 2.91  56 2.91  35 2.94  39 2.94  50 2.94
  53  0.624  0.624  0.376-  24 1.77  22 2.07   3 2.07  20 2.07  40 2.88  46 2.88  25 2.88  31 2.91
                            44 2.91  34 2.91  50 2.91  52 2.91  55 2.91  54 2.94  56 2.94  49 2.94
  54  0.624  0.876  0.124-  18 1.77   1 2.07   3 2.07  22 2.07  32 2.88  33 2.88  45 2.88  31 2.91
                            35 2.91  27 2.91  47 2.91  26 2.91  50 2.91  49 2.94  53 2.94  56 2.94
  55  0.874  0.374  0.374-  23 1.77  20 2.07  21 2.07   7 2.07  26 2.88  52 2.88  27 2.88  30 2.91
                            46 2.91  48 2.91  29 2.91  53 2.91  56 2.91  36 2.94  34 2.94  51 2.94
  56  0.876  0.624  0.124-  12 1.77  22 2.07  20 2.07   1 2.07  30 2.88  37 2.88  41 2.88  35 2.91
                            47 2.91  51 2.91  55 2.91  52 2.91  28 2.91  53 2.94  54 2.94  49 2.94
 
  LATTYP: Found a simple cubic cell.
 ALAT       =     8.2400062483
  
  Lattice vectors:
  
 A1 = (   8.2400062483,   0.0000000000,   0.0000000000)
 A2 = (   0.0000000000,   8.2400062483,   0.0000000000)
 A3 = (   0.0000000000,   0.0000000000,   8.2400062483)


Analysis of symmetry for initial positions (statically):
=====================================================================
 Subroutine PRICEL returns following result:
 
  LATTYP: Found a face centered cubic cell.
 ALAT       =     8.2400062483
  
  Lattice vectors:
  
 A1 = (   4.1200031241,   4.1200031241,  -0.0000000000)
 A2 = (   4.1200031241,   0.0000000000,  -4.1200031241)
 A3 = (   0.0000000000,   4.1200031241,  -4.1200031241)
 
   4 primitive cells build up your supercell.
 

 Routine SETGRP: Setting up the symmetry group for a 
 simple cubic supercell.


 Subroutine GETGRP returns: Found 48 space group operations
 (whereof 24 operations were pure point group operations)
 out of a pool of 48 trial point group operations.


The static configuration has the point symmetry T_d .
 The point group associated with its full space group is O_h .


Analysis of symmetry for dynamics (positions and initial velocities):
=====================================================================
 Subroutine PRICEL returns following result:
 
  LATTYP: Found a face centered cubic cell.
 ALAT       =     8.2400062483
  
  Lattice vectors:
  
 A1 = (   4.1200031241,   4.1200031241,  -0.0000000000)
 A2 = (   4.1200031241,   0.0000000000,  -4.1200031241)
 A3 = (   0.0000000000,   4.1200031241,  -4.1200031241)
 
   4 primitive cells build up your supercell.
 

 Routine SETGRP: Setting up the symmetry group for a 
 simple cubic supercell.


 Subroutine GETGRP returns: Found 48 space group operations
 (whereof 24 operations were pure point group operations)
 out of a pool of 48 trial point group operations.


The dynamic configuration has the point symmetry T_d .
 The point group associated with its full space group is O_h .


 Subroutine INISYM returns: Found 48 space group operations
 (whereof 24 operations are pure point group operations),
 and found     4 'primitive' translations

 
 
 KPOINTS: Automatic mesh                          

Automatic generation of k-mesh.
 generate k-points for:    5    5    5
Space group operators:
 irot       det(A)        alpha          n_x          n_y          n_z        tau_x        tau_y        tau_z
    1     1.000000     0.000000     1.000000     0.000000     0.000000     0.000000     0.000000    -0.000000
    2     1.000000   120.000000    -0.577350    -0.577350    -0.577350     0.000000     0.000000    -0.000000
    3     1.000000   120.000000     0.577350     0.577350     0.577350     0.000000     0.000000    -0.000000
    4    -1.000000    90.000000     0.000000    -0.000000    -1.000000     0.000000     0.000000    -0.000000
    5    -1.000000   180.000000     0.000000    -0.707107    -0.707107     0.000000     0.000000    -0.000000
    6    -1.000000    90.000000     0.000000     1.000000     0.000000     0.000000     0.000000    -0.000000
    7     1.000000   180.000000    -0.000000    -0.000000     1.000000     0.000000     0.000000    -0.000000
    8     1.000000   120.000000    -0.577350     0.577350     0.577350     0.000000     0.000000    -0.000000
    9     1.000000   120.000000    -0.577350     0.577350    -0.577350     0.000000     0.000000    -0.000000
   10    -1.000000    90.000000    -0.000000    -0.000000     1.000000     0.000000     0.000000    -0.000000
   11    -1.000000    90.000000    -1.000000     0.000000    -0.000000     0.000000     0.000000    -0.000000
   12    -1.000000   180.000000    -0.707107     0.000000    -0.707107     0.000000     0.000000    -0.000000
   13     1.000000   120.000000     0.577350    -0.577350     0.577350     0.000000     0.000000    -0.000000
   14     1.000000   120.000000    -0.577350    -0.577350     0.577350     0.000000     0.000000    -0.000000
   15     1.000000   180.000000     1.000000     0.000000     0.000000     0.000000     0.000000    -0.000000
   16    -1.000000    90.000000    -0.000000    -1.000000     0.000000     0.000000     0.000000    -0.000000
   17    -1.000000   180.000000     0.707107     0.707107     0.000000     0.000000     0.000000    -0.000000
   18    -1.000000    90.000000     1.000000    -0.000000    -0.000000     0.000000     0.000000    -0.000000
   19     1.000000   120.000000     0.577350    -0.577350    -0.577350     0.000000     0.000000    -0.000000
   20     1.000000   180.000000    -0.000000     1.000000     0.000000     0.000000     0.000000    -0.000000
   21     1.000000   120.000000     0.577350     0.577350    -0.577350     0.000000     0.000000    -0.000000
   22    -1.000000   180.000000    -0.000000    -0.707107     0.707107     0.000000     0.000000    -0.000000
   23    -1.000000   180.000000     0.707107    -0.707107     0.000000     0.000000     0.000000    -0.000000
   24    -1.000000   180.000000     0.707107     0.000000    -0.707107     0.000000     0.000000    -0.000000
   25    -1.000000     0.000000     1.000000     0.000000     0.000000     0.750000     0.750000    -0.750000
   26    -1.000000   120.000000    -0.577350    -0.577350    -0.577350     0.750000     0.750000    -0.750000
   27    -1.000000   120.000000     0.577350     0.577350     0.577350     0.750000     0.750000    -0.750000
   28     1.000000    90.000000     0.000000    -0.000000    -1.000000     0.750000     0.750000    -0.750000
   29     1.000000   180.000000     0.000000    -0.707107    -0.707107     0.750000     0.750000    -0.750000
   30     1.000000    90.000000     0.000000     1.000000     0.000000     0.750000     0.750000    -0.750000
   31    -1.000000   180.000000    -0.000000    -0.000000     1.000000     0.750000     0.750000    -0.750000
   32    -1.000000   120.000000    -0.577350     0.577350     0.577350     0.750000     0.750000    -0.750000
   33    -1.000000   120.000000    -0.577350     0.577350    -0.577350     0.750000     0.750000    -0.750000
   34     1.000000    90.000000    -0.000000    -0.000000     1.000000     0.750000     0.750000    -0.750000
   35     1.000000    90.000000    -1.000000     0.000000    -0.000000     0.750000     0.750000    -0.750000
   36     1.000000   180.000000    -0.707107     0.000000    -0.707107     0.750000     0.750000    -0.750000
   37    -1.000000   120.000000     0.577350    -0.577350     0.577350     0.750000     0.750000    -0.750000
   38    -1.000000   120.000000    -0.577350    -0.577350     0.577350     0.750000     0.750000    -0.750000
   39    -1.000000   180.000000     1.000000     0.000000     0.000000     0.750000     0.750000    -0.750000
   40     1.000000    90.000000    -0.000000    -1.000000     0.000000     0.750000     0.750000    -0.750000
   41     1.000000   180.000000     0.707107     0.707107     0.000000     0.750000     0.750000    -0.750000
   42     1.000000    90.000000     1.000000    -0.000000    -0.000000     0.750000     0.750000    -0.750000
   43    -1.000000   120.000000     0.577350    -0.577350    -0.577350     0.750000     0.750000    -0.750000
   44    -1.000000   180.000000    -0.000000     1.000000     0.000000     0.750000     0.750000    -0.750000
   45    -1.000000   120.000000     0.577350     0.577350    -0.577350     0.750000     0.750000    -0.750000
   46     1.000000   180.000000    -0.000000    -0.707107     0.707107     0.750000     0.750000    -0.750000
   47     1.000000   180.000000     0.707107    -0.707107     0.000000     0.750000     0.750000    -0.750000
   48     1.000000   180.000000     0.707107     0.000000    -0.707107     0.750000     0.750000    -0.750000
 
 Subroutine IBZKPT returns following result:
 ===========================================
 
 Found     10 irreducible k-points:
 
 Following reciprocal coordinates:
            Coordinates               Weight
  0.000000  0.000000  0.000000      1.000000
  0.200000  0.000000  0.000000      6.000000
  0.400000  0.000000  0.000000      6.000000
  0.200000  0.200000  0.000000     12.000000
  0.400000  0.200000  0.000000     24.000000
  0.400000  0.400000  0.000000     12.000000
  0.200000  0.200000  0.200000      8.000000
  0.400000  0.200000  0.200000     24.000000
  0.400000  0.400000  0.200000     24.000000
  0.400000  0.400000  0.400000      8.000000
 
 Following cartesian coordinates:
            Coordinates               Weight
  0.000000  0.000000  0.000000      1.000000
  0.024272  0.000000  0.000000      6.000000
  0.048544  0.000000  0.000000      6.000000
  0.024272  0.024272  0.000000     12.000000
  0.048544  0.024272  0.000000     24.000000
  0.048544  0.048544  0.000000     12.000000
  0.024272  0.024272  0.024272      8.000000
  0.048544  0.024272  0.024272     24.000000
  0.048544  0.048544  0.024272     24.000000
  0.048544  0.048544  0.048544      8.000000
 


--------------------------------------------------------------------------------------------------------




 Dimension of arrays:
   k-points           NKPTS =     10   k-points in BZ     NKDIM =     10   number of bands    NBANDS=    156
   number of dos      NEDOS =    301   number of ions     NIONS =     56
   non local maximal  LDIM  =      4   non local SUM 2l+1 LMDIM =      8
   total plane-waves  NPLWV = 157464
   max r-space proj   IRMAX =   5820   max aug-charges    IRDMAX=   9609
   dimension x,y,z NGX =    54 NGY =   54 NGZ =   54
   dimension x,y,z NGXF=   108 NGYF=  108 NGZF=  108
   support grid    NGXF=   108 NGYF=  108 NGZF=  108
   ions per type =              24  32
   NGX,Y,Z   is equivalent  to a cutoff of  10.89, 10.89, 10.89 a.u.
   NGXF,Y,Z  is equivalent  to a cutoff of  21.79, 21.79, 21.79 a.u.

 SYSTEM =  unknown system                          
 POSCAR =  Si24 N32                                

 Startparameter for this run:
   NWRITE =      2    write-flag & timer
   PREC   = accura    normal or accurate (medium, high low for compatibility)
   ISTART =      0    job   : 0-new  1-cont  2-samecut
   ICHARG =      2    charge: 1-file 2-atom 10-const
   ISPIN  =      1    spin polarized calculation?
   LNONCOLLINEAR =      F non collinear calculations
   LSORBIT =      F    spin-orbit coupling
   INIWAV =      1    electr: 0-lowe 1-rand  2-diag
   LASPH  =      F    aspherical Exc in radial PAW
   METAGGA=      F    non-selfconsistent MetaGGA calc.

 Electronic Relaxation 1
   ENCUT  =  400.0 eV  29.40 Ry    5.42 a.u.  13.44 13.44 13.44*2*pi/ulx,y,z
   ENINI  =  400.0     initial cutoff
   ENAUG  =  627.1 eV  augmentation charge cutoff
   NELM   =     60;   NELMIN=  2; NELMDL= -5     # of ELM steps 
   EDIFF  = 0.1E-03   stopping-criterion for ELM
   LREAL  =      T    real-space projection
   NLSPLINE    = F    spline interpolate recip. space projectors
   LCOMPAT=      F    compatible to vasp.4.4
   GGA_COMPAT  = T    GGA compatible to vasp.4.4-vasp.4.6
   LMAXPAW     = -100 max onsite density
   LMAXMIX     =    2 max onsite mixed and CHGCAR
   VOSKOWN=      0    Vosko Wilk Nusair interpolation
   ROPT   =   -0.00025  -0.00025
 Ionic relaxation
   EDIFFG = 0.1E-02   stopping-criterion for IOM
   NSW    =    100    number of steps for IOM
   NBLOCK =      1;   KBLOCK =    100    inner block; outer block 
   IBRION =      2    ionic relax: 0-MD 1-quasi-New 2-CG
   NFREE  =      1    steps in history (QN), initial steepest desc. (CG)
   ISIF   =      2    stress and relaxation
   IWAVPR =     11    prediction:  0-non 1-charg 2-wave 3-comb
   ISYM   =      2    0-nonsym 1-usesym 2-fastsym
   LCORR  =      T    Harris-Foulkes like correction to forces

   POTIM  = 0.5000    time-step for ionic-motion
   TEIN   =    0.0    initial temperature
   TEBEG  =    0.0;   TEEND  =   0.0 temperature during run
   SMASS  =  -3.00    Nose mass-parameter (am)
   estimated Nose-frequenzy (Omega)   =  0.10E-29 period in steps =****** mass=  -0.155E-26a.u.
   SCALEE = 1.0000    scale energy and forces
   NPACO  =    256;   APACO  = 16.0  distance and # of slots for P.C.
   PSTRESS=    0.0 pullay stress

  Mass of Ions in am
   POMASS =  14.00 28.09
  Ionic Valenz
   ZVAL   =   5.00  4.00
  Atomic Wigner-Seitz radii
   RWIGS  =  -1.00 -1.00
  virtual crystal weights 
   VCA    =   1.00  1.00
   NELECT =     248.0000    total number of electrons
   NUPDOWN=      -1.0000    fix difference up-down

 DOS related values:
   EMIN   =  10.00;   EMAX   =-10.00  energy-range for DOS
   EFERMI =   0.00
   ISMEAR =     2;   SIGMA  =   0.10  broadening in eV -4-tet -1-fermi 0-gaus

 Electronic relaxation 2 (details)
   IALGO  =     68    algorithm
   LDIAG  =      T    sub-space diagonalisation (order eigenvalues)
   LSUBROT=      F    optimize rotation matrix (better conditioning)
   TURBO    =      0    0=normal 1=particle mesh
   IRESTART =      0    0=no restart 2=restart with 2 vectors
   NREBOOT  =      0    no. of reboots
   NMIN     =      0    reboot dimension
   EREF     =   0.00    reference energy to select bands
   IMIX   =      4    mixing-type and parameters
     AMIX     =   0.40;   BMIX     =  1.00
     AMIX_MAG =   1.60;   BMIX_MAG =  1.00
     AMIN     =   0.10
     WC   =   100.;   INIMIX=   1;  MIXPRE=   1;  MAXMIX= -45

 Intra band minimization:
   WEIMIN = 0.0010     energy-eigenvalue tresh-hold
   EBREAK =  0.16E-06  absolut break condition
   DEPER  =   0.30     relativ break condition  

   TIME   =   0.40     timestep for ELM

  volume/ion in A,a.u.               =       9.99        67.42
  Fermi-wavevector in a.u.,A,eV,Ry     =   1.248239  2.358830 21.199256  1.558101
  Thomas-Fermi vector in A             =   2.382335
 
 Write flags
   LWAVE        =      F    write WAVECAR
   LDOWNSAMPLE  =      F    k-point downsampling of WAVECAR
   LCHARG       =      F    write CHGCAR
   LVTOT        =      F    write LOCPOT, total local potential
   LVHAR        =      F    write LOCPOT, Hartree potential only
   LELF         =      F    write electronic localiz. function (ELF)
   LORBIT       =      0    0 simple, 1 ext, 2 COOP (PROOUT), +10 PAW based schemes


 Dipole corrections
   LMONO  =      F    monopole corrections only (constant potential shift)
   LDIPOL =      F    correct potential (dipole corrections)
   IDIPOL =      0    1-x, 2-y, 3-z, 4-all directions 
   EPSILON=  1.0000000 bulk dielectric constant

 Exchange correlation treatment:
   GGA     =    --    GGA type
   LEXCH   =     8    internal setting for exchange type
   VOSKOWN=      0    Vosko Wilk Nusair interpolation
   LHFCALC =     F    Hartree Fock is set to
   LHFONE  =     F    Hartree Fock one center treatment
   AEXX    =    0.0000 exact exchange contribution

 Linear response parameters
   LEPSILON=     F    determine dielectric tensor
   LRPA    =     F    only Hartree local field effects (RPA)
   LNABLA  =     F    use nabla operator in PAW spheres
   LVEL    =     F    velocity operator in full k-point grid
   LINTERFAST=   F  fast interpolation
   KINTER  =     0    interpolate to denser k-point grid
   CSHIFT  =0.1000    complex shift for real part using Kramers Kronig
   OMEGAMAX=  -1.0    maximum frequency
   DEG_THRESHOLD= 0.2000000E-02 threshold for treating states as degnerate
   RTIME   =   -0.100 relaxation time in fs
  (WPLASMAI=    0.000 imaginary part of plasma frequency in eV, 0.658/RTIME)
   DFIELD  = 0.0000000 0.0000000 0.0000000 field for delta impulse in time
 
 Orbital magnetization related:
   ORBITALMAG=     F  switch on orbital magnetization
   LCHIMAG   =     F  perturbation theory with respect to B field
   DQ        =  0.001000  dq finite difference perturbation B field
   LLRAUG    =     F  two centre corrections for induced B field



--------------------------------------------------------------------------------------------------------


 conjugate gradient relaxation of ions
 charge density and potential will be updated during run
 non-spin polarized calculation
 RMM-DIIS sequential band-by-band and
  variant of blocked Davidson during initial phase
 perform sub-space diagonalisation
    before iterative eigenvector-optimisation
 modified Broyden-mixing scheme, WC =      100.0
 initial mixing is a Kerker type mixing with AMIX =  0.4000 and BMIX =      1.0000
 Hartree-type preconditioning will be used
 using additional bands           32
 real space projection scheme for non local part
 use partial core corrections
 calculate Harris-corrections to forces 
   (improved forces if not selfconsistent)
 use gradient corrections 
 use of overlap-Matrix (Vanderbilt PP)
 Methfessel and Paxton  Order N= 2 SIGMA  =   0.10


--------------------------------------------------------------------------------------------------------


  energy-cutoff  :      400.00
  volume of cell :      559.48
      direct lattice vectors                 reciprocal lattice vectors
     8.240006248  0.000000000  0.000000000     0.121359131 -0.000000000  0.000000000
     0.000000000  8.240006248  0.000000000    -0.000000000  0.121359131  0.000000000
     0.000000000  0.000000000  8.240006248    -0.000000000 -0.000000000  0.121359131

  length of vectors
     8.240006248  8.240006248  8.240006248     0.121359131  0.121359131  0.121359131


 
 k-points in units of 2pi/SCALE and weight: Automatic mesh                          
   0.00000000  0.00000000  0.00000000       0.008
   0.02427183  0.00000000  0.00000000       0.048
   0.04854365  0.00000000  0.00000000       0.048
   0.02427183  0.02427183  0.00000000       0.096
   0.04854365  0.02427183  0.00000000       0.192
   0.04854365  0.04854365  0.00000000       0.096
   0.02427183  0.02427183  0.02427183       0.064
   0.04854365  0.02427183  0.02427183       0.192
   0.04854365  0.04854365  0.02427183       0.192
   0.04854365  0.04854365  0.04854365       0.064
 
 k-points in reciprocal lattice and weights: Automatic mesh                          
   0.00000000  0.00000000  0.00000000       0.008
   0.20000000  0.00000000  0.00000000       0.048
   0.40000000  0.00000000  0.00000000       0.048
   0.20000000  0.20000000  0.00000000       0.096
   0.40000000  0.20000000  0.00000000       0.192
   0.40000000  0.40000000  0.00000000       0.096
   0.20000000  0.20000000  0.20000000       0.064
   0.40000000  0.20000000  0.20000000       0.192
   0.40000000  0.40000000  0.20000000       0.192
   0.40000000  0.40000000  0.40000000       0.064
 
 position of ions in fractional coordinates (direct lattice) 
   0.87500000  0.87500000  0.12500000
   0.37500000  0.12500000  0.37500000
   0.62500000  0.87500000  0.37500000
   0.12500000  0.12500000  0.12500000
   0.25000000  0.75000000  0.25000000
   0.00000000  0.00000000  0.50000000
   0.87500000  0.37500000  0.62500000
   0.37500000  0.62500000  0.87500000
   0.62500000  0.37500000  0.87500000
   0.12500000  0.62500000  0.62500000
   0.25000000  0.25000000  0.75000000
   0.00000000  0.50000000  0.00000000
   0.37500000  0.87500000  0.62500000
   0.87500000  0.12500000  0.87500000
   0.12500000  0.87500000  0.87500000
   0.62500000  0.12500000  0.62500000
   0.75000000  0.75000000  0.75000000
   0.50000000  0.00000000  0.00000000
   0.37500000  0.37500000  0.12500000
   0.87500000  0.62500000  0.37500000
   0.12500000  0.37500000  0.37500000
   0.62500000  0.62500000  0.12500000
   0.75000000  0.25000000  0.25000000
   0.50000000  0.50000000  0.50000000
   0.37630293  0.37630293  0.37630293
   0.87369707  0.12630293  0.12630293
   0.62630293  0.12630293  0.37369707
   0.12630293  0.87369707  0.12630293
   0.12369707  0.12369707  0.37630293
   0.12369707  0.37630293  0.12369707
   0.37369707  0.87369707  0.37369707
   0.37630293  0.12369707  0.12369707
   0.37630293  0.87630293  0.87630293
   0.87369707  0.62630293  0.62630293
   0.62630293  0.62630293  0.87369707
   0.12630293  0.37369707  0.62630293
   0.12369707  0.62369707  0.87630293
   0.12369707  0.87630293  0.62369707
   0.37369707  0.37369707  0.87369707
   0.37630293  0.62369707  0.62369707
   0.87630293  0.37630293  0.87630293
   0.37369707  0.12630293  0.62630293
   0.12630293  0.12630293  0.87369707
   0.62630293  0.87369707  0.62630293
   0.62369707  0.12369707  0.87630293
   0.62369707  0.37630293  0.62369707
   0.87369707  0.87369707  0.87369707
   0.87630293  0.12369707  0.62369707
   0.87630293  0.87630293  0.37630293
   0.37369707  0.62630293  0.12630293
   0.12630293  0.62630293  0.37369707
   0.62630293  0.37369707  0.12630293
   0.62369707  0.62369707  0.37630293
   0.62369707  0.87630293  0.12369707
   0.87369707  0.37369707  0.37369707
   0.87630293  0.62369707  0.12369707
 
 position of ions in cartesian coordinates  (Angst):
   7.21000547  7.21000547  1.03000078
   3.09000234  1.03000078  3.09000234
   5.15000391  7.21000547  3.09000234
   1.03000078  1.03000078  1.03000078
   2.06000156  6.18000469  2.06000156
   0.00000000  0.00000000  4.12000312
   7.21000547  3.09000234  5.15000391
   3.09000234  5.15000391  7.21000547
   5.15000391  3.09000234  7.21000547
   1.03000078  5.15000391  5.15000391
   2.06000156  2.06000156  6.18000469
   0.00000000  4.12000312  0.00000000
   3.09000234  7.21000547  5.15000391
   7.21000547  1.03000078  7.21000547
   1.03000078  7.21000547  7.21000547
   5.15000391  1.03000078  5.15000391
   6.18000469  6.18000469  6.18000469
   4.12000312  0.00000000  0.00000000
   3.09000234  3.09000234  1.03000078
   7.21000547  5.15000391  3.09000234
   1.03000078  3.09000234  3.09000234
   5.15000391  5.15000391  1.03000078
   6.18000469  2.06000156  2.06000156
   4.12000312  4.12000312  4.12000312
   3.10073852  3.10073852  3.10073852
   7.19926929  1.04073696  1.04073696
   5.16074009  1.04073696  3.07926616
   1.04073696  7.19926929  1.04073696
   1.01926460  1.01926460  3.10073852
   1.01926460  3.10073852  1.01926460
   3.07926616  7.19926929  3.07926616
   3.10073852  1.01926460  1.01926460
   3.10073852  7.22074165  7.22074165
   7.19926929  5.16074009  5.16074009
   5.16074009  5.16074009  7.19926929
   1.04073696  3.07926616  5.16074009
   1.01926460  5.13926772  7.22074165
   1.01926460  7.22074165  5.13926772
   3.07926616  3.07926616  7.19926929
   3.10073852  5.13926772  5.13926772
   7.22074165  3.10073852  7.22074165
   3.07926616  1.04073696  5.16074009
   1.04073696  1.04073696  7.19926929
   5.16074009  7.19926929  5.16074009
   5.13926772  1.01926460  7.22074165
   5.13926772  3.10073852  5.13926772
   7.19926929  7.19926929  7.19926929
   7.22074165  1.01926460  5.13926772
   7.22074165  7.22074165  3.10073852
   3.07926616  5.16074009  1.04073696
   1.04073696  5.16074009  3.07926616
   5.16074009  3.07926616  1.04073696
   5.13926772  5.13926772  3.10073852
   5.13926772  7.22074165  1.01926460
   7.19926929  3.07926616  3.07926616
   7.22074165  5.13926772  1.01926460
 


--------------------------------------------------------------------------------------------------------


 k-point  1 :   0.0000 0.0000 0.0000  plane waves:   10131
 k-point  2 :   0.2000 0.0000 0.0000  plane waves:   10151
 k-point  3 :   0.4000 0.0000 0.0000  plane waves:   10211
 k-point  4 :   0.2000 0.2000 0.0000  plane waves:   10169
 k-point  5 :   0.4000 0.2000 0.0000  plane waves:   10175
 k-point  6 :   0.4000 0.4000 0.0000  plane waves:   10141
 k-point  7 :   0.2000 0.2000 0.2000  plane waves:   10155
 k-point  8 :   0.4000 0.2000 0.2000  plane waves:   10154
 k-point  9 :   0.4000 0.4000 0.2000  plane waves:   10179
 k-point 10 :   0.4000 0.4000 0.4000  plane waves:   10129

 maximum and minimum number of plane-waves per node :      2568     2491

 maximum number of plane-waves:     10211
 maximum index in each direction: 
   IXMAX=   13   IYMAX=   13   IZMAX=   13
   IXMIN=  -13   IYMIN=  -13   IZMIN=  -13


 real space projection operators:
  total allocation   :      14449.75 KBytes
  max/ min on nodes  :       3756.00       3468.88


 parallel 3D FFT for wavefunctions:
    minimum data exchange during FFTs selected (reduces bandwidth)
 parallel 3D FFT for charge:
    minimum data exchange during FFTs selected (reduces bandwidth)


 total amount of memory used by VASP MPI-rank0    67170. kBytes
=======================================================================

   base      :      30000. kBytes
   nonlr-proj:      10142. kBytes
   fftplans  :       3985. kBytes
   grid      :       6277. kBytes
   one-center:         43. kBytes
   wavefun   :      16723. kBytes
 
     INWAV:  cpu time    0.0001: real time    0.0001
 Broyden mixing: mesh for mixing (old mesh)
   NGX = 27   NGY = 27   NGZ = 27
  (NGX  =108   NGY  =108   NGZ  =108)
  gives a total of  19683 points

 initial charge density was supplied:
 charge density of overlapping atoms calculated
 number of electron     248.0000000 magnetization 
 keeping initial charge density in first step


--------------------------------------------------------------------------------------------------------


 Maximum index for non-local projection operator         1606
 Maximum index for augmentation-charges          651 (set IRDMAX)


--------------------------------------------------------------------------------------------------------


 First call to EWALD:  gamma=   0.215
 Maximum number of real-space cells 3x 3x 3
 Maximum number of reciprocal cells 3x 3x 3

    FEWALD:  cpu time    0.0026: real time    0.0026


--------------------------------------- Iteration      1(   1)  ---------------------------------------


    POTLOK:  cpu time    0.0621: real time    0.0639
    SETDIJ:  cpu time    0.0075: real time    0.0078
     EDDAV:  cpu time    4.5891: real time    4.5910
       DOS:  cpu time    0.0016: real time    0.0016
    --------------------------------------------
      LOOP:  cpu time    4.6604: real time    4.6644

 eigenvalue-minimisations  :  3120
 total energy-change (2. order) : 0.8895509E+03  (-0.1010135E+05)
 number of electron     248.0000000 magnetization 
 augmentation part      248.0000000 magnetization 

 Free energy of the ion-electron system (eV)
  ---------------------------------------------------
  alpha Z        PSCENC =       348.62611497
  Ewald energy   TEWEN  =    -10094.73888558
  -Hartree energ DENC   =     -1428.92457509
  -exchange      EXHF   =         0.00000000
  -V(xc)+E(xc)   XCENC  =       213.98980728
  PAW double counting   =      7738.34714636    -7203.94574617
  entropy T*S    EENTRO =        -0.00710814
  eigenvalues    EBANDS =      1670.70021566
  atomic energy  EATOM  =      9645.50393724
  Solvation  Ediel_sol  =         0.00000000
  ---------------------------------------------------
  free energy    TOTEN  =       889.55090654 eV

  energy without entropy =      889.55801467  energy(sigma->0) =      889.55268357


--------------------------------------------------------------------------------------------------------




--------------------------------------- Iteration      1(   2)  ---------------------------------------


     EDDAV:  cpu time    5.3727: real time    5.3753
       DOS:  cpu time    0.0016: real time    0.0016
    --------------------------------------------
      LOOP:  cpu time    5.3743: real time    5.3769

 eigenvalue-minimisations  :  3912
 total energy-change (2. order) :-0.1143584E+04  (-0.1098332E+04)
 number of electron     248.0000000 magnetization 
 augmentation part      248.0000000 magnetization 

 Free energy of the ion-electron system (eV)
  ---------------------------------------------------
  alpha Z        PSCENC =       348.62611497
  Ewald energy   TEWEN  =    -10094.73888558
  -Hartree energ DENC   =     -1428.92457509
  -exchange      EXHF   =         0.00000000
  -V(xc)+E(xc)   XCENC  =       213.98980728
  PAW double counting   =      7738.34714636    -7203.94574617
  entropy T*S    EENTRO =        -0.01078690
  eigenvalues    EBANDS =       527.12005283
  atomic energy  EATOM  =      9645.50393724
  Solvation  Ediel_sol  =         0.00000000
  ---------------------------------------------------
  free energy    TOTEN  =      -254.03293505 eV

  energy without entropy =     -254.02214816  energy(sigma->0) =     -254.03023833


--------------------------------------------------------------------------------------------------------




--------------------------------------- Iteration      1(   3)  ---------------------------------------


     EDDAV:  cpu time    5.1913: real time    5.1923
       DOS:  cpu time    0.0016: real time    0.0016
    --------------------------------------------
      LOOP:  cpu time    5.1929: real time    5.1939

 eigenvalue-minimisations  :  3864
 total energy-change (2. order) :-0.9592749E+02  (-0.9191673E+02)
 number of electron     248.0000000 magnetization 
 augmentation part      248.0000000 magnetization 

 Free energy of the ion-electron system (eV)
  ---------------------------------------------------
  alpha Z        PSCENC =       348.62611497
  Ewald energy   TEWEN  =    -10094.73888558
  -Hartree energ DENC   =     -1428.92457509
  -exchange      EXHF   =         0.00000000
  -V(xc)+E(xc)   XCENC  =       213.98980728
  PAW double counting   =      7738.34714636    -7203.94574617
  entropy T*S    EENTRO =         0.00978624
  eigenvalues    EBANDS =       431.17199350
  atomic energy  EATOM  =      9645.50393724
  Solvation  Ediel_sol  =         0.00000000
  ---------------------------------------------------
  free energy    TOTEN  =      -349.96042124 eV

  energy without entropy =     -349.97020748  energy(sigma->0) =     -349.96286780


--------------------------------------------------------------------------------------------------------




--------------------------------------- Iteration      1(   4)  ---------------------------------------


     EDDAV:  cpu time    5.2116: real time    5.2133
       DOS:  cpu time    0.0018: real time    0.0018
    --------------------------------------------
      LOOP:  cpu time    5.2134: real time    5.2151

 eigenvalue-minimisations  :  3896
 total energy-change (2. order) :-0.3077479E+01  (-0.2982350E+01)
 number of electron     248.0000000 magnetization 
 augmentation part      248.0000000 magnetization 

 Free energy of the ion-electron system (eV)
  ---------------------------------------------------
  alpha Z        PSCENC =       348.62611497
  Ewald energy   TEWEN  =    -10094.73888558
  -Hartree energ DENC   =     -1428.92457509
  -exchange      EXHF   =         0.00000000
  -V(xc)+E(xc)   XCENC  =       213.98980728
  PAW double counting   =      7738.34714636    -7203.94574617
  entropy T*S    EENTRO =         0.00330066
  eigenvalues    EBANDS =       428.10100005
  atomic energy  EATOM  =      9645.50393724
  Solvation  Ediel_sol  =         0.00000000
  ---------------------------------------------------
  free energy    TOTEN  =      -353.03790028 eV

  energy without entropy =     -353.04120094  energy(sigma->0) =     -353.03872544


--------------------------------------------------------------------------------------------------------




--------------------------------------- Iteration      1(   5)  ---------------------------------------


     EDDAV:  cpu time    5.0450: real time    5.0465
       DOS:  cpu time    0.0016: real time    0.0016
    CHARGE:  cpu time    0.2698: real time    0.2698
    MIXING:  cpu time    0.0015: real time    0.0015
    --------------------------------------------
      LOOP:  cpu time    5.3180: real time    5.3195

 eigenvalue-minimisations  :  3784
 total energy-change (2. order) :-0.9058048E-01  (-0.8976671E-01)
 number of electron     248.0000007 magnetization 
 augmentation part       -0.7308893 magnetization 

 Broyden mixing:
  rms(total) = 0.41210E+01    rms(broyden)= 0.41203E+01
  rms(prec ) = 0.54676E+01
  weight for this iteration     100.00

 Free energy of the ion-electron system (eV)
  ---------------------------------------------------
  alpha Z        PSCENC =       348.62611497
  Ewald energy   TEWEN  =    -10094.73888558
  -Hartree energ DENC   =     -1428.92457509
  -exchange      EXHF   =         0.00000000
  -V(xc)+E(xc)   XCENC  =       213.98980728
  PAW double counting   =      7738.34714636    -7203.94574617
  entropy T*S    EENTRO =         0.00308929
  eigenvalues    EBANDS =       428.01063093
  atomic energy  EATOM  =      9645.50393724
  Solvation  Ediel_sol  =         0.00000000
  ---------------------------------------------------
  free energy    TOTEN  =      -353.12848076 eV

  energy without entropy =     -353.13157005  energy(sigma->0) =     -353.12925308


--------------------------------------------------------------------------------------------------------




--------------------------------------- Iteration      1(   6)  ---------------------------------------


    POTLOK:  cpu time    0.0530: real time    0.0533
    SETDIJ:  cpu time    0.0074: real time    0.0077
    EDDIAG:  cpu time    0.6549: real time    0.6548
  RMM-DIIS:  cpu time    2.6525: real time    2.6532
    ORTHCH:  cpu time    0.0892: real time    0.0892
       DOS:  cpu time    0.0016: real time    0.0016
    CHARGE:  cpu time    0.2723: real time    0.2723
    MIXING:  cpu time    0.0161: real time    0.0160
    --------------------------------------------
      LOOP:  cpu time    3.7470: real time    3.7480

 eigenvalue-minimisations  :  3120
 total energy-change (2. order) : 0.2875796E+02  (-0.1443323E+02)
 number of electron     247.9999993 magnetization 
 augmentation part       -3.3150730 magnetization 

 Broyden mixing:
  rms(total) = 0.18798E+01    rms(broyden)= 0.18790E+01
  rms(prec ) = 0.19593E+01
  weight for this iteration     100.00

 eigenvalues of (default mixing * dielectric matrix)
  average eigenvalue GAMMA=   1.0781
  1.0781

 Free energy of the ion-electron system (eV)
  ---------------------------------------------------
  alpha Z        PSCENC =       348.62611497
  Ewald energy   TEWEN  =    -10094.73888558
  -Hartree energ DENC   =     -1688.89702117
  -exchange      EXHF   =         0.00000000
  -V(xc)+E(xc)   XCENC  =       231.92540175
  PAW double counting   =     14344.60643936   -13812.30637661
  entropy T*S    EENTRO =         0.00292975
  eigenvalues    EBANDS =       700.90693921
  atomic energy  EATOM  =      9645.50393724
  Solvation  Ediel_sol  =         0.00000000
  ---------------------------------------------------
  free energy    TOTEN  =      -324.37052109 eV

  energy without entropy =     -324.37345084  energy(sigma->0) =     -324.37125353


--------------------------------------------------------------------------------------------------------




--------------------------------------- Iteration      1(   7)  ---------------------------------------


    POTLOK:  cpu time    0.0506: real time    0.0521
    SETDIJ:  cpu time    0.0073: real time    0.0076
    EDDIAG:  cpu time    0.6503: real time    0.6507
  RMM-DIIS:  cpu time    2.7907: real time    2.7909
    ORTHCH:  cpu time    0.0854: real time    0.0854
       DOS:  cpu time    0.0015: real time    0.0015
    CHARGE:  cpu time    0.2801: real time    0.2801
    MIXING:  cpu time    0.0016: real time    0.0016
    --------------------------------------------
      LOOP:  cpu time    3.8675: real time    3.8699

 eigenvalue-minimisations  :  3282
 total energy-change (2. order) : 0.3818362E+00  (-0.4392553E+00)
 number of electron     247.9999995 magnetization 
 augmentation part       -3.5042075 magnetization 

 Broyden mixing:
  rms(total) = 0.10488E+01    rms(broyden)= 0.10487E+01
  rms(prec ) = 0.11095E+01
  weight for this iteration     100.00

 eigenvalues of (default mixing * dielectric matrix)
  average eigenvalue GAMMA=   1.5885
  1.0715  2.1055

 Free energy of the ion-electron system (eV)
  ---------------------------------------------------
  alpha Z        PSCENC =       348.62611497
  Ewald energy   TEWEN  =    -10094.73888558
  -Hartree energ DENC   =     -1685.62658334
  -exchange      EXHF   =         0.00000000
  -V(xc)+E(xc)   XCENC  =       232.31580749
  PAW double counting   =     19685.99401586   -19154.33064330
  entropy T*S    EENTRO =         0.00138773
  eigenvalues    EBANDS =       698.26616404
  atomic energy  EATOM  =      9645.50393724
  Solvation  Ediel_sol  =         0.00000000
  ---------------------------------------------------
  free energy    TOTEN  =      -323.98868489 eV

  energy without entropy =     -323.99007262  energy(sigma->0) =     -323.98903182


--------------------------------------------------------------------------------------------------------




--------------------------------------- Iteration      1(   8)  ---------------------------------------


    POTLOK:  cpu time    0.0501: real time    0.0518
    SETDIJ:  cpu time    0.0070: real time    0.0074
    EDDIAG:  cpu time    0.6439: real time    0.6442
  RMM-DIIS:  cpu time    2.6387: real time    2.6384
    ORTHCH:  cpu time    0.0834: real time    0.0834
       DOS:  cpu time    0.0016: real time    0.0016
    CHARGE:  cpu time    0.2789: real time    0.2789
    MIXING:  cpu time    0.0015: real time    0.0015
    --------------------------------------------
      LOOP:  cpu time    3.7052: real time    3.7073

 eigenvalue-minimisations  :  3124
 total energy-change (2. order) : 0.1184210E+00  (-0.1730868E+00)
 number of electron     247.9999994 magnetization 
 augmentation part       -3.3127565 magnetization 

 Broyden mixing:
  rms(total) = 0.18745E+00    rms(broyden)= 0.18740E+00
  rms(prec ) = 0.27876E+00
  weight for this iteration     100.00

 eigenvalues of (default mixing * dielectric matrix)
  average eigenvalue GAMMA=   1.3877
  2.3025  0.9303  0.9303

 Free energy of the ion-electron system (eV)
  ---------------------------------------------------
  alpha Z        PSCENC =       348.62611497
  Ewald energy   TEWEN  =    -10094.73888558
  -Hartree energ DENC   =     -1661.68525485
  -exchange      EXHF   =         0.00000000
  -V(xc)+E(xc)   XCENC  =       231.57419832
  PAW double counting   =     26539.72796859   -26008.77444370
  entropy T*S    EENTRO =         0.00415882
  eigenvalues    EBANDS =       675.89194227
  atomic energy  EATOM  =      9645.50393724
  Solvation  Ediel_sol  =         0.00000000
  ---------------------------------------------------
  free energy    TOTEN  =      -323.87026393 eV

  energy without entropy =     -323.87442275  energy(sigma->0) =     -323.87130364


--------------------------------------------------------------------------------------------------------




--------------------------------------- Iteration      1(   9)  ---------------------------------------


    POTLOK:  cpu time    0.0515: real time    0.0517
    SETDIJ:  cpu time    0.0071: real time    0.0071
    EDDIAG:  cpu time    0.6419: real time    0.6419
  RMM-DIIS:  cpu time    2.7020: real time    2.7023
    ORTHCH:  cpu time    0.0839: real time    0.0839
       DOS:  cpu time    0.0016: real time    0.0016
    CHARGE:  cpu time    0.2764: real time    0.2764
    MIXING:  cpu time    0.0015: real time    0.0015
    --------------------------------------------
      LOOP:  cpu time    3.7659: real time    3.7663

 eigenvalue-minimisations  :  3190
 total energy-change (2. order) : 0.9849075E-01  (-0.1653542E-01)
 number of electron     247.9999994 magnetization 
 augmentation part       -3.3815447 magnetization 

 Broyden mixing:
  rms(total) = 0.71244E-01    rms(broyden)= 0.71238E-01
  rms(prec ) = 0.10306E+00
  weight for this iteration     100.00

 eigenvalues of (default mixing * dielectric matrix)
  average eigenvalue GAMMA=   1.2847
  2.3167  0.9151  0.9535  0.9535

 Free energy of the ion-electron system (eV)
  ---------------------------------------------------
  alpha Z        PSCENC =       348.62611497
  Ewald energy   TEWEN  =    -10094.73888558
  -Hartree energ DENC   =     -1673.68141491
  -exchange      EXHF   =         0.00000000
  -V(xc)+E(xc)   XCENC  =       232.44982621
  PAW double counting   =     27280.05706844   -26749.24933782
  entropy T*S    EENTRO =         0.00231771
  eigenvalues    EBANDS =       687.25860056
  atomic energy  EATOM  =      9645.50393724
  Solvation  Ediel_sol  =         0.00000000
  ---------------------------------------------------
  free energy    TOTEN  =      -323.77177318 eV

  energy without entropy =     -323.77409089  energy(sigma->0) =     -323.77235261


--------------------------------------------------------------------------------------------------------




--------------------------------------- Iteration      1(  10)  ---------------------------------------


    POTLOK:  cpu time    0.0491: real time    0.0509
    SETDIJ:  cpu time    0.0071: real time    0.0071
    EDDIAG:  cpu time    0.6456: real time    0.6456
  RMM-DIIS:  cpu time    2.7893: real time    2.7895
    ORTHCH:  cpu time    0.0858: real time    0.0858
       DOS:  cpu time    0.0017: real time    0.0017
    CHARGE:  cpu time    0.2768: real time    0.2768
    MIXING:  cpu time    0.0016: real time    0.0016
    --------------------------------------------
      LOOP:  cpu time    3.8570: real time    3.8589

 eigenvalue-minimisations  :  3285
 total energy-change (2. order) : 0.6303677E-02  (-0.1024591E-01)
 number of electron     247.9999994 magnetization 
 augmentation part       -3.4369409 magnetization 

 Broyden mixing:
  rms(total) = 0.24977E-01    rms(broyden)= 0.24924E-01
  rms(prec ) = 0.29266E-01
  weight for this iteration     100.00

 eigenvalues of (default mixing * dielectric matrix)
  average eigenvalue GAMMA=   1.5454
  2.3931  2.3931  0.9279  1.0065  1.0065

 Free energy of the ion-electron system (eV)
  ---------------------------------------------------
  alpha Z        PSCENC =       348.62611497
  Ewald energy   TEWEN  =    -10094.73888558
  -Hartree energ DENC   =     -1679.42141982
  -exchange      EXHF   =         0.00000000
  -V(xc)+E(xc)   XCENC  =       232.85974543
  PAW double counting   =     27386.46708366   -26855.72094267
  entropy T*S    EENTRO =         0.00178385
  eigenvalues    EBANDS =       692.65711342
  atomic energy  EATOM  =      9645.50393724
  Solvation  Ediel_sol  =         0.00000000
  ---------------------------------------------------
  free energy    TOTEN  =      -323.76546950 eV

  energy without entropy =     -323.76725335  energy(sigma->0) =     -323.76591547


--------------------------------------------------------------------------------------------------------




--------------------------------------- Iteration      1(  11)  ---------------------------------------


    POTLOK:  cpu time    0.0489: real time    0.0508
    SETDIJ:  cpu time    0.0072: real time    0.0075
    EDDIAG:  cpu time    0.6310: real time    0.6310
  RMM-DIIS:  cpu time    2.7291: real time    2.7288
    ORTHCH:  cpu time    0.0850: real time    0.0850
       DOS:  cpu time    0.0016: real time    0.0016
    CHARGE:  cpu time    0.2735: real time    0.2735
    MIXING:  cpu time    0.0016: real time    0.0016
    --------------------------------------------
      LOOP:  cpu time    3.7779: real time    3.7797

 eigenvalue-minimisations  :  3212
 total energy-change (2. order) :-0.3481747E-03  (-0.5772914E-03)
 number of electron     247.9999994 magnetization 
 augmentation part       -3.4287299 magnetization 

 Broyden mixing:
  rms(total) = 0.90596E-02    rms(broyden)= 0.90575E-02
  rms(prec ) = 0.13279E-01
  weight for this iteration     100.00

 eigenvalues of (default mixing * dielectric matrix)
  average eigenvalue GAMMA=   1.4891
  2.5462  2.4957  0.9858  0.9858  0.9606  0.9606

 Free energy of the ion-electron system (eV)
  ---------------------------------------------------
  alpha Z        PSCENC =       348.62611497
  Ewald energy   TEWEN  =    -10094.73888558
  -Hartree energ DENC   =     -1678.05232118
  -exchange      EXHF   =         0.00000000
  -V(xc)+E(xc)   XCENC  =       232.81099147
  PAW double counting   =     27323.68056083   -26792.95890992
  entropy T*S    EENTRO =         0.00205954
  eigenvalues    EBANDS =       691.36063496
  atomic energy  EATOM  =      9645.50393724
  Solvation  Ediel_sol  =         0.00000000
  ---------------------------------------------------
  free energy    TOTEN  =      -323.76581768 eV

  energy without entropy =     -323.76787722  energy(sigma->0) =     -323.76633256


--------------------------------------------------------------------------------------------------------




--------------------------------------- Iteration      1(  12)  ---------------------------------------


    POTLOK:  cpu time    0.0506: real time    0.0507
    SETDIJ:  cpu time    0.0072: real time    0.0075
    EDDIAG:  cpu time    0.6293: real time    0.6296
  RMM-DIIS:  cpu time    2.7580: real time    2.7578
    ORTHCH:  cpu time    0.0841: real time    0.0841
       DOS:  cpu time    0.0017: real time    0.0017
    CHARGE:  cpu time    0.2762: real time    0.2762
    MIXING:  cpu time    0.0017: real time    0.0017
    --------------------------------------------
      LOOP:  cpu time    3.8087: real time    3.8093

 eigenvalue-minimisations  :  3235
 total energy-change (2. order) : 0.6986092E-04  (-0.2605577E-03)
 number of electron     247.9999994 magnetization 
 augmentation part       -3.4353314 magnetization 

 Broyden mixing:
  rms(total) = 0.43169E-02    rms(broyden)= 0.43115E-02
  rms(prec ) = 0.67048E-02
  weight for this iteration     100.00

 eigenvalues of (default mixing * dielectric matrix)
  average eigenvalue GAMMA=   1.5368
  2.6041  2.2758  1.9859  0.9594  0.9594  0.9865  0.9865

 Free energy of the ion-electron system (eV)
  ---------------------------------------------------
  alpha Z        PSCENC =       348.62611497
  Ewald energy   TEWEN  =    -10094.73888558
  -Hartree energ DENC   =     -1678.98668293
  -exchange      EXHF   =         0.00000000
  -V(xc)+E(xc)   XCENC  =       232.87945808
  PAW double counting   =     27310.64531934   -26779.93012736
  entropy T*S    EENTRO =         0.00189809
  eigenvalues    EBANDS =       692.23322033
  atomic energy  EATOM  =      9645.50393724
  Solvation  Ediel_sol  =         0.00000000
  ---------------------------------------------------
  free energy    TOTEN  =      -323.76574782 eV

  energy without entropy =     -323.76764591  energy(sigma->0) =     -323.76622234


--------------------------------------------------------------------------------------------------------




--------------------------------------- Iteration      1(  13)  ---------------------------------------


    POTLOK:  cpu time    0.0508: real time    0.0510
    SETDIJ:  cpu time    0.0073: real time    0.0076
    EDDIAG:  cpu time    0.6288: real time    0.6292
  RMM-DIIS:  cpu time    1.8139: real time    1.8137
    ORTHCH:  cpu time    0.0824: real time    0.0824
       DOS:  cpu time    0.0016: real time    0.0016
    --------------------------------------------
      LOOP:  cpu time    2.5847: real time    2.5856

 eigenvalue-minimisations  :  2008
 total energy-change (2. order) : 0.7195427E-04  (-0.2437366E-04)
 number of electron     247.9999994 magnetization 
 augmentation part       -3.4353314 magnetization 

 Free energy of the ion-electron system (eV)
  ---------------------------------------------------
  alpha Z        PSCENC =       348.62611497
  Ewald energy   TEWEN  =    -10094.73888558
  -Hartree energ DENC   =     -1678.65538242
  -exchange      EXHF   =         0.00000000
  -V(xc)+E(xc)   XCENC  =       232.86071242
  PAW double counting   =     27312.30066375   -26781.58204553
  entropy T*S    EENTRO =         0.00193614
  eigenvalues    EBANDS =       691.91727316
  atomic energy  EATOM  =      9645.50393724
  Solvation  Ediel_sol  =         0.00000000
  ---------------------------------------------------
  free energy    TOTEN  =      -323.76567586 eV

  energy without entropy =     -323.76761200  energy(sigma->0) =     -323.76615990


--------------------------------------------------------------------------------------------------------




 average (electrostatic) potential at core
  the test charge radii are     0.7089  0.9892
  (the norm of the test charge is              1.0000)
       1 -59.6932       2 -59.6932       3 -59.6932       4 -59.6932       5 -59.2108
       6 -59.2108       7 -59.6932       8 -59.6932       9 -59.6932      10 -59.6932
      11 -59.2108      12 -59.2108      13 -59.6932      14 -59.6932      15 -59.6932
      16 -59.6932      17 -59.2108      18 -59.2108      19 -59.6932      20 -59.6932
      21 -59.6932      22 -59.6932      23 -59.2108      24 -59.2108      25 -79.3343
      26 -79.3343      27 -79.3343      28 -79.3343      29 -79.3343      30 -79.3343
      31 -79.3343      32 -79.3343      33 -79.3343      34 -79.3343      35 -79.3343
      36 -79.3343      37 -79.3343      38 -79.3343      39 -79.3343      40 -79.3343
      41 -79.3343      42 -79.3343      43 -79.3343      44 -79.3343      45 -79.3343
      46 -79.3343      47 -79.3343      48 -79.3343      49 -79.3343      50 -79.3343
      51 -79.3343      52 -79.3343      53 -79.3343      54 -79.3343      55 -79.3343
      56 -79.3343
 
 
 
 E-fermi :  11.5336     XC(G=0): -11.9650     alpha+bet :-17.4454


 k-point     1 :       0.0000    0.0000    0.0000
  band No.  band energies     occupation 
      1      -9.0066      2.00000
      2      -7.7775      2.00000
      3      -7.7775      2.00000
      4      -7.7775      2.00000
      5      -7.7775      2.00000
      6      -7.7775      2.00000
      7      -7.7775      2.00000
      8      -7.2367      2.00000
      9      -7.1022      2.00000
     10      -7.1022      2.00000
     11      -7.1022      2.00000
     12      -7.1022      2.00000
     13      -7.1022      2.00000
     14      -7.1022      2.00000
     15      -6.9276      2.00000
     16      -5.8979      2.00000
     17      -5.8979      2.00000
     18      -5.8979      2.00000
     19      -5.8979      2.00000
     20      -5.8979      2.00000
     21      -5.8979      2.00000
     22      -5.7331      2.00000
     23      -5.7331      2.00000
     24      -5.7331      2.00000
     25      -0.3833      2.00000
     26      -0.2138      2.00000
     27      -0.2138      2.00000
     28      -0.2138      2.00000
     29       0.3335      2.00000
     30       0.3335      2.00000
     31       0.3335      2.00000
     32       0.3335      2.00000
     33       0.3335      2.00000
     34       0.3335      2.00000
     35       0.9069      2.00000
     36       0.9069      2.00000
     37       0.9069      2.00000
     38       0.9069      2.00000
     39       0.9069      2.00000
     40       0.9069      2.00000
     41       1.5881      2.00000
     42       1.5881      2.00000
     43       1.5881      2.00000
     44       1.9760      2.00000
     45       1.9760      2.00000
     46       1.9760      2.00000
     47       1.9760      2.00000
     48       1.9760      2.00000
     49       1.9760      2.00000
     50       2.0587      2.00000
     51       2.0587      2.00000
     52       2.5148      2.00000
     53       2.5148      2.00000
     54       2.5148      2.00000
     55       2.5148      2.00000
     56       2.5148      2.00000
     57       2.5148      2.00000
     58       3.5485      2.00000
     59       3.5485      2.00000
     60       3.5485      2.00000
     61       3.5485      2.00000
     62       3.5485      2.00000
     63       3.5485      2.00000
     64       3.7703      2.00000
     65       3.7703      2.00000
     66       3.7703      2.00000
     67       3.7703      2.00000
     68       3.7703      2.00000
     69       3.7703      2.00000
     70       3.8165      2.00000
     71       3.8165      2.00000
     72       3.8165      2.00000
     73       3.8165      2.00000
     74       3.8165      2.00000
     75       3.8165      2.00000
     76       4.1419      2.00000
     77       4.1419      2.00000
     78       4.1419      2.00000
     79       4.5236      2.00000
     80       4.5236      2.00000
     81       4.5236      2.00000
     82       4.5236      2.00000
     83       4.5236      2.00000
     84       4.5236      2.00000
     85       5.7563      2.00000
     86       5.7563      2.00000
     87       5.7563      2.00000
     88       6.4532      2.00000
     89       6.4532      2.00000
     90       6.4532      2.00000
     91       6.4532      2.00000
     92       6.4532      2.00000
     93       6.4532      2.00000
     94       6.9120      2.00000
     95       6.9496      2.00000
     96       6.9496      2.00000
     97       6.9496      2.00000
     98       9.6955      2.00000
     99       9.6955      2.00000
    100       9.6955      2.00000
    101       9.6955      2.00000
    102       9.6955      2.00000
    103       9.6955      2.00000
    104       9.8707      2.00000
    105       9.8707      2.00000
    106       9.8707      2.00000
    107      10.3771      2.00000
    108      10.3771      2.00000
    109      10.3771      2.00000
    110      10.3771      2.00000
    111      10.3771      2.00000
    112      10.3771      2.00000
    113      10.6547      2.00000
    114      10.6547      2.00000
    115      10.6547      2.00000
    116      10.6768      2.00000
    117      10.6768      2.00000
    118      10.6768      2.00000
    119      10.6768      2.00000
    120      10.6768      2.00000
    121      10.6768      2.00000
    122      11.0246      2.00000
    123      11.0246      2.00000
    124      11.0246      2.00000
    125      11.0246      2.00000
    126      11.0246      2.00000
    127      11.0246      2.00000
    128      12.4794      0.00000
    129      12.5528      0.00000
    130      12.5528      0.00000
    131      12.5528      0.00000
    132      12.5528      0.00000
    133      12.5528      0.00000
    134      12.5528      0.00000
    135      12.7403      0.00000
    136      12.7403      0.00000
    137      13.1550      0.00000
    138      13.1551      0.00000
    139      13.1551      0.00000
    140      13.1551      0.00000
    141      13.1551      0.00000
    142      13.1551      0.00000
    143      13.2177      0.00000
    144      13.2177      0.00000
    145      13.2177      0.00000
    146      13.2177      0.00000
    147      13.2177      0.00000
    148      13.2177      0.00000
    149      14.1852      0.00000
    150      14.1854      0.00000
    151      14.3005      0.00000
    152      14.3005      0.00000
    153      14.3010      0.00000
    154      14.8953      0.00000
    155      15.6985      0.00000
    156      15.7162      0.00000

 k-point     2 :       0.2000    0.0000    0.0000
  band No.  band energies     occupation 
      1      -8.9484      2.00000
      2      -8.1495      2.00000
      3      -7.7482      2.00000
      4      -7.7482      2.00000
      5      -7.7482      2.00000
      6      -7.7482      2.00000
      7      -7.5164      2.00000
      8      -7.2568      2.00000
      9      -7.1643      2.00000
     10      -7.1643      2.00000
     11      -7.1643      2.00000
     12      -7.1643      2.00000
     13      -7.1434      2.00000
     14      -6.9540      2.00000
     15      -6.8714      2.00000
     16      -5.8829      2.00000
     17      -5.8829      2.00000
     18      -5.8559      2.00000
     19      -5.8559      2.00000
     20      -5.8559      2.00000
     21      -5.8559      2.00000
     22      -5.8285      2.00000
     23      -5.7493      2.00000
     24      -5.7493      2.00000
     25      -0.2535      2.00000
     26      -0.1827      2.00000
     27      -0.1827      2.00000
     28      -0.0863      2.00000
     29       0.2507      2.00000
     30       0.2507      2.00000
     31       0.3418      2.00000
     32       0.3418      2.00000
     33       0.3418      2.00000
     34       0.3418      2.00000
     35       0.6705      2.00000
     36       0.8624      2.00000
     37       0.8624      2.00000
     38       0.8625      2.00000
     39       0.8625      2.00000
     40       1.0361      2.00000
     41       1.1213      2.00000
     42       1.3661      2.00000
     43       1.7108      2.00000
     44       1.7108      2.00000
     45       1.9498      2.00000
     46       1.9498      2.00000
     47       1.9498      2.00000
     48       1.9498      2.00000
     49       2.1234      2.00000
     50       2.2532      2.00000
     51       2.4434      2.00000
     52       2.4434      2.00000
     53       2.4434      2.00000
     54       2.4434      2.00000
     55       2.5636      2.00000
     56       2.5636      2.00000
     57       2.7071      2.00000
     58       3.0385      2.00000
     59       3.3918      2.00000
     60       3.3918      2.00000
     61       3.3918      2.00000
     62       3.3918      2.00000
     63       3.5904      2.00000
     64       3.5904      2.00000
     65       3.7825      2.00000
     66       3.7825      2.00000
     67       3.7825      2.00000
     68       3.7825      2.00000
     69       3.8619      2.00000
     70       4.0601      2.00000
     71       4.0799      2.00000
     72       4.0799      2.00000
     73       4.1055      2.00000
     74       4.1185      2.00000
     75       4.2390      2.00000
     76       4.2390      2.00000
     77       4.2390      2.00000
     78       4.2390      2.00000
     79       4.5451      2.00000
     80       4.5451      2.00000
     81       4.5451      2.00000
     82       4.5451      2.00000
     83       4.7133      2.00000
     84       4.7133      2.00000
     85       5.6050      2.00000
     86       5.6050      2.00000
     87       5.6166      2.00000
     88       6.2750      2.00000
     89       6.2750      2.00000
     90       6.2750      2.00000
     91       6.2750      2.00000
     92       6.3996      2.00000
     93       6.4807      2.00000
     94       6.4807      2.00000
     95       6.8648      2.00000
     96       6.8648      2.00000
     97       7.5107      2.00000
     98       8.9805      2.00000
     99       9.6958      2.00000
    100       9.7729      2.00000
    101       9.7729      2.00000
    102       9.7729      2.00000
    103       9.7729      2.00000
    104       9.8478      2.00000
    105      10.0296      2.00000
    106      10.0296      2.00000
    107      10.0296      2.00000
    108      10.0296      2.00000
    109      10.2056      2.00000
    110      10.2056      2.00000
    111      10.2729      2.00000
    112      10.3531      2.00000
    113      10.3531      2.00000
    114      10.5484      2.00000
    115      10.5484      2.00000
    116      10.5484      2.00000
    117      10.5484      2.00000
    118      10.6162      2.00000
    119      10.6162      2.00000
    120      10.6854      2.00000
    121      11.2460      1.99896
    122      11.2854      1.99563
    123      11.2854      1.99563
    124      11.5411      0.84321
    125      11.5411      0.84321
    126      11.5411      0.84310
    127      11.5411      0.84310
    128      12.2617      0.00000
    129      12.2617      0.00000
    130      12.2617      0.00000
    131      12.2618      0.00000
    132      12.4939      0.00000
    133      12.6975      0.00000
    134      12.7035      0.00000
    135      12.7202      0.00000
    136      12.7837      0.00000
    137      12.8478      0.00000
    138      13.0527      0.00000
    139      13.0530      0.00000
    140      13.1736      0.00000
    141      13.1736      0.00000
    142      13.1737      0.00000
    143      13.1737      0.00000
    144      13.5262      0.00000
    145      13.5263      0.00000
    146      13.5263      0.00000
    147      13.5264      0.00000
    148      13.7635      0.00000
    149      13.9027      0.00000
    150      14.0795      0.00000
    151      14.2672      0.00000
    152      14.2676      0.00000
    153      14.3665      0.00000
    154      15.2219      0.00000
    155      15.4562      0.00000
    156      15.5031      0.00000

 k-point     3 :       0.4000    0.0000    0.0000
  band No.  band energies     occupation 
      1      -8.7769      2.00000
      2      -8.5025      2.00000
      3      -7.6865      2.00000
      4      -7.6865      2.00000
      5      -7.6865      2.00000
      6      -7.6865      2.00000
      7      -7.3912      2.00000
      8      -7.3116      2.00000
      9      -7.2737      2.00000
     10      -7.2737      2.00000
     11      -7.2736      2.00000
     12      -7.2736      2.00000
     13      -7.0972      2.00000
     14      -7.0210      2.00000
     15      -6.4798      2.00000
     16      -6.0966      2.00000
     17      -5.8426      2.00000
     18      -5.8426      2.00000
     19      -5.7927      2.00000
     20      -5.7927      2.00000
     21      -5.7927      2.00000
     22      -5.7927      2.00000
     23      -5.7917      2.00000
     24      -5.7917      2.00000
     25      -0.0850      2.00000
     26      -0.0850      2.00000
     27       0.0756      2.00000
     28       0.0756      2.00000
     29       0.1145      2.00000
     30       0.2634      2.00000
     31       0.3567      2.00000
     32       0.3567      2.00000
     33       0.3567      2.00000
     34       0.3567      2.00000
     35       0.5626      2.00000
     36       0.7031      2.00000
     37       0.7254      2.00000
     38       0.7310      2.00000
     39       0.7884      2.00000
     40       0.7884      2.00000
     41       0.7884      2.00000
     42       0.7884      2.00000
     43       1.9084      2.00000
     44       1.9084      2.00000
     45       1.9084      2.00000
     46       1.9084      2.00000
     47       2.0336      2.00000
     48       2.0336      2.00000
     49       2.3117      2.00000
     50       2.3828      2.00000
     51       2.3828      2.00000
     52       2.3828      2.00000
     53       2.3828      2.00000
     54       2.4195      2.00000
     55       2.4195      2.00000
     56       2.6204      2.00000
     57       2.6409      2.00000
     58       3.1603      2.00000
     59       3.1603      2.00000
     60       3.1603      2.00000
[...]
    120      11.4194      2.09551
    121      11.4194      2.09551
    122      11.4194      2.09551
    123      11.5107      1.33487
    124      11.5107      1.33487
    125      12.0304      0.00000
    126      12.0304      0.00000
    127      12.1257      0.00000
    128      12.1257      0.00000
    129      12.1257      0.00000
    130      12.2516      0.00000
    131      12.2516      0.00000
    132      12.2516      0.00000
    133      12.9856      0.00000
    134      12.9856      0.00000
    135      12.9856      0.00000
    136      13.3315      0.00000
    137      13.4412      0.00000
    138      13.4412      0.00000
    139      13.4412      0.00000
    140      13.4711      0.00000
    141      13.4711      0.00000
    142      13.4711      0.00000
    143      13.6551      0.00000
    144      13.6551      0.00000
    145      13.6971      0.00000
    146      13.6971      0.00000
    147      13.6971      0.00000
    148      13.8854      0.00000
    149      13.8855      0.00000
    150      13.8856      0.00000
    151      14.0158      0.00000
    152      14.0160      0.00000
    153      14.1582      0.00000
    154      14.2694      0.00000
    155      14.2811      0.00000
    156      14.3175      0.00000


--------------------------------------------------------------------------------------------------------


 soft charge-density along one line, spin component           1
         0         1         2         3         4         5         6         7         8         9
 total charge-density along one line
 
 pseudopotential strength for first ion, spin component:           1
 12.206  14.626   0.000   0.000   0.000   0.000   0.000   0.000
 14.626  17.526   0.000   0.000   0.000   0.000   0.000   0.000
  0.000   0.000  -5.686  -0.003   0.003  -7.531  -0.004   0.004
  0.000   0.000  -0.003  -5.686  -0.003  -0.004  -7.531  -0.004
  0.000   0.000   0.003  -0.003  -5.686   0.004  -0.004  -7.531
  0.000   0.000  -7.531  -0.004   0.004  -9.247  -0.007   0.007
  0.000   0.000  -0.004  -7.531  -0.004  -0.007  -9.247  -0.007
  0.000   0.000   0.004  -0.004  -7.531   0.007  -0.007  -9.247
 total augmentation occupancy for first ion, spin component:           1
  6.347  -3.140   0.000  -0.000  -0.000  -0.000   0.000   0.000
 -3.140   2.140   0.000   0.000   0.000   0.000  -0.000  -0.000
  0.000   0.000   1.936  -0.039   0.039  -0.311   0.003  -0.003
 -0.000   0.000  -0.039   1.936  -0.039   0.003  -0.311   0.003
 -0.000   0.000   0.039  -0.039   1.936  -0.003   0.003  -0.311
 -0.000   0.000  -0.311   0.003  -0.003   0.062   0.001  -0.001
 -0.000  -0.000   0.003  -0.311   0.003   0.001   0.062   0.001
  0.000  -0.000  -0.003   0.003  -0.311  -0.001   0.001   0.062


------------------------ aborting loop because EDIFF is reached ----------------------------------------


    CHARGE:  cpu time    0.2726: real time    0.2726
    FORLOC:  cpu time    0.0236: real time    0.0236
    FORNL :  cpu time    1.3038: real time    1.3039
    STRESS:  cpu time    3.9191: real time    3.9191
    FORCOR:  cpu time    0.0719: real time    0.0719
    FORHAR:  cpu time    0.0333: real time    0.0333
    MIXING:  cpu time    0.0015: real time    0.0015
    OFIELD:  cpu time    0.0000: real time    0.0000

  FORCE on cell =-STRESS in cart. coord.  units (eV):
  Direction    XX          YY          ZZ          XY          YZ          ZX
  --------------------------------------------------------------------------------------
  Alpha Z   348.62611   348.62611   348.62611
  Ewald   -3365.08864 -3365.08864 -3365.08864     0.00000     0.00000     0.00000
  Hartree   559.26514   559.26514   559.26514    -0.00000    -0.00000    -0.00000
  E(xc)    -942.11931  -942.11931  -942.11931    -0.00000    -0.00000    -0.00000
  Local    -678.33280  -678.33280  -678.33280    -0.00000    -0.00000    -0.00000
  n-local   961.25470   961.40426   961.24188     1.78380     2.71532     1.33077
  augment  -175.08069  -175.08069  -175.08069     0.00000     0.00000     0.00000
  Kinetic  3355.60004  3369.17257  3390.04152    -4.41080    -4.21193    -2.28324
  Fock        0.00000     0.00000     0.00000     0.00000     0.00000     0.00000
  -------------------------------------------------------------------------------------
  Total      80.17480    80.17480    80.17480     0.00000     0.00000     0.00000
  in kB     229.59680   229.59680   229.59680     0.00000     0.00000     0.00000
  external pressure =      229.60 kB  Pullay stress =        0.00 kB


 VOLUME and BASIS-vectors are now :
 -----------------------------------------------------------------------------
  energy-cutoff  :      400.00
  volume of cell :      559.48
      direct lattice vectors                 reciprocal lattice vectors
     8.240006248  0.000000000  0.000000000     0.121359131 -0.000000000  0.000000000
     0.000000000  8.240006248  0.000000000    -0.000000000  0.121359131  0.000000000
     0.000000000  0.000000000  8.240006248    -0.000000000 -0.000000000  0.121359131

  length of vectors
     8.240006248  8.240006248  8.240006248     0.121359131  0.121359131  0.121359131


 FORCES acting on ions
    electron-ion (+dipol)            ewald-force                    non-local-force                 convergence-correction
 -----------------------------------------------------------------------------------------------
   0.273E-11 0.117E-11 0.124E-11   0.772E-14 -.711E-14 0.203E-13   0.170E-19 -.297E-19 0.218E-19   -.154E-12 0.429E-12 -.267E-13
   -.770E-12 0.553E-14 -.700E-12   -.332E-13 -.148E-13 0.209E-13   0.187E-19 -.198E-19 0.376E-19   -.148E-12 -.666E-12 -.318E-12
   0.434E-12 0.416E-12 -.221E-12   -.409E-13 0.462E-13 0.124E-13   0.273E-19 -.431E-20 -.275E-19   -.213E-12 0.111E-12 0.131E-12
   0.319E-12 -.673E-13 0.778E-12   -.178E-13 0.101E-13 -.860E-15   0.173E-19 -.551E-20 0.347E-20   0.564E-13 0.165E-12 -.240E-13
   0.107E-12 0.318E-12 0.334E-12   0.888E-14 -.311E-13 0.444E-14   -.610E-18 0.708E-18 -.430E-17   -.561E-13 0.610E-12 -.110E-12
   -.172E-13 -.181E-13 0.115E-12   0.355E-13 -.195E-13 0.151E-13   0.144E-17 -.200E-17 0.307E-17   0.233E-12 -.384E-12 0.206E-13
   -.222E-11 0.169E-11 0.124E-11   -.518E-14 -.266E-14 -.101E-14   0.347E-19 -.181E-19 -.174E-20   -.175E-12 0.161E-15 0.598E-12
   -.599E-12 -.344E-12 0.315E-12   -.258E-13 -.105E-13 0.320E-13   0.139E-19 -.350E-19 0.171E-19   0.332E-12 -.287E-12 -.637E-13
   0.107E-11 0.570E-13 -.239E-12   -.462E-13 0.355E-13 0.000E+00   0.292E-19 -.240E-19 0.469E-20   0.415E-13 -.940E-14 0.797E-13
   0.322E-12 0.628E-12 0.163E-11   -.231E-13 0.567E-14 0.182E-13   0.302E-19 -.326E-19 0.376E-21   -.175E-14 0.231E-12 0.126E-12
   0.103E-12 0.125E-12 0.473E-12   0.799E-14 -.622E-14 0.107E-13   -.581E-17 0.410E-17 -.358E-17   -.692E-13 0.224E-12 0.367E-12
   -.276E-13 0.134E-12 -.268E-13   -.142E-13 -.711E-14 -.213E-13   0.109E-17 0.112E-17 0.271E-17   -.110E-13 -.484E-12 -.159E-12
   -.388E-12 0.968E-12 -.534E-12   -.412E-13 -.111E-13 0.579E-14   0.411E-19 -.239E-19 0.183E-20   0.182E-12 -.106E-12 -.294E-12
   0.248E-11 0.409E-13 0.221E-11   -.361E-13 -.245E-13 0.178E-14   0.318E-19 -.345E-19 0.341E-19   -.322E-12 0.237E-12 0.432E-12
   0.326E-12 0.139E-12 0.116E-11   -.568E-13 0.711E-14 0.178E-14   0.429E-19 -.202E-19 -.556E-20   0.106E-12 0.653E-13 -.368E-13
   -.254E-13 0.597E-12 -.832E-12   -.377E-13 -.105E-13 -.114E-13   0.268E-19 -.259E-19 -.608E-20   -.502E-13 -.241E-12 0.519E-12
   0.221E-12 0.297E-11 0.161E-11   0.888E-15 -.213E-13 -.107E-13   -.251E-17 0.643E-18 -.358E-17   -.450E-12 -.273E-12 -.580E-12
   0.100E-12 -.266E-13 0.129E-11   0.213E-13 -.115E-13 0.133E-13   0.157E-17 0.373E-18 0.401E-17   0.274E-12 0.422E-12 0.459E-12
   -.970E-12 -.875E-12 0.491E-13   -.397E-13 0.799E-14 -.230E-13   0.314E-19 -.297E-19 0.121E-19   -.161E-13 -.251E-12 -.661E-12
   -.922E-12 0.348E-11 0.186E-11   -.597E-13 -.279E-13 0.497E-13   0.239E-19 -.336E-19 0.173E-19   0.302E-13 0.250E-12 0.330E-12
   0.381E-12 -.464E-12 0.390E-12   -.799E-13 0.178E-14 -.355E-14   0.342E-19 -.171E-19 -.166E-19   -.586E-13 -.195E-12 -.299E-12
   0.900E-13 -.552E-12 -.660E-13   -.497E-13 0.316E-14 0.666E-14   0.309E-19 -.190E-19 -.656E-20   -.114E-12 -.138E-12 -.523E-12
   0.214E-12 0.595E-12 -.127E-11   -.888E-15 -.373E-13 0.444E-14   -.166E-17 -.307E-17 -.257E-17   0.203E-12 -.465E-12 -.985E-12
   0.100E-12 -.143E-11 -.581E-12   0.284E-13 -.275E-13 -.355E-14   0.468E-17 -.300E-17 0.364E-17   0.202E-13 0.450E-12 0.713E-12
   -.576E+00 -.576E+00 -.576E+00   0.260E+01 0.260E+01 0.260E+01   -.202E+01 -.202E+01 -.202E+01   -.321E-02 -.321E-02 -.321E-02
   0.576E+00 -.576E+00 -.576E+00   -.260E+01 0.260E+01 0.260E+01   0.202E+01 -.202E+01 -.202E+01   0.321E-02 -.321E-02 -.321E-02
   -.576E+00 -.576E+00 0.576E+00   0.260E+01 0.260E+01 -.260E+01   -.202E+01 -.202E+01 0.202E+01   -.321E-02 -.321E-02 0.321E-02
   -.576E+00 0.576E+00 -.576E+00   0.260E+01 -.260E+01 0.260E+01   -.202E+01 0.202E+01 -.202E+01   -.321E-02 0.321E-02 -.321E-02
   0.576E+00 0.576E+00 -.576E+00   -.260E+01 -.260E+01 0.260E+01   0.202E+01 0.202E+01 -.202E+01   0.321E-02 0.321E-02 -.321E-02
   0.576E+00 -.576E+00 0.576E+00   -.260E+01 0.260E+01 -.260E+01   0.202E+01 -.202E+01 0.202E+01   0.321E-02 -.321E-02 0.321E-02
   0.576E+00 0.576E+00 0.576E+00   -.260E+01 -.260E+01 -.260E+01   0.202E+01 0.202E+01 0.202E+01   0.321E-02 0.321E-02 0.321E-02
   -.576E+00 0.576E+00 0.576E+00   0.260E+01 -.260E+01 -.260E+01   -.202E+01 0.202E+01 0.202E+01   -.321E-02 0.321E-02 0.321E-02
   -.576E+00 -.576E+00 -.576E+00   0.260E+01 0.260E+01 0.260E+01   -.202E+01 -.202E+01 -.202E+01   -.321E-02 -.321E-02 -.321E-02
   0.576E+00 -.576E+00 -.576E+00   -.260E+01 0.260E+01 0.260E+01   0.202E+01 -.202E+01 -.202E+01   0.321E-02 -.321E-02 -.321E-02
   -.576E+00 -.576E+00 0.576E+00   0.260E+01 0.260E+01 -.260E+01   -.202E+01 -.202E+01 0.202E+01   -.321E-02 -.321E-02 0.321E-02
   -.576E+00 0.576E+00 -.576E+00   0.260E+01 -.260E+01 0.260E+01   -.202E+01 0.202E+01 -.202E+01   -.321E-02 0.321E-02 -.321E-02
   0.576E+00 0.576E+00 -.576E+00   -.260E+01 -.260E+01 0.260E+01   0.202E+01 0.202E+01 -.202E+01   0.321E-02 0.321E-02 -.321E-02
   0.576E+00 -.576E+00 0.576E+00   -.260E+01 0.260E+01 -.260E+01   0.202E+01 -.202E+01 0.202E+01   0.321E-02 -.321E-02 0.321E-02
   0.576E+00 0.576E+00 0.576E+00   -.260E+01 -.260E+01 -.260E+01   0.202E+01 0.202E+01 0.202E+01   0.321E-02 0.321E-02 0.321E-02
   -.576E+00 0.576E+00 0.576E+00   0.260E+01 -.260E+01 -.260E+01   -.202E+01 0.202E+01 0.202E+01   -.321E-02 0.321E-02 0.321E-02
   -.576E+00 -.576E+00 -.576E+00   0.260E+01 0.260E+01 0.260E+01   -.202E+01 -.202E+01 -.202E+01   -.321E-02 -.321E-02 -.321E-02
   0.576E+00 -.576E+00 -.576E+00   -.260E+01 0.260E+01 0.260E+01   0.202E+01 -.202E+01 -.202E+01   0.321E-02 -.321E-02 -.321E-02
   -.576E+00 -.576E+00 0.576E+00   0.260E+01 0.260E+01 -.260E+01   -.202E+01 -.202E+01 0.202E+01   -.321E-02 -.321E-02 0.321E-02
   -.576E+00 0.576E+00 -.576E+00   0.260E+01 -.260E+01 0.260E+01   -.202E+01 0.202E+01 -.202E+01   -.321E-02 0.321E-02 -.321E-02
   0.576E+00 0.576E+00 -.576E+00   -.260E+01 -.260E+01 0.260E+01   0.202E+01 0.202E+01 -.202E+01   0.321E-02 0.321E-02 -.321E-02
   0.576E+00 -.576E+00 0.576E+00   -.260E+01 0.260E+01 -.260E+01   0.202E+01 -.202E+01 0.202E+01   0.321E-02 -.321E-02 0.321E-02
   0.576E+00 0.576E+00 0.576E+00   -.260E+01 -.260E+01 -.260E+01   0.202E+01 0.202E+01 0.202E+01   0.321E-02 0.321E-02 0.321E-02
   -.576E+00 0.576E+00 0.576E+00   0.260E+01 -.260E+01 -.260E+01   -.202E+01 0.202E+01 0.202E+01   -.321E-02 0.321E-02 0.321E-02
   -.576E+00 -.576E+00 -.576E+00   0.260E+01 0.260E+01 0.260E+01   -.202E+01 -.202E+01 -.202E+01   -.321E-02 -.321E-02 -.321E-02
   0.576E+00 -.576E+00 -.576E+00   -.260E+01 0.260E+01 0.260E+01   0.202E+01 -.202E+01 -.202E+01   0.321E-02 -.321E-02 -.321E-02
   -.576E+00 -.576E+00 0.576E+00   0.260E+01 0.260E+01 -.260E+01   -.202E+01 -.202E+01 0.202E+01   -.321E-02 -.321E-02 0.321E-02
   -.576E+00 0.576E+00 -.576E+00   0.260E+01 -.260E+01 0.260E+01   -.202E+01 0.202E+01 -.202E+01   -.321E-02 0.321E-02 -.321E-02
   0.576E+00 0.576E+00 -.576E+00   -.260E+01 -.260E+01 0.260E+01   0.202E+01 0.202E+01 -.202E+01   0.321E-02 0.321E-02 -.321E-02
   0.576E+00 -.576E+00 0.576E+00   -.260E+01 0.260E+01 -.260E+01   0.202E+01 -.202E+01 0.202E+01   0.321E-02 -.321E-02 0.321E-02
   0.576E+00 0.576E+00 0.576E+00   -.260E+01 -.260E+01 -.260E+01   0.202E+01 0.202E+01 0.202E+01   0.321E-02 0.321E-02 0.321E-02
   -.576E+00 0.576E+00 0.576E+00   0.260E+01 -.260E+01 -.260E+01   -.202E+01 0.202E+01 0.202E+01   -.321E-02 0.321E-02 0.321E-02
 -----------------------------------------------------------------------------------------------
   0.595E-11 0.128E-10 0.525E-11   0.133E-14 -.924E-13 -.169E-13   -.666E-14 -.178E-14 0.000E+00   -.339E-12 -.244E-12 -.334E-12
 
 
 POSITION                                       TOTAL-FORCE (eV/Angst)
 -----------------------------------------------------------------------------------
      7.21001      7.21001      1.03000        -0.000000     -0.000000      0.000000
      3.09000      1.03000      3.09000        -0.000000     -0.000000      0.000000
      5.15000      7.21001      3.09000        -0.000000     -0.000000      0.000000
      1.03000      1.03000      1.03000        -0.000000     -0.000000      0.000000
      2.06000      6.18000      2.06000        -0.000000     -0.000000      0.000000
     -0.00000      0.00000      4.12000        -0.000000     -0.000000      0.000000
      7.21001      3.09000      5.15000        -0.000000     -0.000000      0.000000
      3.09000      5.15000      7.21001        -0.000000     -0.000000      0.000000
      5.15000      3.09000      7.21001        -0.000000     -0.000000      0.000000
      1.03000      5.15000      5.15000        -0.000000     -0.000000      0.000000
      2.06000      2.06000      6.18000        -0.000000     -0.000000      0.000000
      0.00000      4.12000      0.00000        -0.000000     -0.000000      0.000000
      3.09000      7.21001      5.15000        -0.000000     -0.000000      0.000000
      7.21001      1.03000      7.21001        -0.000000     -0.000000      0.000000
      1.03000      7.21001      7.21001        -0.000000     -0.000000      0.000000
      5.15000      1.03000      5.15000        -0.000000     -0.000000      0.000000
      6.18000      6.18000      6.18000        -0.000000     -0.000000      0.000000
      4.12000      0.00000      0.00000        -0.000000     -0.000000      0.000000
      3.09000      3.09000      1.03000        -0.000000     -0.000000      0.000000
      7.21001      5.15000      3.09000        -0.000000     -0.000000      0.000000
      1.03000      3.09000      3.09000        -0.000000     -0.000000      0.000000
      5.15000      5.15000      1.03000        -0.000000     -0.000000      0.000000
      6.18000      2.06000      2.06000        -0.000000     -0.000000      0.000000
      4.12000      4.12000      4.12000        -0.000000     -0.000000      0.000000
      3.10246      3.10246      3.10246        -0.000135     -0.000135     -0.000135
      7.19755      1.04246      1.04246         0.000135     -0.000135     -0.000135
      5.16246      1.04246      3.07754        -0.000135     -0.000135      0.000135
      1.04246      7.19755      1.04246        -0.000135      0.000135     -0.000135
      1.01754      1.01754      3.10246         0.000135      0.000135     -0.000135
      1.01754      3.10246      1.01754         0.000135     -0.000135      0.000135
      3.07754      7.19755      3.07754         0.000135      0.000135      0.000135
      3.10246      1.01754      1.01754        -0.000135      0.000135      0.000135
      3.10246      7.22247      7.22247        -0.000135     -0.000135     -0.000135
      7.19755      5.16246      5.16246         0.000135     -0.000135     -0.000135
      5.16246      5.16246      7.19755        -0.000135     -0.000135      0.000135
      1.04246      3.07754      5.16246        -0.000135      0.000135     -0.000135
      1.01754      5.13754      7.22247         0.000135      0.000135     -0.000135
      1.01754      7.22247      5.13754         0.000135     -0.000135      0.000135
      3.07754      3.07754      7.19755         0.000135      0.000135      0.000135
      3.10246      5.13754      5.13754        -0.000135      0.000135      0.000135
      7.22247      3.10246      7.22247        -0.000135     -0.000135     -0.000135
      3.07754      1.04246      5.16246         0.000135     -0.000135     -0.000135
      1.04246      1.04246      7.19755        -0.000135     -0.000135      0.000135
      5.16246      7.19755      5.16246        -0.000135      0.000135     -0.000135
      5.13754      1.01754      7.22247         0.000135      0.000135     -0.000135
      5.13754      3.10246      5.13754         0.000135     -0.000135      0.000135
      7.19755      7.19755      7.19755         0.000135      0.000135      0.000135
      7.22247      1.01754      5.13754        -0.000135      0.000135      0.000135
      7.22247      7.22247      3.10246        -0.000135     -0.000135     -0.000135
      3.07754      5.16246      1.04246         0.000135     -0.000135     -0.000135
      1.04246      5.16246      3.07754        -0.000135     -0.000135      0.000135
      5.16246      3.07754      1.04246        -0.000135      0.000135     -0.000135
      5.13754      5.13754      3.10246         0.000135      0.000135     -0.000135
      5.13754      7.22247      1.01754         0.000135     -0.000135      0.000135
      7.19755      3.07754      3.07754         0.000135      0.000135      0.000135
      7.22247      5.13754      1.01754        -0.000135      0.000135      0.000135
 -----------------------------------------------------------------------------------
    total drift:                                0.000000      0.000000      0.000000


--------------------------------------------------------------------------------------------------------



  FREE ENERGIE OF THE ION-ELECTRON SYSTEM (eV)
  ---------------------------------------------------
  free  energy   TOTEN  =      -323.77213041 eV

  energy  without entropy=     -323.77375133  energy(sigma->0) =     -323.77253564
 
 d Force = 0.8925200E-02[ 0.263E-04, 0.178E-01]  d Energy = 0.8715361E-02 0.210E-03
 d Force =-0.4479121E+00[-0.506E+00,-0.389E+00]  d Ewald  =-0.4479440E+00 0.319E-04


--------------------------------------------------------------------------------------------------------


    POTLOK:  cpu time    0.0566: real time    0.0566


--------------------------------------------------------------------------------------------------------




--------------------------------------------------------------------------------------------------------


  
 reached required accuracy - stopping structural energy minimisation
     LOOP+:  cpu time   20.0621: real time   20.0711
    4ORBIT:  cpu time    0.0000: real time    0.0000

 total amount of memory used by VASP MPI-rank0    67170. kBytes
=======================================================================

   base      :      30000. kBytes
   nonlr-proj:      10142. kBytes
   fftplans  :       3985. kBytes
   grid      :       6277. kBytes
   one-center:         43. kBytes
   wavefun   :      16723. kBytes
 
  
  
 General timing and accounting informations for this job:
 ========================================================
  
                  Total CPU time used (sec):      109.475
                            User time (sec):      108.247
                          System time (sec):        1.228
                         Elapsed time (sec):      110.310
  
                   Maximum memory used (kb):       86860.
                   Average memory used (kb):           0.
  
                          Minor page faults:        98126
                          Major page faults:           14
                 Voluntary context switches:         4396
