<?xml version="1.0" encoding="ISO-8859-1"?>
<modeling>
 <generator>
  <i name="program" type="string">vasp </i>
  <i name="version" type="string">5.4.4.18Apr17-6-g9f103f2a35  </i>
  <i name="subversion" type="string">(build Nov 01 2019 12:17:22) complex            parallel </i>
  <i name="platform" type="string">LinuxIFC </i>
  <i name="date" type="string">2023 05 19 </i>
  <i name="time" type="string">18:21:58 </i>
 </generator>
 <incar>
  <i type="string" name="PREC">accurate</i>
  <i type="string" name="ALGO"> Fast</i>
  <i type="int" name="IBRION">     2</i>
  <i type="int" name="NSW">   100</i>
  <i type="int" name="ISIF">     2</i>
  <i type="string" name="LREAL"> Auto</i>
  <i type="int" name="ISMEAR">     2</i>
  <i name="SIGMA">      0.10000000</i>
  <i type="logical" name="LWAVE"> F  </i>
  <i type="logical" name="LCHARG"> F  </i>
  <v type="int" name="KPOINT_BSE">    -1     0     0     0</v>
 </incar>
 <structure name="primitive_cell" >
  <crystal>
   <varray name="basis" >
    <v>       4.12000312       4.12000312      -0.00000000 </v>
    <v>       4.12000312       0.00000000      -4.12000312 </v>
    <v>       0.00000000       4.12000312      -4.12000312 </v>
   </varray>
   <i name="volume">    139.86937418 </i>
   <varray name="rec_basis" >
    <v>       0.12135913       0.12135913       0.12135913 </v>
    <v>       0.12135913      -0.12135913      -0.12135913 </v>
    <v>      -0.12135913       0.12135913      -0.12135913 </v>
   </varray>
  </crystal>
  <varray name="positions" >
   <v>      -0.12500000      -0.12500000      -0.12500000 </v>
   <v>       0.12630293      -0.37890880       0.12630293 </v>
   <v>       0.12630293       0.12630293      -0.37890880 </v>
   <v>      -0.37890880       0.12630293       0.12630293 </v>
   <v>       0.12890880      -0.37630293      -0.37630293 </v>
   <v>      -0.37630293      -0.37630293       0.12890880 </v>
   <v>      -0.37630293       0.12890880      -0.37630293 </v>
   <v>      -0.12500000       0.37500000      -0.12500000 </v>
   <v>      -0.12500000      -0.12500000       0.37500000 </v>
   <v>       0.37500000      -0.12500000      -0.12500000 </v>
   <v>      -0.50000000      -0.50000000      -0.50000000 </v>
   <v>       0.25000000       0.25000000       0.25000000 </v>
   <v>       0.12630293       0.12630293       0.12630293 </v>
   <v>      -0.37630293      -0.37630293      -0.37630293 </v>
  </varray>
 </structure>
 <varray name="primitive_index" >
  <v type="int" >        1 </v>
  <v type="int" >       26 </v>
  <v type="int" >       28 </v>
  <v type="int" >       47 </v>
  <v type="int" >       49 </v>
  <v type="int" >       54 </v>
  <v type="int" >       56 </v>
  <v type="int" >        3 </v>
  <v type="int" >       14 </v>
  <v type="int" >        4 </v>
  <v type="int" >       12 </v>
  <v type="int" >       23 </v>
  <v type="int" >       27 </v>
  <v type="int" >       37 </v>
 </varray>
 <kpoints>
  <generation param="Auto">
   <i name="subdivisionlength">     45.00000000 </i>
   <v type="int" name="divisions">       5        5        5 </v>
   <v name="usershift">      0.00000000       0.00000000       0.00000000 </v>
   <v name="genvec1">      0.20000000       0.00000000       0.00000000 </v>
   <v name="genvec2">     -0.00000000       0.20000000       0.00000000 </v>
   <v name="genvec3">     -0.00000000      -0.00000000       0.20000000 </v>
   <v name="shift">      0.00000000       0.00000000       0.00000000 </v>
  </generation>
  <varray name="kpointlist" >
   <v>       0.00000000       0.00000000       0.00000000 </v>
   <v>       0.20000000       0.00000000       0.00000000 </v>
   <v>       0.40000000       0.00000000       0.00000000 </v>
   <v>       0.20000000       0.20000000       0.00000000 </v>
   <v>       0.40000000       0.20000000       0.00000000 </v>
   <v>       0.40000000       0.40000000       0.00000000 </v>
   <v>       0.20000000       0.20000000       0.20000000 </v>
   <v>       0.40000000       0.20000000       0.20000000 </v>
   <v>       0.40000000       0.40000000       0.20000000 </v>
   <v>       0.40000000       0.40000000       0.40000000 </v>
  </varray>
  <varray name="weights" >
   <v>       0.00800000 </v>
   <v>       0.04800000 </v>
   <v>       0.04800000 </v>
   <v>       0.09600000 </v>
   <v>       0.19200000 </v>
   <v>       0.09600000 </v>
   <v>       0.06400000 </v>
   <v>       0.19200000 </v>
   <v>       0.19200000 </v>
   <v>       0.06400000 </v>
  </varray>
 </kpoints>
 <parameters>
  <separator name="general" >
   <i type="string" name="SYSTEM">unknown system</i>
   <i type="logical" name="LCOMPAT"> F  </i>
  </separator>
  <separator name="electronic" >
   <i type="string" name="PREC">accura</i>
   <i name="ENMAX">    400.00000000</i>
   <i name="ENAUG">    627.11200000</i>
   <i name="EDIFF">      0.00010000</i>
   <i type="int" name="IALGO">    68</i>
   <i type="int" name="IWAVPR">    11</i>
   <i type="int" name="NBANDS">   156</i>
   <i name="NELECT">    248.00000000</i>
   <i type="int" name="TURBO">     0</i>
   <i type="int" name="IRESTART">     0</i>
   <i type="int" name="NREBOOT">     0</i>
   <i type="int" name="NMIN">     0</i>
   <i name="EREF">      0.00000000</i>
   <separator name="electronic smearing" >
    <i type="int" name="ISMEAR">     2</i>
    <i name="SIGMA">      0.10000000</i>
    <i name="KSPACING">      0.50000000</i>
    <i type="logical" name="KGAMMA"> T  </i>
   </separator>
   <separator name="electronic projectors" >
    <i type="logical" name="LREAL"> T  </i>
    <v name="ROPT">     -0.00025000     -0.00025000</v>
    <i type="int" name="LMAXPAW">  -100</i>
    <i type="int" name="LMAXMIX">     2</i>
    <i type="logical" name="NLSPLINE"> F  </i>
   </separator>
   <separator name="electronic startup" >
    <i type="int" name="ISTART">     0</i>
    <i type="int" name="ICHARG">     2</i>
    <i type="int" name="INIWAV">     1</i>
   </separator>
   <separator name="electronic spin" >
    <i type="int" name="ISPIN">     1</i>
    <i type="logical" name="LNONCOLLINEAR"> F  </i>
    <v name="MAGMOM">      1.00000000      1.00000000      1.00000000      1.00000000      1.00000000      1.00000000      1.00000000      1.00000000      1.00000000      1.00000000      1.00000000      1.00000000      1.00000000      1.00000000      1.00000000      1.00000000      1.00000000      1.00000000      1.00000000      1.00000000
      1.00000000      1.00000000      1.00000000      1.00000000      1.00000000      1.00000000      1.00000000      1.00000000      1.00000000      1.00000000      1.00000000      1.00000000      1.00000000      1.00000000      1.00000000      1.00000000      1.00000000      1.00000000      1.00000000      1.00000000
      1.00000000      1.00000000      1.00000000      1.00000000      1.00000000      1.00000000      1.00000000      1.00000000      1.00000000      1.00000000      1.00000000      1.00000000      1.00000000      1.00000000      1.00000000      1.00000000</v>
    <i name="NUPDOWN">     -1.00000000</i>
    <i type="logical" name="LSORBIT"> F  </i>
    <v name="SAXIS">      0.00000000      0.00000000      1.00000000</v>
    <i type="logical" name="LSPIRAL"> F  </i>
    <v name="QSPIRAL">      0.00000000      0.00000000      0.00000000</v>
    <i type="logical" name="LZEROZ"> F  </i>
   </separator>
   <separator name="electronic exchange-correlation" >
    <i type="logical" name="LASPH"> F  </i>
    <i type="logical" name="LMETAGGA"> F  </i>
   </separator>
   <separator name="electronic convergence" >
    <i type="int" name="NELM">    60</i>
    <i type="int" name="NELMDL">    -5</i>
    <i type="int" name="NELMIN">     2</i>
    <i name="ENINI">    400.00000000</i>
    <separator name="electronic convergence detail" >
     <i type="logical" name="LDIAG"> T  </i>
     <i type="logical" name="LSUBROT"> F  </i>
     <i name="WEIMIN">      0.00100000</i>
     <i name="EBREAK">      0.00000016</i>
     <i name="DEPER">      0.30000000</i>
     <i type="int" name="NRMM">     4</i>
     <i name="TIME">      0.40000000</i>
    </separator>
   </separator>
   <separator name="electronic mixer" >
    <i name="AMIX">      0.40000000</i>
    <i name="BMIX">      1.00000000</i>
    <i name="AMIN">      0.10000000</i>
    <i name="AMIX_MAG">      1.60000000</i>
    <i name="BMIX_MAG">      1.00000000</i>
    <separator name="electronic mixer details" >
     <i type="int" name="IMIX">     4</i>
     <i type="logical" name="MIXFIRST"> F  </i>
     <i type="int" name="MAXMIX">   -45</i>
     <i name="WC">    100.00000000</i>
     <i type="int" name="INIMIX">     1</i>
     <i type="int" name="MIXPRE">     1</i>
     <i type="int" name="MREMOVE">     5</i>
    </separator>
   </separator>
   <separator name="electronic dipolcorrection" >
    <i type="logical" name="LDIPOL"> F  </i>
    <i type="logical" name="LMONO"> F  </i>
    <i type="int" name="IDIPOL">     0</i>
    <i name="EPSILON">      1.00000000</i>
    <v name="DIPOL">   -100.00000000   -100.00000000   -100.00000000</v>
    <i name="EFIELD">      0.00000000</i>
   </separator>
  </separator>
  <separator name="grids" >
   <i type="int" name="NGX">    54</i>
   <i type="int" name="NGY">    54</i>
   <i type="int" name="NGZ">    54</i>
   <i type="int" name="NGXF">   108</i>
   <i type="int" name="NGYF">   108</i>
   <i type="int" name="NGZF">   108</i>
   <i type="logical" name="ADDGRID"> F  </i>
  </separator>
  <separator name="ionic" >
   <i type="int" name="NSW">   100</i>
   <i type="int" name="IBRION">     2</i>
   <i type="int" name="MDALGO">     0</i>
   <i type="int" name="ISIF">     2</i>
   <i name="PSTRESS">      0.00000000</i>
   <i name="EDIFFG">      0.00100000</i>
   <i type="int" name="NFREE">     1</i>
   <i name="POTIM">      0.50000000</i>
   <i name="SMASS">     -3.00000000</i>
   <i name="SCALEE">      1.00000000</i>
  </separator>
  <separator name="ionic md" >
   <i name="TEBEG">      0.00010000</i>
   <i name="TEEND">      0.00010000</i>
   <i type="int" name="NBLOCK">     1</i>
   <i type="int" name="KBLOCK">   100</i>
   <i type="int" name="NPACO">   256</i>
   <i name="APACO">     16.00000000</i>
  </separator>
  <separator name="symmetry" >
   <i type="int" name="ISYM">     2</i>
   <i name="SYMPREC">      0.00001000</i>
  </separator>
  <separator name="dos" >
   <i type="int" name="LORBIT">     0</i>
   <v name="RWIGS">     -1.00000000     -1.00000000</v>
   <i type="int" name="NEDOS">   301</i>
   <i name="EMIN">     10.00000000</i>
   <i name="EMAX">    -10.00000000</i>
   <i name="EFERMI">      0.00000000</i>
  </separator>
  <separator name="writing" >
   <i type="int" name="NWRITE">     2</i>
   <i type="logical" name="LWAVE"> F  </i>
   <i type="logical" name="LDOWNSAMPLE"> F  </i>
   <i type="logical" name="LCHARG"> F  </i>
   <i type="logical" name="LPARD"> F  </i>
   <i type="logical" name="LVTOT"> F  </i>
   <i type="logical" name="LVHAR"> F  </i>
   <i type="logical" name="LELF"> F  </i>
   <i type="logical" name="LOPTICS"> F  </i>
   <v name="STM">      0.00000000      0.00000000      0.00000000      0.00000000      0.00000000      0.00000000      0.00000000</v>
  </separator>
  <separator name="performance" >
   <i type="int" name="NPAR">     4</i>
   <i type="int" name="NSIM">     4</i>
   <i type="int" name="NBLK">    -1</i>
   <i type="logical" name="LPLANE"> T  </i>
   <i type="logical" name="LSCALAPACK"> F  </i>
   <i type="logical" name="LSCAAWARE"> F  </i>
   <i type="logical" name="LSCALU"> F  </i>
   <i type="logical" name="LASYNC"> F  </i>
   <i type="logical" name="LORBITALREAL"> F  </i>
  </separator>
  <separator name="miscellaneous" >
   <i type="int" name="IDIOT">     3</i>
   <i type="int" name="ISPECIAL">     0</i>
   <i type="logical" name="LMUSIC"> F  </i>
   <v name="POMASS">     14.00100000     28.08500000</v>
   <v name="DARWINR">      0.00000000      0.00000000</v>
   <v name="DARWINV">      1.00000000      1.00000000</v>
   <i type="logical" name="LCORR"> T  </i>
  </separator>
  <i type="logical" name="GGA_COMPAT"> T  </i>
  <i type="logical" name="LBERRY"> F  </i>
  <i type="int" name="ICORELEVEL">     0</i>
  <i type="logical" name="LDAU"> F  </i>
  <i type="int" name="I_CONSTRAINED_M">     0</i>
  <separator name="electronic exchange-correlation" >
   <i type="string" name="GGA">--</i>
   <i type="int" name="VOSKOWN">     0</i>
   <i type="logical" name="LHFCALC"> F  </i>
   <i type="string" name="PRECFOCK"></i>
   <i type="logical" name="LSYMGRAD"> F  </i>
   <i type="logical" name="LHFONE"> F  </i>
   <i type="logical" name="LRHFCALC"> F  </i>
   <i type="logical" name="LTHOMAS"> F  </i>
   <i type="logical" name="LMODELHF"> F  </i>
   <i name="ENCUT4O">     -1.00000000</i>
   <i type="int" name="EXXOEP">     0</i>
   <i type="int" name="FOURORBIT">     0</i>
   <i name="AEXX">      0.00000000</i>
   <i name="HFALPHA">      0.00000000</i>
   <i name="MCALPHA">      0.00000000</i>
   <i name="ALDAX">      1.00000000</i>
   <i name="AGGAX">      1.00000000</i>
   <i name="ALDAC">      1.00000000</i>
   <i name="AGGAC">      1.00000000</i>
   <i type="int" name="NKREDX">     1</i>
   <i type="int" name="NKREDY">     1</i>
   <i type="int" name="NKREDZ">     1</i>
   <i type="logical" name="SHIFTRED"> F  </i>
   <i type="logical" name="ODDONLY"> F  </i>
   <i type="logical" name="EVENONLY"> F  </i>
   <i type="int" name="LMAXFOCK">     0</i>
   <i type="int" name="NMAXFOCKAE">     0</i>
   <i type="logical" name="LFOCKAEDFT"> F  </i>
   <i name="HFSCREEN">      0.00000000</i>
   <i name="HFSCREENC">      0.00000000</i>
   <i type="int" name="NBANDSGWLOW">     0</i>
  </separator>
  <separator name="vdW DFT" >
   <i type="logical" name="LUSE_VDW"> F  </i>
   <i name="Zab_VDW">     -0.84910000</i>
   <i name="PARAM1">      0.12340000</i>
   <i name="PARAM2">      1.00000000</i>
   <i name="PARAM3">      0.00000000</i>
  </separator>
  <separator name="model GW" >
   <i type="int" name="MODEL_GW">     0</i>
   <i name="MODEL_EPS0">      5.99440175</i>
   <i name="MODEL_ALPHA">      1.00000000</i>
  </separator>
  <separator name="linear response parameters" >
   <i type="logical" name="LEPSILON"> F  </i>
   <i type="logical" name="LRPA"> F  </i>
   <i type="logical" name="LNABLA"> F  </i>
   <i type="logical" name="LVEL"> F  </i>
   <i type="int" name="KINTER">     0</i>
   <i name="CSHIFT">      0.10000000</i>
   <i name="OMEGAMAX">     -1.00000000</i>
   <i name="DEG_THRESHOLD">      0.00200000</i>
   <i name="RTIME">     -0.10000000</i>
   <i name="WPLASMAI">      0.00000000</i>
   <v name="DFIELD">      0.00000000      0.00000000      0.00000000</v>
   <v name="WPLASMA">      0.00000000      0.00000000      0.00000000      0.00000000      0.00000000      0.00000000      0.00000000      0.00000000      0.00000000</v>
  </separator>
  <separator name="orbital magnetization" >
   <i type="logical" name="NUCIND"> F  </i>
   <v name="MAGPOS">      0.00000000      0.00000000      0.00000000</v>
   <i type="logical" name="LNICSALL"> T  </i>
   <i type="logical" name="ORBITALMAG"> F  </i>
   <i type="logical" name="LMAGBLOCH"> F  </i>
   <i type="logical" name="LCHIMAG"> F  </i>
   <i type="logical" name="LGAUGE"> T  </i>
   <i type="int" name="MAGATOM">     0</i>
   <v name="MAGDIPOL">      0.00000000      0.00000000      0.00000000</v>
   <v name="AVECCONST">      0.00000000      0.00000000      0.00000000</v>
  </separator>
  <separator name="response functions" >
   <i type="logical" name="LADDER"> F  </i>
   <i type="logical" name="LRPAFORCE"> F  </i>
   <i type="logical" name="LFXC"> F  </i>
   <i type="logical" name="LHARTREE"> T  </i>
   <i type="int" name="IBSE">     0</i>
   <v type="int" name="KPOINT">    -1     0     0     0</v>
   <i type="logical" name="LTCTE"> F  </i>
   <i type="logical" name="LTETE"> F  </i>
   <i type="logical" name="LTRIPLET"> F  </i>
   <i type="logical" name="LFXCEPS"> F  </i>
   <i type="logical" name="LFXHEG"> F  </i>
   <i type="int" name="NATURALO">     2</i>
   <i type="logical" name="L2ORDER"> F  </i>
   <i type="logical" name="LMP2LT"> F  </i>
   <i type="logical" name="LUSEW"> F  </i>
   <i name="ENCUTGW">     -2.00000000</i>
   <i name="ENCUTGWSOFT">     -2.00000000</i>
   <i name="ENCUTLF">     -1.00000000</i>
   <i type="int" name="LMAXMP2">    -1</i>
   <i name="SCISSOR">      0.00000000</i>
   <i type="int" name="NOMEGA">     0</i>
   <i type="int" name="NOMEGAR">     0</i>
   <i type="int" name="NBANDSGW">    -1</i>
   <i type="int" name="NBANDSO">    -1</i>
   <i type="int" name="NBANDSV">    -1</i>
   <i type="int" name="NELM">     1</i>
   <i type="int" name="NELMHF">     1</i>
   <i type="int" name="DIM">     3</i>
   <i type="int" name="ANTIRES">     0</i>
   <i name="OMEGAMAX">    -30.00000000</i>
   <i name="OMEGAMIN">    -30.00000000</i>
   <i name="OMEGATL">   -200.00000000</i>
   <i type="int" name="OMEGAGRID">   140</i>
   <i name="CSHIFT">     -0.10000000</i>
   <i type="logical" name="SELFENERGY"> F  </i>
   <i type="logical" name="LSPECTRAL"> F  </i>
   <i type="logical" name="LSPECTRALGW"> F  </i>
   <i type="logical" name="LSINGLES"> F  </i>
   <i type="logical" name="LFERMIGW"> F  </i>
   <i type="logical" name="ODDONLYGW"> F  </i>
   <i type="logical" name="EVENONLYGW"> F  </i>
   <i type="int" name="NKREDLFX">     1</i>
   <i type="int" name="NKREDLFY">     1</i>
   <i type="int" name="NKREDLFZ">     1</i>
   <i type="int" name="MAXMEM">  2800</i>
   <i type="int" name="TELESCOPE">     0</i>
   <i type="int" name="TAUPAR">     1</i>
   <i type="int" name="OMEGAPAR">    -1</i>
   <i name="LAMBDA">      1.00000000</i>
  </separator>
  <separator name="External order field" >
   <i name="OFIELD_KAPPA">      0.00000000</i>
   <v name="OFIELD_K">      0.00000000      0.00000000      0.00000000</v>
   <i name="OFIELD_Q6_NEAR">      0.00000000</i>
   <i name="OFIELD_Q6_FAR">      0.00000000</i>
   <i name="OFIELD_A">      0.00000000</i>
  </separator>
 </parameters>
 <atominfo>
  <atoms>      56 </atoms>
  <types>       2 </types>
  <array name="atoms" >
   <dimension dim="1">ion</dimension>
   <field type="string">element</field>
   <field type="int">atomtype</field>
   <set>
    <rc><c>N </c><c>   1</c></rc>
    <rc><c>N </c><c>   1</c></rc>
    <rc><c>N </c><c>   1</c></rc>
    <rc><c>N </c><c>   1</c></rc>
    <rc><c>N </c><c>   1</c></rc>
    <rc><c>N </c><c>   1</c></rc>
    <rc><c>N </c><c>   1</c></rc>
    <rc><c>N </c><c>   1</c></rc>
    <rc><c>N </c><c>   1</c></rc>
    <rc><c>N </c><c>   1</c></rc>
    <rc><c>N </c><c>   1</c></rc>
    <rc><c>N </c><c>   1</c></rc>
    <rc><c>N </c><c>   1</c></rc>
    <rc><c>N </c><c>   1</c></rc>
    <rc><c>N </c><c>   1</c></rc>
    <rc><c>N </c><c>   1</c></rc>
    <rc><c>N </c><c>   1</c></rc>
    <rc><c>N </c><c>   1</c></rc>
    <rc><c>N </c><c>   1</c></rc>
    <rc><c>N </c><c>   1</c></rc>
    <rc><c>N </c><c>   1</c></rc>
    <rc><c>N </c><c>   1</c></rc>
    <rc><c>N </c><c>   1</c></rc>
    <rc><c>N </c><c>   1</c></rc>
    <rc><c>Si</c><c>   2</c></rc>
    <rc><c>Si</c><c>   2</c></rc>
    <rc><c>Si</c><c>   2</c></rc>
    <rc><c>Si</c><c>   2</c></rc>
    <rc><c>Si</c><c>   2</c></rc>
    <rc><c>Si</c><c>   2</c></rc>
    <rc><c>Si</c><c>   2</c></rc>
    <rc><c>Si</c><c>   2</c></rc>
    <rc><c>Si</c><c>   2</c></rc>
    <rc><c>Si</c><c>   2</c></rc>
    <rc><c>Si</c><c>   2</c></rc>
    <rc><c>Si</c><c>   2</c></rc>
    <rc><c>Si</c><c>   2</c></rc>
    <rc><c>Si</c><c>   2</c></rc>
    <rc><c>Si</c><c>   2</c></rc>
    <rc><c>Si</c><c>   2</c></rc>
    <rc><c>Si</c><c>   2</c></rc>
    <rc><c>Si</c><c>   2</c></rc>
    <rc><c>Si</c><c>   2</c></rc>
    <rc><c>Si</c><c>   2</c></rc>
    <rc><c>Si</c><c>   2</c></rc>
    <rc><c>Si</c><c>   2</c></rc>
    <rc><c>Si</c><c>   2</c></rc>
    <rc><c>Si</c><c>   2</c></rc>
    <rc><c>Si</c><c>   2</c></rc>
    <rc><c>Si</c><c>   2</c></rc>
    <rc><c>Si</c><c>   2</c></rc>
    <rc><c>Si</c><c>   2</c></rc>
    <rc><c>Si</c><c>   2</c></rc>
    <rc><c>Si</c><c>   2</c></rc>
    <rc><c>Si</c><c>   2</c></rc>
    <rc><c>Si</c><c>   2</c></rc>
   </set>
  </array>
  <array name="atomtypes" >
   <dimension dim="1">type</dimension>
   <field type="int">atomspertype</field>
   <field type="string">element</field>
   <field>mass</field>
   <field>valence</field>
   <field type="string">pseudopotential</field>
   <set>
    <rc><c>  24</c><c>N </c><c>     14.00100000</c><c>      5.00000000</c><c>  PAW_PBE N 08Apr2002                   </c></rc>
    <rc><c>  32</c><c>Si</c><c>     28.08500000</c><c>      4.00000000</c><c>  PAW_PBE Si 05Jan2001                  </c></rc>
   </set>
  </array>
 </atominfo>
 <structure name="initialpos" >
  <crystal>
   <varray name="basis" >
    <v>       8.24000625       0.00000000       0.00000000 </v>
    <v>       0.00000000       8.24000625       0.00000000 </v>
    <v>       0.00000000       0.00000000       8.24000625 </v>
   </varray>
   <i name="volume">    559.47749673 </i>
   <varray name="rec_basis" >
    <v>       0.12135913      -0.00000000       0.00000000 </v>
    <v>      -0.00000000       0.12135913       0.00000000 </v>
    <v>      -0.00000000      -0.00000000       0.12135913 </v>
   </varray>
  </crystal>
  <varray name="positions" >
   <v>       0.87500000       0.87500000       0.12500000 </v>
   <v>       0.37500000       0.12500000       0.37500000 </v>
   <v>       0.62500000       0.87500000       0.37500000 </v>
   <v>       0.12500000       0.12500000       0.12500000 </v>
   <v>       0.25000000       0.75000000       0.25000000 </v>
   <v>       0.00000000       0.00000000       0.50000000 </v>
   <v>       0.87500000       0.37500000       0.62500000 </v>
   <v>       0.37500000       0.62500000       0.87500000 </v>
   <v>       0.62500000       0.37500000       0.87500000 </v>
   <v>       0.12500000       0.62500000       0.62500000 </v>
   <v>       0.25000000       0.25000000       0.75000000 </v>
   <v>       0.00000000       0.50000000       0.00000000 </v>
   <v>       0.37500000       0.87500000       0.62500000 </v>
   <v>       0.87500000       0.12500000       0.87500000 </v>
   <v>       0.12500000       0.87500000       0.87500000 </v>
   <v>       0.62500000       0.12500000       0.62500000 </v>
   <v>       0.75000000       0.75000000       0.75000000 </v>
   <v>       0.50000000       0.00000000       0.00000000 </v>
   <v>       0.37500000       0.37500000       0.12500000 </v>
   <v>       0.87500000       0.62500000       0.37500000 </v>
   <v>       0.12500000       0.37500000       0.37500000 </v>
   <v>       0.62500000       0.62500000       0.12500000 </v>
   <v>       0.75000000       0.25000000       0.25000000 </v>
   <v>       0.50000000       0.50000000       0.50000000 </v>
   <v>       0.37630293       0.37630293       0.37630293 </v>
   <v>       0.87369707       0.12630293       0.12630293 </v>
   <v>       0.62630293       0.12630293       0.37369707 </v>
   <v>       0.12630293       0.87369707       0.12630293 </v>
   <v>       0.12369707       0.12369707       0.37630293 </v>
   <v>       0.12369707       0.37630293       0.12369707 </v>
   <v>       0.37369707       0.87369707       0.37369707 </v>
   <v>       0.37630293       0.12369707       0.12369707 </v>
   <v>       0.37630293       0.87630293       0.87630293 </v>
   <v>       0.87369707       0.62630293       0.62630293 </v>
   <v>       0.62630293       0.62630293       0.87369707 </v>
   <v>       0.12630293       0.37369707       0.62630293 </v>
   <v>       0.12369707       0.62369707       0.87630293 </v>
   <v>       0.12369707       0.87630293       0.62369707 </v>
   <v>       0.37369707       0.37369707       0.87369707 </v>
   <v>       0.37630293       0.62369707       0.62369707 </v>
   <v>       0.87630293       0.37630293       0.87630293 </v>
   <v>       0.37369707       0.12630293       0.62630293 </v>
   <v>       0.12630293       0.12630293       0.87369707 </v>
   <v>       0.62630293       0.87369707       0.62630293 </v>
   <v>       0.62369707       0.12369707       0.87630293 </v>
   <v>       0.62369707       0.37630293       0.62369707 </v>
   <v>       0.87369707       0.87369707       0.87369707 </v>
   <v>       0.87630293       0.12369707       0.62369707 </v>
   <v>       0.87630293       0.87630293       0.37630293 </v>
   <v>       0.37369707       0.62630293       0.12630293 </v>
   <v>       0.12630293       0.62630293       0.37369707 </v>
   <v>       0.62630293       0.37369707       0.12630293 </v>
   <v>       0.62369707       0.62369707       0.37630293 </v>
   <v>       0.62369707       0.87630293       0.12369707 </v>
   <v>       0.87369707       0.37369707       0.37369707 </v>
   <v>       0.87630293       0.62369707       0.12369707 </v>
  </varray>
 </structure>
 <calculation>
  <scstep>
   <time name="dav">    4.59    4.59</time>
   <time name="total">    4.66    4.66</time>
   <energy>
    <i name="alphaZ">    348.62611497 </i>
    <i name="ewald"> -10094.73888558 </i>
    <i name="hartreedc">  -1428.92457509 </i>
    <i name="XCdc">    213.98980728 </i>
    <i name="pawpsdc">   7738.34714636 </i>
    <i name="pawaedc">  -7203.94574617 </i>
    <i name="eentropy">     -0.00710814 </i>
    <i name="bandstr">   1670.70021566 </i>
    <i name="atom">   9645.50393724 </i>
    <i name="e_fr_energy">    889.55090654 </i>
    <i name="e_wo_entrp">    889.55801467 </i>
    <i name="e_0_energy">    889.55268357 </i>
   </energy>
  </scstep>
  <scstep>
   <time name="dav">    5.37    5.38</time>
   <time name="total">    5.37    5.38</time>
   <energy>
    <i name="e_fr_energy">   -254.03293505 </i>
    <i name="e_wo_entrp">   -254.02214816 </i>
    <i name="e_0_energy">   -254.03023833 </i>
   </energy>
  </scstep>
  <scstep>
   <time name="dav">    5.19    5.19</time>
   <time name="total">    5.19    5.19</time>
   <energy>
    <i name="e_fr_energy">   -349.96042124 </i>
    <i name="e_wo_entrp">   -349.97020748 </i>
    <i name="e_0_energy">   -349.96286780 </i>
   </energy>
  </scstep>
  <scstep>
   <time name="dav">    5.21    5.21</time>
   <time name="total">    5.21    5.22</time>
   <energy>
    <i name="e_fr_energy">   -353.03790028 </i>
    <i name="e_wo_entrp">   -353.04120094 </i>
    <i name="e_0_energy">   -353.03872544 </i>
   </energy>
  </scstep>
  <scstep>
   <time name="dav">    5.04    5.05</time>
   <time name="total">    5.32    5.32</time>
   <energy>
    <i name="e_fr_energy">   -353.12848076 </i>
    <i name="e_wo_entrp">   -353.13157005 </i>
    <i name="e_0_energy">   -353.12925308 </i>
   </energy>
  </scstep>
  <scstep>
   <time name="diag">    0.65    0.65</time>
   <time name="diis">    2.65    2.65</time>
   <time name="orth">    0.09    0.09</time>
   <time name="total">    3.75    3.75</time>
   <energy>
    <i name="e_fr_energy">   -324.37052109 </i>
    <i name="e_wo_entrp">   -324.37345084 </i>
    <i name="e_0_energy">   -324.37125353 </i>
   </energy>
  </scstep>
  <scstep>
   <time name="diag">    0.65    0.65</time>
   <time name="diis">    2.79    2.79</time>
   <time name="orth">    0.09    0.09</time>
   <time name="total">    3.87    3.87</time>
   <energy>
    <i name="e_fr_energy">   -323.98868489 </i>
    <i name="e_wo_entrp">   -323.99007262 </i>
    <i name="e_0_energy">   -323.98903182 </i>
   </energy>
  </scstep>
  <scstep>
   <time name="diag">    0.64    0.64</time>
   <time name="diis">    2.64    2.64</time>
   <time name="orth">    0.08    0.08</time>
   <time name="total">    3.71    3.71</time>
   <energy>
    <i name="e_fr_energy">   -323.87026393 </i>
    <i name="e_wo_entrp">   -323.87442275 </i>
    <i name="e_0_energy">   -323.87130364 </i>
   </energy>
  </scstep>
  <scstep>
   <time name="diag">    0.64    0.64</time>
   <time name="diis">    2.70    2.70</time>
   <time name="orth">    0.08    0.08</time>
   <time name="total">    3.77    3.77</time>
   <energy>
    <i name="e_fr_energy">   -323.77177318 </i>
    <i name="e_wo_entrp">   -323.77409089 </i>
    <i name="e_0_energy">   -323.77235261 </i>
   </energy>
  </scstep>
  <scstep>
   <time name="diag">    0.65    0.65</time>
   <time name="diis">    2.79    2.79</time>
   <time name="orth">    0.09    0.09</time>
   <time name="total">    3.86    3.86</time>
   <energy>
    <i name="e_fr_energy">   -323.76546950 </i>
    <i name="e_wo_entrp">   -323.76725335 </i>
    <i name="e_0_energy">   -323.76591547 </i>
   </energy>
  </scstep>
  <scstep>
   <time name="diag">    0.63    0.63</time>
   <time name="diis">    2.73    2.73</time>
   <time name="orth">    0.09    0.09</time>
   <time name="total">    3.78    3.78</time>
   <energy>
    <i name="e_fr_energy">   -323.76581768 </i>
    <i name="e_wo_entrp">   -323.76787722 </i>
    <i name="e_0_energy">   -323.76633256 </i>
   </energy>
  </scstep>
  <scstep>
   <time name="diag">    0.63    0.63</time>
   <time name="diis">    2.76    2.76</time>
   <time name="orth">    0.08    0.08</time>
   <time name="total">    3.81    3.81</time>
   <energy>
    <i name="e_fr_energy">   -323.76574782 </i>
    <i name="e_wo_entrp">   -323.76764591 </i>
    <i name="e_0_energy">   -323.76622234 </i>
   </energy>
  </scstep>
  <scstep>
   <time name="diag">    0.63    0.63</time>
   <time name="diis">    1.81    1.81</time>
   <time name="orth">    0.08    0.08</time>
   <time name="total">    2.58    2.59</time>
   <energy>
    <i name="alphaZ">    348.62611497 </i>
    <i name="ewald"> -10094.73888558 </i>
    <i name="hartreedc">  -1678.65538242 </i>
    <i name="XCdc">    232.86071242 </i>
    <i name="pawpsdc">  27312.30066375 </i>
    <i name="pawaedc"> -26781.58204553 </i>
    <i name="eentropy">      0.00193614 </i>
    <i name="bandstr">    691.91727316 </i>
    <i name="atom">   9645.50393724 </i>
    <i name="e_fr_energy">   -323.76567586 </i>
    <i name="e_wo_entrp">   -323.76761200 </i>
    <i name="e_0_energy">   -323.76615990 </i>
   </energy>
  </scstep>
  <structure>
   <crystal>
    <varray name="basis" >
     <v>       8.24000625       0.00000000       0.00000000 </v>
     <v>       0.00000000       8.24000625       0.00000000 </v>
     <v>       0.00000000       0.00000000       8.24000625 </v>
    </varray>
    <i name="volume">    559.47749673 </i>
    <varray name="rec_basis" >
     <v>       0.12135913      -0.00000000       0.00000000 </v>
     <v>      -0.00000000       0.12135913       0.00000000 </v>
     <v>      -0.00000000      -0.00000000       0.12135913 </v>
    </varray>
   </crystal>
   <varray name="positions" >
    <v>       0.87500000       0.87500000       0.12500000 </v>
    <v>       0.37500000       0.12500000       0.37500000 </v>
    <v>       0.62500000       0.87500000       0.37500000 </v>
    <v>       0.12500000       0.12500000       0.12500000 </v>
    <v>       0.25000000       0.75000000       0.25000000 </v>
    <v>       0.00000000       0.00000000       0.50000000 </v>
    <v>       0.87500000       0.37500000       0.62500000 </v>
    <v>       0.37500000       0.62500000       0.87500000 </v>
    <v>       0.62500000       0.37500000       0.87500000 </v>
    <v>       0.12500000       0.62500000       0.62500000 </v>
    <v>       0.25000000       0.25000000       0.75000000 </v>
    <v>       0.00000000       0.50000000       0.00000000 </v>
    <v>       0.37500000       0.87500000       0.62500000 </v>
    <v>       0.87500000       0.12500000       0.87500000 </v>
    <v>       0.12500000       0.87500000       0.87500000 </v>
    <v>       0.62500000       0.12500000       0.62500000 </v>
    <v>       0.75000000       0.75000000       0.75000000 </v>
    <v>       0.50000000       0.00000000       0.00000000 </v>
    <v>       0.37500000       0.37500000       0.12500000 </v>
    <v>       0.87500000       0.62500000       0.37500000 </v>
    <v>       0.12500000       0.37500000       0.37500000 </v>
    <v>       0.62500000       0.62500000       0.12500000 </v>
    <v>       0.75000000       0.25000000       0.25000000 </v>
    <v>       0.50000000       0.50000000       0.50000000 </v>
    <v>       0.37630293       0.37630293       0.37630293 </v>
    <v>       0.87369707       0.12630293       0.12630293 </v>
    <v>       0.62630293       0.12630293       0.37369707 </v>
    <v>       0.12630293       0.87369707       0.12630293 </v>
    <v>       0.12369707       0.12369707       0.37630293 </v>
    <v>       0.12369707       0.37630293       0.12369707 </v>
    <v>       0.37369707       0.87369707       0.37369707 </v>
    <v>       0.37630293       0.12369707       0.12369707 </v>
    <v>       0.37630293       0.87630293       0.87630293 </v>
    <v>       0.87369707       0.62630293       0.62630293 </v>
    <v>       0.62630293       0.62630293       0.87369707 </v>
    <v>       0.12630293       0.37369707       0.62630293 </v>
    <v>       0.12369707       0.62369707       0.87630293 </v>
    <v>       0.12369707       0.87630293       0.62369707 </v>
    <v>       0.37369707       0.37369707       0.87369707 </v>
    <v>       0.37630293       0.62369707       0.62369707 </v>
    <v>       0.87630293       0.37630293       0.87630293 </v>
    <v>       0.37369707       0.12630293       0.62630293 </v>
    <v>       0.12630293       0.12630293       0.87369707 </v>
    <v>       0.62630293       0.87369707       0.62630293 </v>
    <v>       0.62369707       0.12369707       0.87630293 </v>
    <v>       0.62369707       0.37630293       0.62369707 </v>
    <v>       0.87369707       0.87369707       0.87369707 </v>
    <v>       0.87630293       0.12369707       0.62369707 </v>
    <v>       0.87630293       0.87630293       0.37630293 </v>
    <v>       0.37369707       0.62630293       0.12630293 </v>
    <v>       0.12630293       0.62630293       0.37369707 </v>
    <v>       0.62630293       0.37369707       0.12630293 </v>
    <v>       0.62369707       0.62369707       0.37630293 </v>
    <v>       0.62369707       0.87630293       0.12369707 </v>
    <v>       0.87369707       0.37369707       0.37369707 </v>
    <v>       0.87630293       0.62369707       0.12369707 </v>
   </varray>
  </structure>
  <varray name="forces" >
   <v>      -0.00000000       0.00000000       0.00000000 </v>
   <v>      -0.00000000       0.00000000      -0.00000000 </v>
   <v>      -0.00000000       0.00000000      -0.00000000 </v>
   <v>      -0.00000000       0.00000000      -0.00000000 </v>
   <v>      -0.00000000       0.00000000      -0.00000000 </v>
   <v>      -0.00000000       0.00000000       0.00000000 </v>
   <v>      -0.00000000       0.00000000       0.00000000 </v>
   <v>      -0.00000000       0.00000000       0.00000000 </v>
   <v>      -0.00000000       0.00000000      -0.00000000 </v>
   <v>      -0.00000000       0.00000000      -0.00000000 </v>
   <v>      -0.00000000       0.00000000      -0.00000000 </v>
   <v>      -0.00000000       0.00000000       0.00000000 </v>
   <v>      -0.00000000       0.00000000      -0.00000000 </v>
   <v>      -0.00000000       0.00000000       0.00000000 </v>
   <v>      -0.00000000       0.00000000      -0.00000000 </v>
   <v>      -0.00000000       0.00000000      -0.00000000 </v>
   <v>      -0.00000000       0.00000000      -0.00000000 </v>
   <v>      -0.00000000       0.00000000      -0.00000000 </v>
   <v>      -0.00000000       0.00000000      -0.00000000 </v>
   <v>      -0.00000000       0.00000000       0.00000000 </v>
   <v>      -0.00000000       0.00000000      -0.00000000 </v>
   <v>      -0.00000000       0.00000000       0.00000000 </v>
   <v>      -0.00000000       0.00000000      -0.00000000 </v>
   <v>      -0.00000000       0.00000000       0.00000000 </v>
   <v>       0.07777240       0.07777240       0.07777240 </v>
   <v>      -0.07777240       0.07777240       0.07777240 </v>
   <v>       0.07777240       0.07777240      -0.07777240 </v>
   <v>       0.07777240      -0.07777240       0.07777240 </v>
   <v>      -0.07777240      -0.07777240       0.07777240 </v>
   <v>      -0.07777240       0.07777240      -0.07777240 </v>
   <v>      -0.07777240      -0.07777240      -0.07777240 </v>
   <v>       0.07777240      -0.07777240      -0.07777240 </v>
   <v>       0.07777240       0.07777240       0.07777240 </v>
   <v>      -0.07777240       0.07777240       0.07777240 </v>
   <v>       0.07777240       0.07777240      -0.07777240 </v>
   <v>       0.07777240      -0.07777240       0.07777240 </v>
   <v>      -0.07777240      -0.07777240       0.07777240 </v>
   <v>      -0.07777240       0.07777240      -0.07777240 </v>
   <v>      -0.07777240      -0.07777240      -0.07777240 </v>
   <v>       0.07777240      -0.07777240      -0.07777240 </v>
   <v>       0.07777240       0.07777240       0.07777240 </v>
   <v>      -0.07777240       0.07777240       0.07777240 </v>
   <v>       0.07777240       0.07777240      -0.07777240 </v>
   <v>       0.07777240      -0.07777240       0.07777240 </v>
   <v>      -0.07777240      -0.07777240       0.07777240 </v>
   <v>      -0.07777240       0.07777240      -0.07777240 </v>
   <v>      -0.07777240      -0.07777240      -0.07777240 </v>
   <v>       0.07777240      -0.07777240      -0.07777240 </v>
   <v>       0.07777240       0.07777240       0.07777240 </v>
   <v>      -0.07777240       0.07777240       0.07777240 </v>
   <v>       0.07777240       0.07777240      -0.07777240 </v>
   <v>       0.07777240      -0.07777240       0.07777240 </v>
   <v>      -0.07777240      -0.07777240       0.07777240 </v>
   <v>      -0.07777240       0.07777240      -0.07777240 </v>
   <v>      -0.07777240      -0.07777240      -0.07777240 </v>
   <v>       0.07777240      -0.07777240      -0.07777240 </v>
  </varray>
  <varray name="stress" >
   <v>     230.12976150       0.00000000       0.00000000 </v>
   <v>       0.00000000     230.12976150       0.00000000 </v>
   <v>       0.00000000       0.00000000     230.12976150 </v>
  </varray>
  <energy>
   <i name="e_fr_energy">   -323.76567586 </i>
   <i name="e_wo_entrp">   -323.76615990 </i>
   <i name="e_0_energy">      0.00193614 </i>
  </energy>
  <time name="totalsc">   61.19   61.35</time>
 </calculation>
 <calculation>
  <scstep>
   <time name="dav">    4.88    4.88</time>
   <time name="total">    5.23    5.23</time>
   <energy>
    <i name="alphaZ">    348.62611497 </i>
    <i name="ewald"> -10095.65915366 </i>
    <i name="hartreedc">  -1676.29886133 </i>
    <i name="XCdc">    232.83425042 </i>
    <i name="pawpsdc">  27306.76516663 </i>
    <i name="pawaedc"> -26776.04670400 </i>
    <i name="eentropy">      0.00116320 </i>
    <i name="bandstr">    690.51341942 </i>
    <i name="atom">   9645.50393724 </i>
    <i name="e_fr_energy">   -323.76066710 </i>
    <i name="e_wo_entrp">   -323.76183029 </i>
    <i name="e_0_energy">   -323.76095790 </i>
   </energy>
  </scstep>
  <scstep>
   <time name="diag">    0.63    0.63</time>
   <time name="diis">    2.64    2.64</time>
   <time name="orth">    0.08    0.08</time>
   <time name="total">    3.70    3.70</time>
   <energy>
    <i name="e_fr_energy">   -323.76415454 </i>
    <i name="e_wo_entrp">   -323.76545298 </i>
    <i name="e_0_energy">   -323.76447915 </i>
   </energy>
  </scstep>
  <scstep>
   <time name="diag">    0.63    0.63</time>
   <time name="diis">    2.73    2.73</time>
   <time name="orth">    0.09    0.09</time>
   <time name="total">    3.78    3.78</time>
   <energy>
    <i name="e_fr_energy">   -323.76361737 </i>
    <i name="e_wo_entrp">   -323.76502793 </i>
    <i name="e_0_energy">   -323.76397001 </i>
   </energy>
  </scstep>
  <scstep>
   <time name="diag">    0.63    0.63</time>
   <time name="diis">    2.64    2.64</time>
   <time name="orth">    0.08    0.08</time>
   <time name="total">    3.69    3.69</time>
   <energy>
    <i name="e_fr_energy">   -323.76343874 </i>
    <i name="e_wo_entrp">   -323.76494798 </i>
    <i name="e_0_energy">   -323.76381605 </i>
   </energy>
  </scstep>
  <scstep>
   <time name="diag">    0.63    0.63</time>
   <time name="diis">    1.83    1.83</time>
   <time name="orth">    0.08    0.08</time>
   <time name="total">    2.60    2.60</time>
   <energy>
    <i name="alphaZ">    348.62611497 </i>
    <i name="ewald"> -10095.65915366 </i>
    <i name="hartreedc">  -1677.32610967 </i>
    <i name="XCdc">    232.91160930 </i>
    <i name="pawpsdc">  27397.72610433 </i>
    <i name="pawaedc"> -26867.03615185 </i>
    <i name="eentropy">      0.00152426 </i>
    <i name="bandstr">    691.48871002 </i>
    <i name="atom">   9645.50393724 </i>
    <i name="e_fr_energy">   -323.76341505 </i>
    <i name="e_wo_entrp">   -323.76493931 </i>
    <i name="e_0_energy">   -323.76379612 </i>
   </energy>
  </scstep>
  <structure>
   <crystal>
    <varray name="basis" >
     <v>       8.24000625       0.00000000       0.00000000 </v>
     <v>       0.00000000       8.24000625       0.00000000 </v>
     <v>       0.00000000       0.00000000       8.24000625 </v>
    </varray>
    <i name="volume">    559.47749673 </i>
    <varray name="rec_basis" >
     <v>       0.12135913      -0.00000000       0.00000000 </v>
     <v>      -0.00000000       0.12135913       0.00000000 </v>
     <v>      -0.00000000      -0.00000000       0.12135913 </v>
    </varray>
   </crystal>
   <varray name="positions" >
    <v>       0.87500000       0.87500000       0.12500000 </v>
    <v>       0.37500000       0.12500000       0.37500000 </v>
    <v>       0.62500000       0.87500000       0.37500000 </v>
    <v>       0.12500000       0.12500000       0.12500000 </v>
    <v>       0.25000000       0.75000000       0.25000000 </v>
    <v>      -0.00000000       0.00000000       0.50000000 </v>
    <v>       0.87500000       0.37500000       0.62500000 </v>
    <v>       0.37500000       0.62500000       0.87500000 </v>
    <v>       0.62500000       0.37500000       0.87500000 </v>
    <v>       0.12500000       0.62500000       0.62500000 </v>
    <v>       0.25000000       0.25000000       0.75000000 </v>
    <v>      -0.00000000       0.50000000       0.00000000 </v>
    <v>       0.37500000       0.87500000       0.62500000 </v>
    <v>       0.87500000       0.12500000       0.87500000 </v>
    <v>       0.12500000       0.87500000       0.87500000 </v>
    <v>       0.62500000       0.12500000       0.62500000 </v>
    <v>       0.75000000       0.75000000       0.75000000 </v>
    <v>       0.50000000       0.00000000      -0.00000000 </v>
    <v>       0.37500000       0.37500000       0.12500000 </v>
    <v>       0.87500000       0.62500000       0.37500000 </v>
    <v>       0.12500000       0.37500000       0.37500000 </v>
    <v>       0.62500000       0.62500000       0.12500000 </v>
    <v>       0.75000000       0.25000000       0.25000000 </v>
    <v>       0.50000000       0.50000000       0.50000000 </v>
    <v>       0.37675827       0.37675827       0.37675827 </v>
    <v>       0.87324173       0.12675827       0.12675827 </v>
    <v>       0.62675827       0.12675827       0.37324173 </v>
    <v>       0.12675827       0.87324173       0.12675827 </v>
    <v>       0.12324173       0.12324173       0.37675827 </v>
    <v>       0.12324173       0.37675827       0.12324173 </v>
    <v>       0.37324173       0.87324173       0.37324173 </v>
    <v>       0.37675827       0.12324173       0.12324173 </v>
    <v>       0.37675827       0.87675827       0.87675827 </v>
    <v>       0.87324173       0.62675827       0.62675827 </v>
    <v>       0.62675827       0.62675827       0.87324173 </v>
    <v>       0.12675827       0.37324173       0.62675827 </v>
    <v>       0.12324173       0.62324173       0.87675827 </v>
    <v>       0.12324173       0.87675827       0.62324173 </v>
    <v>       0.37324173       0.37324173       0.87324173 </v>
    <v>       0.37675827       0.62324173       0.62324173 </v>
    <v>       0.87675827       0.37675827       0.87675827 </v>
    <v>       0.37324173       0.12675827       0.62675827 </v>
    <v>       0.12675827       0.12675827       0.87324173 </v>
    <v>       0.62675827       0.87324173       0.62675827 </v>
    <v>       0.62324173       0.12324173       0.87675827 </v>
    <v>       0.62324173       0.37675827       0.62324173 </v>
    <v>       0.87324173       0.87324173       0.87324173 </v>
    <v>       0.87675827       0.12324173       0.62324173 </v>
    <v>       0.87675827       0.87675827       0.37675827 </v>
    <v>       0.37324173       0.62675827       0.12675827 </v>
    <v>       0.12675827       0.62675827       0.37324173 </v>
    <v>       0.62675827       0.37324173       0.12675827 </v>
    <v>       0.62324173       0.62324173       0.37675827 </v>
    <v>       0.62324173       0.87675827       0.12324173 </v>
    <v>       0.87324173       0.37324173       0.37324173 </v>
    <v>       0.87675827       0.62324173       0.12324173 </v>
   </varray>
  </structure>
  <varray name="forces" >
   <v>       0.00000000      -0.00000000       0.00000000 </v>
   <v>       0.00000000      -0.00000000      -0.00000000 </v>
   <v>       0.00000000      -0.00000000       0.00000000 </v>
   <v>       0.00000000      -0.00000000       0.00000000 </v>
   <v>       0.00000000      -0.00000000      -0.00000000 </v>
   <v>       0.00000000      -0.00000000       0.00000000 </v>
   <v>       0.00000000      -0.00000000       0.00000000 </v>
   <v>       0.00000000      -0.00000000      -0.00000000 </v>
   <v>       0.00000000      -0.00000000       0.00000000 </v>
   <v>       0.00000000      -0.00000000      -0.00000000 </v>
   <v>       0.00000000      -0.00000000      -0.00000000 </v>
   <v>       0.00000000      -0.00000000       0.00000000 </v>
   <v>       0.00000000      -0.00000000       0.00000000 </v>
   <v>       0.00000000      -0.00000000      -0.00000000 </v>
   <v>       0.00000000      -0.00000000      -0.00000000 </v>
   <v>       0.00000000      -0.00000000      -0.00000000 </v>
   <v>       0.00000000      -0.00000000      -0.00000000 </v>
   <v>       0.00000000      -0.00000000       0.00000000 </v>
   <v>       0.00000000      -0.00000000       0.00000000 </v>
   <v>       0.00000000      -0.00000000      -0.00000000 </v>
   <v>       0.00000000      -0.00000000       0.00000000 </v>
   <v>       0.00000000      -0.00000000      -0.00000000 </v>
   <v>       0.00000000      -0.00000000      -0.00000000 </v>
   <v>       0.00000000      -0.00000000       0.00000000 </v>
   <v>      -0.09153212      -0.09153212      -0.09153212 </v>
   <v>       0.09153212      -0.09153212      -0.09153212 </v>
   <v>      -0.09153212      -0.09153212       0.09153212 </v>
   <v>      -0.09153212       0.09153212      -0.09153212 </v>
   <v>       0.09153212       0.09153212      -0.09153212 </v>
   <v>       0.09153212      -0.09153212       0.09153212 </v>
   <v>       0.09153212       0.09153212       0.09153212 </v>
   <v>      -0.09153212       0.09153212       0.09153212 </v>
   <v>      -0.09153212      -0.09153212      -0.09153212 </v>
   <v>       0.09153212      -0.09153212      -0.09153212 </v>
   <v>      -0.09153212      -0.09153212       0.09153212 </v>
   <v>      -0.09153212       0.09153212      -0.09153212 </v>
   <v>       0.09153212       0.09153212      -0.09153212 </v>
   <v>       0.09153212      -0.09153212       0.09153212 </v>
   <v>       0.09153212       0.09153212       0.09153212 </v>
   <v>      -0.09153212       0.09153212       0.09153212 </v>
   <v>      -0.09153212      -0.09153212      -0.09153212 </v>
   <v>       0.09153212      -0.09153212      -0.09153212 </v>
   <v>      -0.09153212      -0.09153212       0.09153212 </v>
   <v>      -0.09153212       0.09153212      -0.09153212 </v>
   <v>       0.09153212       0.09153212      -0.09153212 </v>
   <v>       0.09153212      -0.09153212       0.09153212 </v>
   <v>       0.09153212       0.09153212       0.09153212 </v>
   <v>      -0.09153212       0.09153212       0.09153212 </v>
   <v>      -0.09153212      -0.09153212      -0.09153212 </v>
   <v>       0.09153212      -0.09153212      -0.09153212 </v>
   <v>      -0.09153212      -0.09153212       0.09153212 </v>
   <v>      -0.09153212       0.09153212      -0.09153212 </v>
   <v>       0.09153212       0.09153212      -0.09153212 </v>
   <v>       0.09153212      -0.09153212       0.09153212 </v>
   <v>       0.09153212       0.09153212       0.09153212 </v>
   <v>      -0.09153212       0.09153212       0.09153212 </v>
  </varray>
  <varray name="stress" >
   <v>     228.98602167       0.00000000       0.00000000 </v>
   <v>       0.00000000     228.98602167       0.00000000 </v>
   <v>       0.00000000       0.00000000     228.98602167 </v>
  </varray>
  <energy>
   <i name="e_fr_energy">   -323.76341505 </i>
   <i name="e_wo_entrp">   -323.76379612 </i>
   <i name="e_0_energy">      0.00152426 </i>
  </energy>
  <time name="totalsc">   25.25   25.26</time>
 </calculation>
 <calculation>
  <scstep>
   <time name="dav">    4.66    4.66</time>
   <time name="total">    5.00    5.00</time>
   <energy>
    <i name="alphaZ">    348.62611497 </i>
    <i name="ewald"> -10095.21120970 </i>
    <i name="hartreedc">  -1678.52670461 </i>
    <i name="XCdc">    232.92224038 </i>
    <i name="pawpsdc">  27396.09224473 </i>
    <i name="pawaedc"> -26865.40296583 </i>
    <i name="eentropy">      0.00178185 </i>
    <i name="bandstr">    692.22305722 </i>
    <i name="atom">   9645.50393724 </i>
    <i name="e_fr_energy">   -323.77150375 </i>
    <i name="e_wo_entrp">   -323.77328560 </i>
    <i name="e_0_energy">   -323.77194921 </i>
   </energy>
  </scstep>
  <scstep>
   <time name="diag">    0.63    0.63</time>
   <time name="diis">    2.64    2.64</time>
   <time name="orth">    0.08    0.08</time>
   <time name="total">    3.69    3.69</time>
   <energy>
    <i name="e_fr_energy">   -323.77233451 </i>
    <i name="e_wo_entrp">   -323.77406479 </i>
    <i name="e_0_energy">   -323.77276708 </i>
   </energy>
  </scstep>
  <scstep>
   <time name="diag">    0.63    0.63</time>
   <time name="diis">    2.18    2.18</time>
   <time name="orth">    0.08    0.08</time>
   <time name="total">    3.23    3.23</time>
   <energy>
    <i name="e_fr_energy">   -323.77216559 </i>
    <i name="e_wo_entrp">   -323.77383036 </i>
    <i name="e_0_energy">   -323.77258178 </i>
   </energy>
  </scstep>
  <scstep>
   <time name="diag">    0.63    0.63</time>
   <time name="diis">    1.67    1.67</time>
   <time name="orth">    0.08    0.08</time>
   <time name="total">    2.44    2.44</time>
   <energy>
    <i name="alphaZ">    348.62611497 </i>
    <i name="ewald"> -10095.21120970 </i>
    <i name="hartreedc">  -1677.98438537 </i>
    <i name="XCdc">    232.88366841 </i>
    <i name="pawpsdc">  27352.65054540 </i>
    <i name="pawaedc"> -26821.94809436 </i>
    <i name="eentropy">      0.00162092 </i>
    <i name="bandstr">    691.70567208 </i>
    <i name="atom">   9645.50393724 </i>
    <i name="e_fr_energy">   -323.77213041 </i>
    <i name="e_wo_entrp">   -323.77375133 </i>
    <i name="e_0_energy">   -323.77253564 </i>
   </energy>
  </scstep>
  <structure>
   <crystal>
    <varray name="basis" >
     <v>       8.24000625       0.00000000       0.00000000 </v>
     <v>       0.00000000       8.24000625       0.00000000 </v>
     <v>       0.00000000       0.00000000       8.24000625 </v>
    </varray>
    <i name="volume">    559.47749673 </i>
    <varray name="rec_basis" >
     <v>       0.12135913      -0.00000000       0.00000000 </v>
     <v>      -0.00000000       0.12135913       0.00000000 </v>
     <v>      -0.00000000      -0.00000000       0.12135913 </v>
    </varray>
   </crystal>
   <varray name="positions" >
    <v>       0.87500000       0.87500000       0.12500000 </v>
    <v>       0.37500000       0.12500000       0.37500000 </v>
    <v>       0.62500000       0.87500000       0.37500000 </v>
    <v>       0.12500000       0.12500000       0.12500000 </v>
    <v>       0.25000000       0.75000000       0.25000000 </v>
    <v>      -0.00000000       0.00000000       0.50000000 </v>
    <v>       0.87500000       0.37500000       0.62500000 </v>
    <v>       0.37500000       0.62500000       0.87500000 </v>
    <v>       0.62500000       0.37500000       0.87500000 </v>
    <v>       0.12500000       0.62500000       0.62500000 </v>
    <v>       0.25000000       0.25000000       0.75000000 </v>
    <v>      -0.00000000       0.50000000       0.00000000 </v>
    <v>       0.37500000       0.87500000       0.62500000 </v>
    <v>       0.87500000       0.12500000       0.87500000 </v>
    <v>       0.12500000       0.87500000       0.87500000 </v>
    <v>       0.62500000       0.12500000       0.62500000 </v>
    <v>       0.75000000       0.75000000       0.75000000 </v>
    <v>       0.50000000       0.00000000      -0.00000000 </v>
    <v>       0.37500000       0.37500000       0.12500000 </v>
    <v>       0.87500000       0.62500000       0.37500000 </v>
    <v>       0.12500000       0.37500000       0.37500000 </v>
    <v>       0.62500000       0.62500000       0.12500000 </v>
    <v>       0.75000000       0.25000000       0.25000000 </v>
    <v>       0.50000000       0.50000000       0.50000000 </v>
    <v>       0.37651210       0.37651210       0.37651210 </v>
    <v>       0.87348790       0.12651210       0.12651210 </v>
    <v>       0.62651210       0.12651210       0.37348790 </v>
    <v>       0.12651210       0.87348790       0.12651210 </v>
    <v>       0.12348790       0.12348790       0.37651210 </v>
    <v>       0.12348790       0.37651210       0.12348790 </v>
    <v>       0.37348790       0.87348790       0.37348790 </v>
    <v>       0.37651210       0.12348790       0.12348790 </v>
    <v>       0.37651210       0.87651210       0.87651210 </v>
    <v>       0.87348790       0.62651210       0.62651210 </v>
    <v>       0.62651210       0.62651210       0.87348790 </v>
    <v>       0.12651210       0.37348790       0.62651210 </v>
    <v>       0.12348790       0.62348790       0.87651210 </v>
    <v>       0.12348790       0.87651210       0.62348790 </v>
    <v>       0.37348790       0.37348790       0.87348790 </v>
    <v>       0.37651210       0.62348790       0.62348790 </v>
    <v>       0.87651210       0.37651210       0.87651210 </v>
    <v>       0.37348790       0.12651210       0.62651210 </v>
    <v>       0.12651210       0.12651210       0.87348790 </v>
    <v>       0.62651210       0.87348790       0.62651210 </v>
    <v>       0.62348790       0.12348790       0.87651210 </v>
    <v>       0.62348790       0.37651210       0.62348790 </v>
    <v>       0.87348790       0.87348790       0.87348790 </v>
    <v>       0.87651210       0.12348790       0.62348790 </v>
    <v>       0.87651210       0.87651210       0.37651210 </v>
    <v>       0.37348790       0.62651210       0.12651210 </v>
    <v>       0.12651210       0.62651210       0.37348790 </v>
    <v>       0.62651210       0.37348790       0.12651210 </v>
    <v>       0.62348790       0.62348790       0.37651210 </v>
    <v>       0.62348790       0.87651210       0.12348790 </v>
    <v>       0.87348790       0.37348790       0.37348790 </v>
    <v>       0.87651210       0.62348790       0.12348790 </v>
   </varray>
  </structure>
  <varray name="forces" >
   <v>      -0.00000000      -0.00000000       0.00000000 </v>
   <v>      -0.00000000      -0.00000000       0.00000000 </v>
   <v>      -0.00000000      -0.00000000       0.00000000 </v>
   <v>      -0.00000000      -0.00000000       0.00000000 </v>
   <v>      -0.00000000      -0.00000000       0.00000000 </v>
   <v>      -0.00000000      -0.00000000       0.00000000 </v>
   <v>      -0.00000000      -0.00000000       0.00000000 </v>
   <v>      -0.00000000      -0.00000000       0.00000000 </v>
   <v>      -0.00000000      -0.00000000       0.00000000 </v>
   <v>      -0.00000000      -0.00000000       0.00000000 </v>
   <v>      -0.00000000      -0.00000000       0.00000000 </v>
   <v>      -0.00000000      -0.00000000       0.00000000 </v>
   <v>      -0.00000000      -0.00000000       0.00000000 </v>
   <v>      -0.00000000      -0.00000000       0.00000000 </v>
   <v>      -0.00000000      -0.00000000       0.00000000 </v>
   <v>      -0.00000000      -0.00000000       0.00000000 </v>
   <v>      -0.00000000      -0.00000000       0.00000000 </v>
   <v>      -0.00000000      -0.00000000       0.00000000 </v>
   <v>      -0.00000000      -0.00000000       0.00000000 </v>
   <v>      -0.00000000      -0.00000000       0.00000000 </v>
   <v>      -0.00000000      -0.00000000       0.00000000 </v>
   <v>      -0.00000000      -0.00000000       0.00000000 </v>
   <v>      -0.00000000      -0.00000000       0.00000000 </v>
   <v>      -0.00000000      -0.00000000       0.00000000 </v>
   <v>      -0.00013531      -0.00013531      -0.00013531 </v>
   <v>       0.00013531      -0.00013531      -0.00013531 </v>
   <v>      -0.00013531      -0.00013531       0.00013531 </v>
   <v>      -0.00013531       0.00013531      -0.00013531 </v>
   <v>       0.00013531       0.00013531      -0.00013531 </v>
   <v>       0.00013531      -0.00013531       0.00013531 </v>
   <v>       0.00013531       0.00013531       0.00013531 </v>
   <v>      -0.00013531       0.00013531       0.00013531 </v>
   <v>      -0.00013531      -0.00013531      -0.00013531 </v>
   <v>       0.00013531      -0.00013531      -0.00013531 </v>
   <v>      -0.00013531      -0.00013531       0.00013531 </v>
   <v>      -0.00013531       0.00013531      -0.00013531 </v>
   <v>       0.00013531       0.00013531      -0.00013531 </v>
   <v>       0.00013531      -0.00013531       0.00013531 </v>
   <v>       0.00013531       0.00013531       0.00013531 </v>
   <v>      -0.00013531       0.00013531       0.00013531 </v>
   <v>      -0.00013531      -0.00013531      -0.00013531 </v>
   <v>       0.00013531      -0.00013531      -0.00013531 </v>
   <v>      -0.00013531      -0.00013531       0.00013531 </v>
   <v>      -0.00013531       0.00013531      -0.00013531 </v>
   <v>       0.00013531       0.00013531      -0.00013531 </v>
   <v>       0.00013531      -0.00013531       0.00013531 </v>
   <v>       0.00013531       0.00013531       0.00013531 </v>
   <v>      -0.00013531       0.00013531       0.00013531 </v>
   <v>      -0.00013531      -0.00013531      -0.00013531 </v>
   <v>       0.00013531      -0.00013531      -0.00013531 </v>
   <v>      -0.00013531      -0.00013531       0.00013531 </v>
   <v>      -0.00013531       0.00013531      -0.00013531 </v>
   <v>       0.00013531       0.00013531      -0.00013531 </v>
   <v>       0.00013531      -0.00013531       0.00013531 </v>
   <v>       0.00013531       0.00013531       0.00013531 </v>
   <v>      -0.00013531       0.00013531       0.00013531 </v>
  </varray>
  <varray name="stress" >
   <v>     229.59680188       0.00000000       0.00000000 </v>
   <v>       0.00000000     229.59680188       0.00000000 </v>
   <v>       0.00000000       0.00000000     229.59680188 </v>
  </varray>
  <energy>
   <i name="e_fr_energy">   -323.77213041 </i>
   <i name="e_wo_entrp">   -323.77253564 </i>
   <i name="e_0_energy">      0.00162092 </i>
  </energy>
  <time name="totalsc">   20.06   20.07</time>
  <eigenvalues>
   <array>
    <dimension dim="1">band</dimension>
    <dimension dim="2">kpoint</dimension>
    <dimension dim="3">spin</dimension>
    <field>eigene</field>
    <field>occ</field>
    <set>
     <set comment="spin 1">
      <set comment="kpoint 1">
       <r>   -9.0101    1.0000 </r>
       <r>   -7.8072    1.0000 </r>
       <r>   -7.8072    1.0000 </r>
       <r>   -7.8072    1.0000 </r>
       <r>   -7.8072    1.0000 </r>
       <r>   -7.8072    1.0000 </r>
       <r>   -7.8072    1.0000 </r>
       <r>   -7.2854    1.0000 </r>
       <r>   -7.0927    1.0000 </r>
       <r>   -7.0927    1.0000 </r>
       <r>   -7.0927    1.0000 </r>
       <r>   -7.0927    1.0000 </r>
       <r>   -7.0927    1.0000 </r>
       <r>   -7.0927    1.0000 </r>
       <r>   -6.9435    1.0000 </r>
       <r>   -5.8736    1.0000 </r>
       <r>   -5.8736    1.0000 </r>
       <r>   -5.8736    1.0000 </r>
       <r>   -5.8736    1.0000 </r>
       <r>   -5.8736    1.0000 </r>
       <r>   -5.8736    1.0000 </r>
       <r>   -5.7077    1.0000 </r>
       <r>   -5.7077    1.0000 </r>
       <r>   -5.7077    1.0000 </r>
       <r>   -0.3405    1.0000 </r>
       <r>   -0.2123    1.0000 </r>
       <r>   -0.2123    1.0000 </r>
       <r>   -0.2123    1.0000 </r>
       <r>    0.3189    1.0000 </r>
       <r>    0.3189    1.0000 </r>
       <r>    0.3189    1.0000 </r>
       <r>    0.3189    1.0000 </r>
       <r>    0.3189    1.0000 </r>
       <r>    0.3189    1.0000 </r>
       <r>    0.9153    1.0000 </r>
       <r>    0.9153    1.0000 </r>
       <r>    0.9153    1.0000 </r>
       <r>    0.9153    1.0000 </r>
       <r>    0.9153    1.0000 </r>
       <r>    0.9153    1.0000 </r>
       <r>    1.5515    1.0000 </r>
       <r>    1.5515    1.0000 </r>
       <r>    1.5515    1.0000 </r>
       <r>    1.9750    1.0000 </r>
       <r>    1.9750    1.0000 </r>
       <r>    1.9750    1.0000 </r>
       <r>    1.9750    1.0000 </r>
       <r>    1.9750    1.0000 </r>
       <r>    1.9750    1.0000 </r>
       <r>    2.0729    1.0000 </r>
       <r>    2.0729    1.0000 </r>
       <r>    2.4950    1.0000 </r>
       <r>    2.4950    1.0000 </r>
       <r>    2.4950    1.0000 </r>
       <r>    2.4950    1.0000 </r>
       <r>    2.4950    1.0000 </r>
       <r>    2.4950    1.0000 </r>
       <r>    3.5646    1.0000 </r>
       <r>    3.5646    1.0000 </r>
       <r>    3.5646    1.0000 </r>
       <r>    3.5646    1.0000 </r>
       <r>    3.5646    1.0000 </r>
       <r>    3.5646    1.0000 </r>
       <r>    3.7744    1.0000 </r>
       <r>    3.7744    1.0000 </r>
       <r>    3.7744    1.0000 </r>
       <r>    3.7744    1.0000 </r>
       <r>    3.7744    1.0000 </r>
       <r>    3.7744    1.0000 </r>
       <r>    3.8225    1.0000 </r>
       <r>    3.8225    1.0000 </r>
       <r>    3.8225    1.0000 </r>
       <r>    3.8225    1.0000 </r>
       <r>    3.8225    1.0000 </r>
       <r>    3.8225    1.0000 </r>
       <r>    4.1220    1.0000 </r>
       <r>    4.1220    1.0000 </r>
       <r>    4.1220    1.0000 </r>
       <r>    4.5142    1.0000 </r>
       <r>    4.5142    1.0000 </r>
       <r>    4.5142    1.0000 </r>
       <r>    4.5142    1.0000 </r>
       <r>    4.5142    1.0000 </r>
       <r>    4.5142    1.0000 </r>
       <r>    5.7756    1.0000 </r>
       <r>    5.7756    1.0000 </r>
       <r>    5.7756    1.0000 </r>
       <r>    6.4834    1.0000 </r>
       <r>    6.4834    1.0000 </r>
       <r>    6.4834    1.0000 </r>
       <r>    6.4834    1.0000 </r>
       <r>    6.4834    1.0000 </r>
       <r>    6.4834    1.0000 </r>
       <r>    6.8981    1.0000 </r>
       <r>    6.9772    1.0000 </r>
       <r>    6.9772    1.0000 </r>
       <r>    6.9772    1.0000 </r>
       <r>    9.6803    1.0000 </r>
       <r>    9.6803    1.0000 </r>
       <r>    9.6803    1.0000 </r>
       <r>    9.6803    1.0000 </r>
       <r>    9.6803    1.0000 </r>
       <r>    9.6803    1.0000 </r>
       <r>    9.8720    1.0000 </r>
       <r>    9.8720    1.0000 </r>
       <r>    9.8720    1.0000 </r>
       <r>   10.3635    1.0000 </r>
       <r>   10.3635    1.0000 </r>
       <r>   10.3635    1.0000 </r>
       <r>   10.3635    1.0000 </r>
       <r>   10.3635    1.0000 </r>
       <r>   10.3635    1.0000 </r>
       <r>   10.6341    1.0000 </r>
       <r>   10.6341    1.0000 </r>
       <r>   10.6341    1.0000 </r>
       <r>   10.6705    1.0000 </r>
       <r>   10.6705    1.0000 </r>
       <r>   10.6705    1.0000 </r>
       <r>   10.6706    1.0000 </r>
       <r>   10.6706    1.0000 </r>
       <r>   10.6706    1.0000 </r>
       <r>   11.0139    1.0000 </r>
       <r>   11.0139    1.0000 </r>
       <r>   11.0139    1.0000 </r>
       <r>   11.0139    1.0000 </r>
       <r>   11.0139    1.0000 </r>
       <r>   11.0139    1.0000 </r>
       <r>   12.5263    0.0000 </r>
       <r>   12.5404    0.0000 </r>
       <r>   12.5404    0.0000 </r>
       <r>   12.5404    0.0000 </r>
       <r>   12.5404    0.0000 </r>
       <r>   12.5404    0.0000 </r>
       <r>   12.5404    0.0000 </r>
       <r>   12.7281    0.0000 </r>
       <r>   12.7281    0.0000 </r>
       <r>   13.1609    0.0000 </r>
       <r>   13.1609    0.0000 </r>
       <r>   13.1609    0.0000 </r>
       <r>   13.1610    0.0000 </r>
       <r>   13.1610    0.0000 </r>
       <r>   13.1610    0.0000 </r>
       <r>   13.2080    0.0000 </r>
       <r>   13.2080    0.0000 </r>
       <r>   13.2080    0.0000 </r>
       <r>   13.2080    0.0000 </r>
       <r>   13.2080    0.0000 </r>
       <r>   13.2080    0.0000 </r>
       <r>   14.1867    0.0000 </r>
       <r>   14.1867    0.0000 </r>
       <r>   14.2925    0.0000 </r>
       <r>   14.2925    0.0000 </r>
       <r>   14.2925    0.0000 </r>
       <r>   14.8630    0.0000 </r>
       <r>   15.6961    0.0000 </r>
       <r>   15.7062    0.0000 </r>
      </set>
      <set comment="kpoint 2">
       <r>   -8.9523    1.0000 </r>
       <r>   -8.1640    1.0000 </r>
       <r>   -7.7809    1.0000 </r>
       <r>   -7.7809    1.0000 </r>
       <r>   -7.7809    1.0000 </r>
       <r>   -7.7809    1.0000 </r>
       <r>   -7.5620    1.0000 </r>
       <r>   -7.3051    1.0000 </r>
       <r>   -7.1506    1.0000 </r>
       <r>   -7.1506    1.0000 </r>
       <r>   -7.1506    1.0000 </r>
       <r>   -7.1506    1.0000 </r>
       <r>   -7.1486    1.0000 </r>
       <r>   -6.9695    1.0000 </r>
       <r>   -6.8464    1.0000 </r>
       <r>   -5.8585    1.0000 </r>
       <r>   -5.8585    1.0000 </r>
       <r>   -5.8327    1.0000 </r>
       <r>   -5.8327    1.0000 </r>
       <r>   -5.8327    1.0000 </r>
       <r>   -5.8327    1.0000 </r>
       <r>   -5.8030    1.0000 </r>
       <r>   -5.7240    1.0000 </r>
       <r>   -5.7240    1.0000 </r>
       <r>   -0.2117    1.0000 </r>
       <r>   -0.1827    1.0000 </r>
       <r>   -0.1827    1.0000 </r>
       <r>   -0.0842    1.0000 </r>
       <r>    0.2381    1.0000 </r>
       <r>    0.2381    1.0000 </r>
       <r>    0.3292    1.0000 </r>
       <r>    0.3292    1.0000 </r>
       <r>    0.3292    1.0000 </r>
       <r>    0.3292    1.0000 </r>
       <r>    0.6710    1.0000 </r>
       <r>    0.8648    1.0000 </r>
       <r>    0.8648    1.0000 </r>
       <r>    0.8648    1.0000 </r>
       <r>    0.8648    1.0000 </r>
       <r>    1.0531    1.0000 </r>
       <r>    1.1033    1.0000 </r>
       <r>    1.3877    1.0000 </r>
       <r>    1.6751    1.0000 </r>
       <r>    1.6751    1.0000 </r>
       <r>    1.9505    1.0000 </r>
       <r>    1.9505    1.0000 </r>
       <r>    1.9506    1.0000 </r>
       <r>    1.9506    1.0000 </r>
       <r>    2.1376    1.0000 </r>
       <r>    2.2210    1.0000 </r>
       <r>    2.4373    1.0000 </r>
       <r>    2.4373    1.0000 </r>
       <r>    2.4373    1.0000 </r>
       <r>    2.4373    1.0000 </r>
       <r>    2.5364    1.0000 </r>
       <r>    2.5364    1.0000 </r>
       <r>    2.7030    1.0000 </r>
       <r>    3.0539    1.0000 </r>
       <r>    3.3855    1.0000 </r>
       <r>    3.3855    1.0000 </r>
       <r>    3.3855    1.0000 </r>
       <r>    3.3855    1.0000 </r>
       <r>    3.5960    1.0000 </r>
       <r>    3.5960    1.0000 </r>
       <r>    3.7907    1.0000 </r>
       <r>    3.7907    1.0000 </r>
       <r>    3.7907    1.0000 </r>
       <r>    3.7907    1.0000 </r>
       <r>    3.8407    1.0000 </r>
       <r>    4.0616    1.0000 </r>
       <r>    4.0616    1.0000 </r>
       <r>    4.0878    1.0000 </r>
       <r>    4.0975    1.0000 </r>
       <r>    4.1353    1.0000 </r>
       <r>    4.2483    1.0000 </r>
       <r>    4.2483    1.0000 </r>
       <r>    4.2483    1.0000 </r>
       <r>    4.2483    1.0000 </r>
       <r>    4.5385    1.0000 </r>
       <r>    4.5385    1.0000 </r>
       <r>    4.5385    1.0000 </r>
       <r>    4.5385    1.0000 </r>
       <r>    4.7081    1.0000 </r>
       <r>    4.7081    1.0000 </r>
       <r>    5.6233    1.0000 </r>
       <r>    5.6233    1.0000 </r>
       <r>    5.6357    1.0000 </r>
       <r>    6.3052    1.0000 </r>
       <r>    6.3052    1.0000 </r>
       <r>    6.3052    1.0000 </r>
       <r>    6.3052    1.0000 </r>
       <r>    6.4202    1.0000 </r>
       <r>    6.5105    1.0000 </r>
       <r>    6.5105    1.0000 </r>
       <r>    6.8918    1.0000 </r>
       <r>    6.8918    1.0000 </r>
       <r>    7.5051    1.0000 </r>
       <r>    8.9677    1.0000 </r>
       <r>    9.6806    1.0000 </r>
       <r>    9.7590    1.0000 </r>
       <r>    9.7590    1.0000 </r>
       <r>    9.7590    1.0000 </r>
       <r>    9.7590    1.0000 </r>
       <r>    9.8445    1.0000 </r>
       <r>   10.0203    1.0000 </r>
       <r>   10.0203    1.0000 </r>
       <r>   10.0204    1.0000 </r>
       <r>   10.0204    1.0000 </r>
       <r>   10.2075    1.0000 </r>
       <r>   10.2075    1.0000 </r>
       <r>   10.2591    1.0000 </r>
       <r>   10.3381    1.0000 </r>
       <r>   10.3381    1.0000 </r>
       <r>   10.5354    1.0000 </r>
       <r>   10.5354    1.0000 </r>
       <r>   10.5354    1.0000 </r>
       <r>   10.5354    1.0000 </r>
       <r>   10.5956    1.0000 </r>
       <r>   10.5956    1.0000 </r>
       <r>   10.6820    1.0000 </r>
       <r>   11.2381    0.9995 </r>
       <r>   11.2761    0.9980 </r>
       <r>   11.2761    0.9980 </r>
       <r>   11.5318    0.4471 </r>
       <r>   11.5318    0.4471 </r>
       <r>   11.5318    0.4471 </r>
       <r>   11.5318    0.4471 </r>
       <r>   12.2507    0.0000 </r>
       <r>   12.2507    0.0000 </r>
       <r>   12.2507    0.0000 </r>
       <r>   12.2507    0.0000 </r>
       <r>   12.4818    0.0000 </r>
       <r>   12.6914    0.0000 </r>
       <r>   12.7076    0.0000 </r>
       <r>   12.7415    0.0000 </r>
       <r>   12.7786    0.0000 </r>
       <r>   12.8345    0.0000 </r>
       <r>   13.0447    0.0000 </r>
       <r>   13.0447    0.0000 </r>
       <r>   13.1667    0.0000 </r>
       <r>   13.1667    0.0000 </r>
       <r>   13.1667    0.0000 </r>
       <r>   13.1667    0.0000 </r>
       <r>   13.5282    0.0000 </r>
       <r>   13.5282    0.0000 </r>
       <r>   13.5282    0.0000 </r>
       <r>   13.5282    0.0000 </r>
       <r>   13.7811    0.0000 </r>
       <r>   13.8970    0.0000 </r>
       <r>   14.0751    0.0000 </r>
       <r>   14.2564    0.0000 </r>
       <r>   14.2564    0.0000 </r>
       <r>   14.3662    0.0000 </r>
       <r>   15.1885    0.0000 </r>
       <r>   15.2292    0.0000 </r>
       <r>   15.4365    0.0000 </r>
      </set>
      <set comment="kpoint 3">
       <r>   -8.7820    1.0000 </r>
       <r>   -8.5105    1.0000 </r>
       <r>   -7.7282    1.0000 </r>
       <r>   -7.7282    1.0000 </r>
       <r>   -7.7282    1.0000 </r>
       <r>   -7.7282    1.0000 </r>
       <r>   -7.4392    1.0000 </r>
       <r>   -7.3595    1.0000 </r>
       <r>   -7.2497    1.0000 </r>
       <r>   -7.2497    1.0000 </r>
       <r>   -7.2497    1.0000 </r>
       <r>   -7.2497    1.0000 </r>
       <r>   -7.1088    1.0000 </r>
       <r>   -7.0353    1.0000 </r>
       <r>   -6.4532    1.0000 </r>
       <r>   -6.0707    1.0000 </r>
       <r>   -5.8180    1.0000 </r>
       <r>   -5.8180    1.0000 </r>
       <r>   -5.7707    1.0000 </r>
       <r>   -5.7707    1.0000 </r>
       <r>   -5.7707    1.0000 </r>
       <r>   -5.7707    1.0000 </r>
       <r>   -5.7666    1.0000 </r>
       <r>   -5.7666    1.0000 </r>
       <r>   -0.0888    1.0000 </r>
       <r>   -0.0888    1.0000 </r>
       <r>    0.0674    1.0000 </r>
       <r>    0.0674    1.0000 </r>
       <r>    0.1543    1.0000 </r>
       <r>    0.2677    1.0000 </r>
       <r>    0.3490    1.0000 </r>
       <r>    0.3490    1.0000 </r>
       <r>    0.3490    1.0000 </r>
       <r>    0.3490    1.0000 </r>
       <r>    0.5683    1.0000 </r>
       <r>    0.7121    1.0000 </r>
       <r>    0.7234    1.0000 </r>
       <r>    0.7411    1.0000 </r>
       <r>    0.7802    1.0000 </r>
       <r>    0.7802    1.0000 </r>
       <r>    0.7802    1.0000 </r>
       <r>    0.7802    1.0000 </r>
       <r>    1.9121    1.0000 </r>
       <r>    1.9121    1.0000 </r>
       <r>    1.9121    1.0000 </r>
       <r>    1.9121    1.0000 </r>
       <r>    1.9994    1.0000 </r>
       <r>    1.9994    1.0000 </r>
       <r>    2.3262    1.0000 </r>
       <r>    2.3852    1.0000 </r>
       <r>    2.3852    1.0000 </r>
       <r>    2.3928    1.0000 </r>
       <r>    2.3928    1.0000 </r>
       <r>    2.3929    1.0000 </r>
       <r>    2.3929    1.0000 </r>
       <r>    2.6105    1.0000 </r>
       <r>    2.6352    1.0000 </r>
       <r>    3.1455    1.0000 </r>
       <r>    3.1455    1.0000 </r>
       <r>    3.1455    1.0000 </r>
       <r>    3.1455    1.0000 </r>
       <r>    3.2317    1.0000 </r>
       <r>    3.5495    1.0000 </r>
       <r>    3.5924    1.0000 </r>
       <r>    3.5924    1.0000 </r>
       <r>    3.8595    1.0000 </r>
       <r>    3.8595    1.0000 </r>
       <r>    4.1190    1.0000 </r>
       <r>    4.1367    1.0000 </r>
       <r>    4.1367    1.0000 </r>
       <r>    4.1367    1.0000 </r>
       <r>    4.1367    1.0000 </r>
       <r>    4.4104    1.0000 </r>
       <r>    4.4104    1.0000 </r>
       <r>    4.4104    1.0000 </r>
       <r>    4.4104    1.0000 </r>
       <r>    4.7210    1.0000 </r>
       <r>    4.7759    1.0000 </r>
       <r>    4.7759    1.0000 </r>
       <r>    4.7759    1.0000 </r>
       <r>    4.7759    1.0000 </r>
       <r>    4.8549    1.0000 </r>
       <r>    4.9999    1.0000 </r>
       <r>    4.9999    1.0000 </r>
       <r>    5.2526    1.0000 </r>
       <r>    5.3021    1.0000 </r>
       <r>    5.3021    1.0000 </r>
       <r>    5.7025    1.0000 </r>
       <r>    5.9419    1.0000 </r>
       <r>    5.9419    1.0000 </r>
       <r>    5.9419    1.0000 </r>
       <r>    5.9419    1.0000 </r>
       <r>    6.5977    1.0000 </r>
       <r>    6.5977    1.0000 </r>
       <r>    6.7353    1.0000 </r>
       <r>    6.7353    1.0000 </r>
       <r>    8.2517    1.0000 </r>
       <r>    8.7218    1.0000 </r>
       <r>    9.0345    1.0000 </r>
       <r>    9.2168    1.0000 </r>
       <r>    9.5827    1.0000 </r>
       <r>    9.5827    1.0000 </r>
       <r>    9.5827    1.0000 </r>
       <r>    9.5827    1.0000 </r>
       <r>   10.0368    1.0000 </r>
       <r>   10.0368    1.0000 </r>
       <r>   10.0368    1.0000 </r>
       <r>   10.0368    1.0000 </r>
       <r>   10.2406    1.0000 </r>
       <r>   10.3743    1.0000 </r>
       <r>   10.3743    1.0000 </r>
       <r>   10.4752    1.0000 </r>
       <r>   10.4752    1.0000 </r>
       <r>   10.4752    1.0000 </r>
       <r>   10.4752    1.0000 </r>
       <r>   10.4796    1.0000 </r>
       <r>   10.4796    1.0000 </r>
       <r>   10.4950    1.0000 </r>
       <r>   10.9629    1.0000 </r>
       <r>   10.9629    1.0000 </r>
       <r>   11.5131    0.6428 </r>
       <r>   11.5131    0.6428 </r>
       <r>   11.5131    0.6427 </r>
       <r>   11.5131    0.6427 </r>
       <r>   11.5357    0.4064 </r>
       <r>   11.5357    0.4064 </r>
       <r>   12.2291    0.0000 </r>
       <r>   12.4125    0.0000 </r>
       <r>   12.4125    0.0000 </r>
       <r>   12.4125    0.0000 </r>
       <r>   12.4125    0.0000 </r>
       <r>   12.5125    0.0000 </r>
       <r>   12.5988    0.0000 </r>
       <r>   12.7569    0.0000 </r>
       <r>   12.8497    0.0000 </r>
       <r>   12.9315    0.0000 </r>
       <r>   12.9315    0.0000 </r>
       <r>   12.9529    0.0000 </r>
       <r>   12.9972    0.0000 </r>
       <r>   13.2227    0.0000 </r>
       <r>   13.2227    0.0000 </r>
       <r>   13.2227    0.0000 </r>
       <r>   13.2227    0.0000 </r>
       <r>   13.4098    0.0000 </r>
       <r>   13.6631    0.0000 </r>
       <r>   13.6631    0.0000 </r>
       <r>   13.8027    0.0000 </r>
       <r>   13.9138    0.0000 </r>
       <r>   13.9138    0.0000 </r>
       <r>   13.9138    0.0000 </r>
       <r>   13.9138    0.0000 </r>
       <r>   14.0774    0.0000 </r>
       <r>   14.8104    0.0000 </r>
       <r>   14.8124    0.0000 </r>
       <r>   14.8309    0.0000 </r>
       <r>   15.0459    0.0000 </r>
      </set>
      <set comment="kpoint 4">
       <r>   -8.8950    1.0000 </r>
       <r>   -8.1192    1.0000 </r>
       <r>   -8.1192    1.0000 </r>
       <r>   -7.7779    1.0000 </r>
       <r>   -7.7483    1.0000 </r>
       <r>   -7.5679    1.0000 </r>
       <r>   -7.5679    1.0000 </r>
       <r>   -7.3555    1.0000 </r>
       <r>   -7.3259    1.0000 </r>
       <r>   -7.2121    1.0000 </r>
       <r>   -7.2121    1.0000 </r>
       <r>   -7.0055    1.0000 </r>
       <r>   -7.0012    1.0000 </r>
       <r>   -6.8874    1.0000 </r>
       <r>   -6.8874    1.0000 </r>
       <r>   -5.9070    1.0000 </r>
       <r>   -5.8517    1.0000 </r>
       <r>   -5.8252    1.0000 </r>
       <r>   -5.8252    1.0000 </r>
       <r>   -5.8166    1.0000 </r>
       <r>   -5.8166    1.0000 </r>
       <r>   -5.7639    1.0000 </r>
       <r>   -5.7313    1.0000 </r>
       <r>   -5.7165    1.0000 </r>
       <r>   -0.2999    1.0000 </r>
       <r>   -0.0690    1.0000 </r>
       <r>   -0.0494    1.0000 </r>
       <r>    0.0526    1.0000 </r>
       <r>    0.1698    1.0000 </r>
       <r>    0.1698    1.0000 </r>
       <r>    0.2673    1.0000 </r>
       <r>    0.3161    1.0000 </r>
       <r>    0.3161    1.0000 </r>
       <r>    0.4792    1.0000 </r>
       <r>    0.5210    1.0000 </r>
       <r>    0.6375    1.0000 </r>
       <r>    0.6375    1.0000 </r>
       <r>    0.9403    1.0000 </r>
       <r>    1.0122    1.0000 </r>
       <r>    1.0122    1.0000 </r>
       <r>    1.0999    1.0000 </r>
       <r>    1.4489    1.0000 </r>
       <r>    1.4489    1.0000 </r>
       <r>    1.5491    1.0000 </r>
       <r>    1.7992    1.0000 </r>
       <r>    1.8720    1.0000 </r>
       <r>    1.9179    1.0000 </r>
       <r>    2.0192    1.0000 </r>
       <r>    2.0879    1.0000 </r>
       <r>    2.0879    1.0000 </r>
       <r>    2.3933    1.0000 </r>
       <r>    2.3933    1.0000 </r>
       <r>    2.5845    1.0000 </r>
       <r>    2.5845    1.0000 </r>
       <r>    2.5890    1.0000 </r>
       <r>    2.8195    1.0000 </r>
       <r>    2.8881    1.0000 </r>
       <r>    3.1679    1.0000 </r>
       <r>    3.3327    1.0000 </r>
       <r>    3.3327    1.0000 </r>
       <r>    3.4127    1.0000 </r>
       <r>    3.4127    1.0000 </r>
       <r>    3.5179    1.0000 </r>
       <r>    3.5899    1.0000 </r>
       <r>    3.5899    1.0000 </r>
       <r>    3.6781    1.0000 </r>
       <r>    3.7500    1.0000 </r>
       <r>    3.7532    1.0000 </r>
       <r>    4.0214    1.0000 </r>
       <r>    4.0324    1.0000 </r>
       <r>    4.0324    1.0000 </r>
       <r>    4.0917    1.0000 </r>
       <r>    4.1859    1.0000 </r>
       <r>    4.1859    1.0000 </r>
       <r>    4.3401    1.0000 </r>
       <r>    4.4030    1.0000 </r>
       <r>    4.4030    1.0000 </r>
       <r>    4.5489    1.0000 </r>
       <r>    4.5547    1.0000 </r>
       <r>    4.5675    1.0000 </r>
       <r>    4.6640    1.0000 </r>
       <r>    4.6640    1.0000 </r>
       <r>    4.8929    1.0000 </r>
       <r>    4.8929    1.0000 </r>
       <r>    5.2657    1.0000 </r>
       <r>    5.4779    1.0000 </r>
       <r>    5.7198    1.0000 </r>
       <r>    5.9115    1.0000 </r>
       <r>    6.1318    1.0000 </r>
       <r>    6.3265    1.0000 </r>
       <r>    6.3265    1.0000 </r>
       <r>    6.3672    1.0000 </r>
       <r>    6.3672    1.0000 </r>
       <r>    6.4787    1.0000 </r>
[...]
       <r>   13.6551    0.0000 </r>
       <r>   13.6551    0.0000 </r>
       <r>   13.6971    0.0000 </r>
       <r>   13.6971    0.0000 </r>
       <r>   13.6971    0.0000 </r>
       <r>   13.8854    0.0000 </r>
       <r>   13.8855    0.0000 </r>
       <r>   13.8856    0.0000 </r>
       <r>   14.0158    0.0000 </r>
       <r>   14.0160    0.0000 </r>
       <r>   14.1582    0.0000 </r>
       <r>   14.2694    0.0000 </r>
       <r>   14.2811    0.0000 </r>
       <r>   14.3175    0.0000 </r>
      </set>
     </set>
    </set>
   </array>
  </eigenvalues>
  <separator name="orbital magnetization" >
   <v name="MAGDIPOLOUT">      0.00000000      0.00000000      0.00000000</v>
  </separator>
  <dos>
   <i name="efermi">     11.52680496 </i>
   <total>
    <array>
     <dimension dim="1">gridpoints</dimension>
     <dimension dim="2">spin</dimension>
     <field>energy</field>
     <field>total</field>
     <field>integrated</field>
     <set>
      <set comment="spin 1">
       <r>   -10.2459     0.0000     0.0000 </r>
       <r>   -10.1553     0.0000     0.0000 </r>
       <r>   -10.0647     0.0000     0.0000 </r>
       <r>    -9.9741     0.0000     0.0000 </r>
       <r>    -9.8834     0.0000     0.0000 </r>
       <r>    -9.7928     0.0000     0.0000 </r>
       <r>    -9.7022     0.0000     0.0000 </r>
       <r>    -9.6115     0.0000     0.0000 </r>
       <r>    -9.5209     0.0000     0.0000 </r>
       <r>    -9.4303     0.0000     0.0000 </r>
       <r>    -9.3397     0.0000     0.0000 </r>
       <r>    -9.2490     0.0009     0.0001 </r>
       <r>    -9.1584     0.0051     0.0005 </r>
       <r>    -9.0678    -0.0385    -0.0029 </r>
       <r>    -8.9772     0.3343     0.0274 </r>
       <r>    -8.8865     2.2451     0.2308 </r>
       <r>    -8.7959     2.3422     0.4431 </r>
       <r>    -8.7053     4.7624     0.8747 </r>
       <r>    -8.6147     4.5709     1.2889 </r>
       <r>    -8.5240     3.6960     1.6239 </r>
       <r>    -8.4334     8.0625     2.3545 </r>
       <r>    -8.3428     5.6637     2.8678 </r>
       <r>    -8.2522     8.7637     3.6621 </r>
       <r>    -8.1615     5.5538     4.1654 </r>
       <r>    -8.0709    11.2478     5.1847 </r>
       <r>    -7.9803    12.7622     6.3413 </r>
       <r>    -7.8896     9.3919     7.1925 </r>
       <r>    -7.7990    10.8557     8.1763 </r>
       <r>    -7.7084    20.6328    10.0462 </r>
       <r>    -7.6178    18.1669    11.6926 </r>
       <r>    -7.5271    17.8111    13.3067 </r>
       <r>    -7.4365    17.0614    14.8529 </r>
       <r>    -7.3459    24.0610    17.0335 </r>
       <r>    -7.2553    31.9152    19.9258 </r>
       <r>    -7.1646    26.5116    22.3285 </r>
       <r>    -7.0740    15.2438    23.7100 </r>
       <r>    -6.9834     9.7994    24.5981 </r>
       <r>    -6.8928    10.6458    25.5629 </r>
       <r>    -6.8021    12.1684    26.6656 </r>
       <r>    -6.7115     5.9025    27.2006 </r>
       <r>    -6.6209     3.1825    27.4890 </r>
       <r>    -6.5302    10.7348    28.4618 </r>
       <r>    -6.4396    13.0465    29.6442 </r>
       <r>    -6.3490     4.7762    30.0770 </r>
       <r>    -6.2584     5.4650    30.5723 </r>
       <r>    -6.1677     5.5616    31.0763 </r>
       <r>    -6.0771     5.1713    31.5450 </r>
       <r>    -5.9865     0.9506    31.6311 </r>
       <r>    -5.8959    -0.8171    31.5571 </r>
       <r>    -5.8052    43.6544    35.5133 </r>
       <r>    -5.7146   113.7454    45.8217 </r>
       <r>    -5.6240    27.8054    48.3416 </r>
       <r>    -5.5334    -4.2671    47.9549 </r>
       <r>    -5.4427     0.4516    47.9958 </r>
       <r>    -5.3521     0.0460    48.0000 </r>
       <r>    -5.2615     0.0004    48.0000 </r>
       <r>    -5.1709     0.0000    48.0000 </r>
       <r>    -5.0802     0.0000    48.0000 </r>
       <r>    -4.9896     0.0000    48.0000 </r>
       <r>    -4.8990     0.0000    48.0000 </r>
       <r>    -4.8083     0.0000    48.0000 </r>
       <r>    -4.7177     0.0000    48.0000 </r>
       <r>    -4.6271     0.0000    48.0000 </r>
       <r>    -4.5365     0.0000    48.0000 </r>
       <r>    -4.4458     0.0000    48.0000 </r>
       <r>    -4.3552     0.0000    48.0000 </r>
       <r>    -4.2646     0.0000    48.0000 </r>
       <r>    -4.1740     0.0000    48.0000 </r>
       <r>    -4.0833     0.0000    48.0000 </r>
       <r>    -3.9927     0.0000    48.0000 </r>
       <r>    -3.9021     0.0000    48.0000 </r>
       <r>    -3.8115     0.0000    48.0000 </r>
       <r>    -3.7208     0.0000    48.0000 </r>
       <r>    -3.6302     0.0000    48.0000 </r>
       <r>    -3.5396     0.0000    48.0000 </r>
       <r>    -3.4490     0.0000    48.0000 </r>
       <r>    -3.3583     0.0000    48.0000 </r>
       <r>    -3.2677     0.0000    48.0000 </r>
       <r>    -3.1771     0.0000    48.0000 </r>
       <r>    -3.0864     0.0000    48.0000 </r>
       <r>    -2.9958     0.0000    48.0000 </r>
       <r>    -2.9052     0.0000    48.0000 </r>
       <r>    -2.8146     0.0000    48.0000 </r>
       <r>    -2.7239     0.0000    48.0000 </r>
       <r>    -2.6333     0.0000    48.0000 </r>
       <r>    -2.5427     0.0000    48.0000 </r>
       <r>    -2.4521     0.0000    48.0000 </r>
       <r>    -2.3614     0.0000    48.0000 </r>
       <r>    -2.2708     0.0000    48.0000 </r>
       <r>    -2.1802     0.0000    48.0000 </r>
       <r>    -2.0896     0.0000    48.0000 </r>
       <r>    -1.9989     0.0000    48.0000 </r>
       <r>    -1.9083     0.0000    48.0000 </r>
       <r>    -1.8177     0.0000    48.0000 </r>
       <r>    -1.7270     0.0000    48.0000 </r>
       <r>    -1.6364     0.0000    48.0000 </r>
       <r>    -1.5458     0.0000    48.0000 </r>
       <r>    -1.4552     0.0000    48.0000 </r>
       <r>    -1.3645     0.0000    48.0000 </r>
       <r>    -1.2739     0.0000    48.0000 </r>
       <r>    -1.1833     0.0000    48.0000 </r>
       <r>    -1.0927     0.0000    48.0000 </r>
       <r>    -1.0020     0.0000    48.0000 </r>
       <r>    -0.9114     0.0000    48.0000 </r>
       <r>    -0.8208     0.0000    48.0000 </r>
       <r>    -0.7302     0.0000    48.0000 </r>
       <r>    -0.6395     0.0002    48.0000 </r>
       <r>    -0.5489     0.0087    48.0008 </r>
       <r>    -0.4583     0.0201    48.0026 </r>
       <r>    -0.3677    -0.2749    47.9777 </r>
       <r>    -0.2770     3.5773    48.3019 </r>
       <r>    -0.1864    12.1812    49.4058 </r>
       <r>    -0.0958    18.7043    51.1009 </r>
       <r>    -0.0051    32.6573    54.0606 </r>
       <r>     0.0855    32.3520    56.9925 </r>
       <r>     0.1761    38.8563    60.5139 </r>
       <r>     0.2667    22.1368    62.5201 </r>
       <r>     0.3574    40.0943    66.1537 </r>
       <r>     0.4480    22.7339    68.2140 </r>
       <r>     0.5386    25.4238    70.5180 </r>
       <r>     0.6292    17.0407    72.0624 </r>
       <r>     0.7199    13.3504    73.2723 </r>
       <r>     0.8105    20.1360    75.0971 </r>
       <r>     0.9011    21.0631    77.0060 </r>
       <r>     0.9917    24.5572    79.2315 </r>
       <r>     1.0824    15.7806    80.6617 </r>
       <r>     1.1730    12.9194    81.8325 </r>
       <r>     1.2636    11.9448    82.9150 </r>
       <r>     1.3542     9.2611    83.7543 </r>
       <r>     1.4449     5.4650    84.2496 </r>
       <r>     1.5355    19.0717    85.9780 </r>
       <r>     1.6261    16.8377    87.5040 </r>
       <r>     1.7168    14.2280    88.7934 </r>
       <r>     1.8074    25.8556    91.1366 </r>
       <r>     1.8980    25.4385    93.4420 </r>
       <r>     1.9886    29.9368    96.1550 </r>
       <r>     2.0793    18.5022    97.8318 </r>
       <r>     2.1699    15.2657    99.2153 </r>
       <r>     2.2605    17.9934   100.8460 </r>
       <r>     2.3511    15.3789   102.2397 </r>
       <r>     2.4418    17.3099   103.8085 </r>
       <r>     2.5324    12.7354   104.9626 </r>
       <r>     2.6230    18.4864   106.6380 </r>
       <r>     2.7136     2.7655   106.8886 </r>
       <r>     2.8043     9.0880   107.7122 </r>
       <r>     2.8949    26.1187   110.0793 </r>
       <r>     2.9855    14.8709   111.4269 </r>
       <r>     3.0761     5.2052   111.8987 </r>
       <r>     3.1668    22.6226   113.9489 </r>
       <r>     3.2574    28.2258   116.5069 </r>
       <r>     3.3480    28.2381   119.0660 </r>
       <r>     3.4387    25.5194   121.3787 </r>
       <r>     3.5293    29.9957   124.0971 </r>
       <r>     3.6199    37.0969   127.4591 </r>
       <r>     3.7105    33.3346   130.4801 </r>
       <r>     3.8012    27.5115   132.9734 </r>
       <r>     3.8918    19.3441   134.7265 </r>
       <r>     3.9824    35.3622   137.9312 </r>
       <r>     4.0730    36.1170   141.2044 </r>
       <r>     4.1637    30.1104   143.9332 </r>
       <r>     4.2543    20.7711   145.8156 </r>
       <r>     4.3449    26.1967   148.1897 </r>
       <r>     4.4355    20.8171   150.0763 </r>
       <r>     4.5262    37.7181   153.4945 </r>
       <r>     4.6168    43.2890   157.4177 </r>
       <r>     4.7074    27.3335   159.8948 </r>
       <r>     4.7981    23.4048   162.0159 </r>
       <r>     4.8887    31.0429   164.8292 </r>
       <r>     4.9793    15.1692   166.2039 </r>
       <r>     5.0699     6.9449   166.8333 </r>
       <r>     5.1606    15.8546   168.2702 </r>
       <r>     5.2512     9.3295   169.1157 </r>
       <r>     5.3418    11.7385   170.1795 </r>
       <r>     5.4324    17.7435   171.7875 </r>
       <r>     5.5231    12.6158   172.9308 </r>
       <r>     5.6137     2.9394   173.1972 </r>
       <r>     5.7043    15.0927   174.5650 </r>
       <r>     5.7949    16.0234   176.0172 </r>
       <r>     5.8856     4.3302   176.4096 </r>
       <r>     5.9762    15.1813   177.7854 </r>
       <r>     6.0668     9.3186   178.6299 </r>
       <r>     6.1574     9.5518   179.4956 </r>
       <r>     6.2481     3.4727   179.8103 </r>
       <r>     6.3387    22.5549   181.8544 </r>
       <r>     6.4293    19.9236   183.6600 </r>
       <r>     6.5200    27.1753   186.1228 </r>
       <r>     6.6106    27.1529   188.5836 </r>
       <r>     6.7012    16.9452   190.1192 </r>
       <r>     6.7918    12.5491   191.2565 </r>
       <r>     6.8825     4.7791   191.6896 </r>
       <r>     6.9731     3.5464   192.0110 </r>
       <r>     7.0637     0.0652   192.0169 </r>
       <r>     7.1543    -0.0184   192.0153 </r>
       <r>     7.2450     0.0091   192.0161 </r>
       <r>     7.3356    -0.0011   192.0160 </r>
       <r>     7.4262    -0.0418   192.0122 </r>
       <r>     7.5168     0.7026   192.0759 </r>
       <r>     7.6075     0.4619   192.1177 </r>
       <r>     7.6981    -0.1739   192.1020 </r>
       <r>     7.7887     0.9018   192.1837 </r>
       <r>     7.8793     1.3971   192.3103 </r>
       <r>     7.9700    -0.2358   192.2889 </r>
       <r>     8.0606     3.9178   192.6440 </r>
       <r>     8.1512     3.0131   192.9171 </r>
       <r>     8.2419     0.5487   192.9668 </r>
       <r>     8.3325     2.1030   193.1574 </r>
       <r>     8.4231     9.8611   194.0511 </r>
       <r>     8.5137     6.8008   194.6674 </r>
       <r>     8.6044     8.2682   195.4167 </r>
       <r>     8.6950     9.4174   196.2702 </r>
       <r>     8.7856    13.2793   197.4736 </r>
       <r>     8.8762     3.0071   197.7462 </r>
       <r>     8.9669     6.1245   198.3012 </r>
       <r>     9.0575    14.7443   199.6374 </r>
       <r>     9.1481    13.1395   200.8282 </r>
       <r>     9.2387     8.4005   201.5895 </r>
       <r>     9.3294     3.3898   201.8967 </r>
       <r>     9.4200    18.4694   203.5705 </r>
       <r>     9.5106    17.5761   205.1634 </r>
       <r>     9.6013     1.6057   205.3089 </r>
       <r>     9.6919    19.1177   207.0415 </r>
       <r>     9.7825    15.0659   208.4068 </r>
       <r>     9.8731    13.1595   209.5994 </r>
       <r>     9.9638    38.6674   213.1037 </r>
       <r>    10.0544    31.3252   215.9426 </r>
       <r>    10.1450    21.8695   217.9246 </r>
       <r>    10.2356    21.8003   219.9002 </r>
       <r>    10.3263    26.2348   222.2778 </r>
       <r>    10.4169    21.3182   224.2098 </r>
       <r>    10.5075    10.1915   225.1334 </r>
       <r>    10.5981    15.0454   226.4969 </r>
       <r>    10.6888    17.0762   228.0445 </r>
       <r>    10.7794    10.3799   228.9852 </r>
       <r>    10.8700     7.5526   229.6696 </r>
       <r>    10.9606    26.9417   232.1113 </r>
       <r>    11.0513    30.4468   234.8705 </r>
       <r>    11.1419    24.8849   237.1258 </r>
       <r>    11.2325    24.5034   239.3464 </r>
       <r>    11.3232    22.0311   241.3430 </r>
       <r>    11.4138    31.7518   244.2206 </r>
       <r>    11.5044    36.0577   247.4884 </r>
       <r>    11.5950    12.6279   248.6328 </r>
       <r>    11.6857     2.9885   248.9036 </r>
       <r>    11.7763     8.8178   249.7027 </r>
       <r>    11.8669     5.5960   250.2099 </r>
       <r>    11.9575    14.2866   251.5046 </r>
       <r>    12.0482     6.9839   252.1376 </r>
       <r>    12.1388     9.4162   252.9909 </r>
       <r>    12.2294    30.4099   255.7469 </r>
       <r>    12.3200    29.1733   258.3907 </r>
       <r>    12.4107    18.4640   260.0641 </r>
       <r>    12.5013    18.2672   261.7196 </r>
       <r>    12.5919    23.3538   263.8360 </r>
       <r>    12.6825    30.1597   266.5693 </r>
       <r>    12.7732    27.2380   269.0378 </r>
       <r>    12.8638    23.0093   271.1230 </r>
       <r>    12.9544    17.1397   272.6763 </r>
       <r>    13.0451    21.6891   274.6419 </r>
       <r>    13.1357    26.8851   277.0784 </r>
       <r>    13.2263    35.7324   280.3167 </r>
       <r>    13.3169    25.4682   282.6248 </r>
       <r>    13.4076    20.1679   284.4526 </r>
       <r>    13.4982    29.7232   287.1463 </r>
       <r>    13.5888    21.6066   289.1044 </r>
       <r>    13.6794    20.9236   291.0006 </r>
       <r>    13.7701    21.6625   292.9638 </r>
       <r>    13.8607    26.0318   295.3230 </r>
       <r>    13.9513    28.5435   297.9098 </r>
       <r>    14.0419    18.7956   299.6132 </r>
       <r>    14.1326    16.0272   301.0657 </r>
       <r>    14.2232    29.6547   303.7532 </r>
       <r>    14.3138    18.9161   305.4675 </r>
       <r>    14.4045     8.9315   306.2769 </r>
       <r>    14.4951     8.4401   307.0418 </r>
       <r>    14.5857    10.0510   307.9527 </r>
       <r>    14.6763    12.8943   309.1212 </r>
       <r>    14.7670    11.0924   310.1265 </r>
       <r>    14.8576     5.6832   310.6415 </r>
       <r>    14.9482     1.7154   310.7970 </r>
       <r>    15.0388     3.1426   311.0818 </r>
       <r>    15.1295     4.1758   311.4602 </r>
       <r>    15.2201     3.8920   311.8130 </r>
       <r>    15.3107     0.6931   311.8758 </r>
       <r>    15.4013     0.1185   311.8865 </r>
       <r>    15.4920     0.8647   311.9649 </r>
       <r>    15.5826     0.0355   311.9681 </r>
       <r>    15.6732     0.0748   311.9749 </r>
       <r>    15.7638     0.2759   311.9999 </r>
       <r>    15.8545     0.0046   312.0003 </r>
       <r>    15.9451    -0.0040   311.9999 </r>
       <r>    16.0357     0.0009   312.0000 </r>
       <r>    16.1264     0.0000   312.0000 </r>
       <r>    16.2170     0.0000   312.0000 </r>
       <r>    16.3076     0.0000   312.0000 </r>
       <r>    16.3982     0.0000   312.0000 </r>
       <r>    16.4889     0.0000   312.0000 </r>
       <r>    16.5795     0.0000   312.0000 </r>
       <r>    16.6701     0.0000   312.0000 </r>
       <r>    16.7607     0.0000   312.0000 </r>
       <r>    16.8514     0.0000   312.0000 </r>
       <r>    16.9420     0.0000   312.0000 </r>
      </set>
     </set>
    </array>
   </total>
  </dos>
 </calculation>
 <structure name="finalpos" >
  <crystal>
   <varray name="basis" >
    <v>       8.24000625       0.00000000       0.00000000 </v>
    <v>       0.00000000       8.24000625       0.00000000 </v>
    <v>       0.00000000       0.00000000       8.24000625 </v>
   </varray>
   <i name="volume">    559.47749673 </i>
   <varray name="rec_basis" >
    <v>       0.12135913      -0.00000000       0.00000000 </v>
    <v>      -0.00000000       0.12135913       0.00000000 </v>
    <v>      -0.00000000      -0.00000000       0.12135913 </v>
   </varray>
  </crystal>
  <varray name="positions" >
   <v>       0.87500000       0.87500000       0.12500000 </v>
   <v>       0.37500000       0.12500000       0.37500000 </v>
   <v>       0.62500000       0.87500000       0.37500000 </v>
   <v>       0.12500000       0.12500000       0.12500000 </v>
   <v>       0.25000000       0.75000000       0.25000000 </v>
   <v>      -0.00000000       0.00000000       0.50000000 </v>
   <v>       0.87500000       0.37500000       0.62500000 </v>
   <v>       0.37500000       0.62500000       0.87500000 </v>
   <v>       0.62500000       0.37500000       0.87500000 </v>
   <v>       0.12500000       0.62500000       0.62500000 </v>
   <v>       0.25000000       0.25000000       0.75000000 </v>
   <v>      -0.00000000       0.50000000       0.00000000 </v>
   <v>       0.37500000       0.87500000       0.62500000 </v>
   <v>       0.87500000       0.12500000       0.87500000 </v>
   <v>       0.12500000       0.87500000       0.87500000 </v>
   <v>       0.62500000       0.12500000       0.62500000 </v>
   <v>       0.75000000       0.75000000       0.75000000 </v>
   <v>       0.50000000       0.00000000      -0.00000000 </v>
   <v>       0.37500000       0.37500000       0.12500000 </v>
   <v>       0.87500000       0.62500000       0.37500000 </v>
   <v>       0.12500000       0.37500000       0.37500000 </v>
   <v>       0.62500000       0.62500000       0.12500000 </v>
   <v>       0.75000000       0.25000000       0.25000000 </v>
   <v>       0.50000000       0.50000000       0.50000000 </v>
   <v>       0.37651210       0.37651210       0.37651210 </v>
   <v>       0.87348790       0.12651210       0.12651210 </v>
   <v>       0.62651210       0.12651210       0.37348790 </v>
   <v>       0.12651210       0.87348790       0.12651210 </v>
   <v>       0.12348790       0.12348790       0.37651210 </v>
   <v>       0.12348790       0.37651210       0.12348790 </v>
   <v>       0.37348790       0.87348790       0.37348790 </v>
   <v>       0.37651210       0.12348790       0.12348790 </v>
   <v>       0.37651210       0.87651210       0.87651210 </v>
   <v>       0.87348790       0.62651210       0.62651210 </v>
   <v>       0.62651210       0.62651210       0.87348790 </v>
   <v>       0.12651210       0.37348790       0.62651210 </v>
   <v>       0.12348790       0.62348790       0.87651210 </v>
   <v>       0.12348790       0.87651210       0.62348790 </v>
   <v>       0.37348790       0.37348790       0.87348790 </v>
   <v>       0.37651210       0.62348790       0.62348790 </v>
   <v>       0.87651210       0.37651210       0.87651210 </v>
   <v>       0.37348790       0.12651210       0.62651210 </v>
   <v>       0.12651210       0.12651210       0.87348790 </v>
   <v>       0.62651210       0.87348790       0.62651210 </v>
   <v>       0.62348790       0.12348790       0.87651210 </v>
   <v>       0.62348790       0.37651210       0.62348790 </v>
   <v>       0.87348790       0.87348790       0.87348790 </v>
   <v>       0.87651210       0.12348790       0.62348790 </v>
   <v>       0.87651210       0.87651210       0.37651210 </v>
   <v>       0.37348790       0.62651210       0.12651210 </v>
   <v>       0.12651210       0.62651210       0.37348790 </v>
   <v>       0.62651210       0.37348790       0.12651210 </v>
   <v>       0.62348790       0.62348790       0.37651210 </v>
   <v>       0.62348790       0.87651210       0.12348790 </v>
   <v>       0.87348790       0.37348790       0.37348790 </v>
   <v>       0.87651210       0.62348790       0.12348790 </v>
  </varray>
 </structure>
</modeling>
