unknown system                          
           1
     8.240006    0.000000    0.000000
     0.000000    8.240006    0.000000
     0.000000    0.000000    8.240006
   Si   N 
  24  32
Direct configuration=     1
   0.87500000  0.87500000  0.12500000
   0.37500000  0.12500000  0.37500000
   0.62500000  0.87500000  0.37500000
   0.12500000  0.12500000  0.12500000
   0.25000000  0.75000000  0.25000000
   0.00000000  0.00000000  0.50000000
   0.87500000  0.37500000  0.62500000
   0.37500000  0.62500000  0.87500000
   0.62500000  0.37500000  0.87500000
   0.12500000  0.62500000  0.62500000
   0.25000000  0.25000000  0.75000000
   0.00000000  0.50000000  0.00000000
   0.37500000  0.87500000  0.62500000
   0.87500000  0.12500000  0.87500000
   0.12500000  0.87500000  0.87500000
   0.62500000  0.12500000  0.62500000
   0.75000000  0.75000000  0.75000000
   0.50000000  0.00000000  0.00000000
   0.37500000  0.37500000  0.12500000
   0.87500000  0.62500000  0.37500000
   0.12500000  0.37500000  0.37500000
   0.62500000  0.62500000  0.12500000
   0.75000000  0.25000000  0.25000000
   0.50000000  0.50000000  0.50000000
   0.37630293  0.37630293  0.37630293
   0.87369707  0.12630293  0.12630293
   0.62630293  0.12630293  0.37369707
   0.12630293  0.87369707  0.12630293
   0.12369707  0.12369707  0.37630293
   0.12369707  0.37630293  0.12369707
   0.37369707  0.87369707  0.37369707
   0.37630293  0.12369707  0.12369707
   0.37630293  0.87630293  0.87630293
   0.87369707  0.62630293  0.62630293
   0.62630293  0.62630293  0.87369707
   0.12630293  0.37369707  0.62630293
   0.12369707  0.62369707  0.87630293
   0.12369707  0.87630293  0.62369707
   0.37369707  0.37369707  0.87369707
   0.37630293  0.62369707  0.62369707
   0.87630293  0.37630293  0.87630293
   0.37369707  0.12630293  0.62630293
   0.12630293  0.12630293  0.87369707
   0.62630293  0.87369707  0.62630293
   0.62369707  0.12369707  0.87630293
   0.62369707  0.37630293  0.62369707
   0.87369707  0.87369707  0.87369707
   0.87630293  0.12369707  0.62369707
   0.87630293  0.87630293  0.37630293
   0.37369707  0.62630293  0.12630293
   0.12630293  0.62630293  0.37369707
   0.62630293  0.37369707  0.12630293
   0.62369707  0.62369707  0.37630293
   0.62369707  0.87630293  0.12369707
   0.87369707  0.37369707  0.37369707
   0.87630293  0.62369707  0.12369707
Direct configuration=     2
   0.87500000  0.87500000  0.12500000
   0.37500000  0.12500000  0.37500000
   0.62500000  0.87500000  0.37500000
   0.12500000  0.12500000  0.12500000
   0.25000000  0.75000000  0.25000000
  -0.00000000  0.00000000  0.50000000
   0.87500000  0.37500000  0.62500000
   0.37500000  0.62500000  0.87500000
   0.62500000  0.37500000  0.87500000
   0.12500000  0.62500000  0.62500000
   0.25000000  0.25000000  0.75000000
  -0.00000000  0.50000000  0.00000000
   0.37500000  0.87500000  0.62500000
   0.87500000  0.12500000  0.87500000
   0.12500000  0.87500000  0.87500000
   0.62500000  0.12500000  0.62500000
   0.75000000  0.75000000  0.75000000
   0.50000000  0.00000000 -0.00000000
   0.37500000  0.37500000  0.12500000
   0.87500000  0.62500000  0.37500000
   0.12500000  0.37500000  0.37500000
   0.62500000  0.62500000  0.12500000
   0.75000000  0.25000000  0.25000000
   0.50000000  0.50000000  0.50000000
   0.37675827  0.37675827  0.37675827
   0.87324173  0.12675827  0.12675827
   0.62675827  0.12675827  0.37324173
   0.12675827  0.87324173  0.12675827
   0.12324173  0.12324173  0.37675827
   0.12324173  0.37675827  0.12324173
   0.37324173  0.87324173  0.37324173
   0.37675827  0.12324173  0.12324173
   0.37675827  0.87675827  0.87675827
   0.87324173  0.62675827  0.62675827
   0.62675827  0.62675827  0.87324173
   0.12675827  0.37324173  0.62675827
   0.12324173  0.62324173  0.87675827
   0.12324173  0.87675827  0.62324173
   0.37324173  0.37324173  0.87324173
   0.37675827  0.62324173  0.62324173
   0.87675827  0.37675827  0.87675827
   0.37324173  0.12675827  0.62675827
   0.12675827  0.12675827  0.87324173
   0.62675827  0.87324173  0.62675827
   0.62324173  0.12324173  0.87675827
   0.62324173  0.37675827  0.62324173
   0.87324173  0.87324173  0.87324173
   0.87675827  0.12324173  0.62324173
   0.87675827  0.87675827  0.37675827
   0.37324173  0.62675827  0.12675827
   0.12675827  0.62675827  0.37324173
   0.62675827  0.37324173  0.12675827
   0.62324173  0.62324173  0.37675827
   0.62324173  0.87675827  0.12324173
   0.87324173  0.37324173  0.37324173
   0.87675827  0.62324173  0.12324173
Direct configuration=     3
   0.87500000  0.87500000  0.12500000
   0.37500000  0.12500000  0.37500000
   0.62500000  0.87500000  0.37500000
   0.12500000  0.12500000  0.12500000
   0.25000000  0.75000000  0.25000000
  -0.00000000  0.00000000  0.50000000
   0.87500000  0.37500000  0.62500000
   0.37500000  0.62500000  0.87500000
   0.62500000  0.37500000  0.87500000
   0.12500000  0.62500000  0.62500000
   0.25000000  0.25000000  0.75000000
  -0.00000000  0.50000000  0.00000000
   0.37500000  0.87500000  0.62500000
   0.87500000  0.12500000  0.87500000
   0.12500000  0.87500000  0.87500000
   0.62500000  0.12500000  0.62500000
   0.75000000  0.75000000  0.75000000
   0.50000000  0.00000000 -0.00000000
   0.37500000  0.37500000  0.12500000
   0.87500000  0.62500000  0.37500000
   0.12500000  0.37500000  0.37500000
   0.62500000  0.62500000  0.12500000
   0.75000000  0.25000000  0.25000000
   0.50000000  0.50000000  0.50000000
   0.37651210  0.37651210  0.37651210
   0.87348790  0.12651210  0.12651210
   0.62651210  0.12651210  0.37348790
   0.12651210  0.87348790  0.12651210
   0.12348790  0.12348790  0.37651210
   0.12348790  0.37651210  0.12348790
   0.37348790  0.87348790  0.37348790
   0.37651210  0.12348790  0.12348790
   0.37651210  0.87651210  0.87651210
   0.87348790  0.62651210  0.62651210
   0.62651210  0.62651210  0.87348790
   0.12651210  0.37348790  0.62651210
   0.12348790  0.62348790  0.87651210
   0.12348790  0.87651210  0.62348790
   0.37348790  0.37348790  0.87348790
   0.37651210  0.62348790  0.62348790
   0.87651210  0.37651210  0.87651210
   0.37348790  0.12651210  0.62651210
   0.12651210  0.12651210  0.87348790
   0.62651210  0.87348790  0.62651210
   0.62348790  0.12348790  0.87651210
   0.62348790  0.37651210  0.62348790
   0.87348790  0.87348790  0.87348790
   0.87651210  0.12348790  0.62348790
   0.87651210  0.87651210  0.37651210
   0.37348790  0.62651210  0.12651210
   0.12651210  0.62651210  0.37348790
   0.62651210  0.37348790  0.12651210
   0.62348790  0.62348790  0.37651210
   0.62348790  0.87651210  0.12348790
   0.87348790  0.37348790  0.37348790
   0.87651210  0.62348790  0.12348790
