  28  28   0   0
  0.1235656E+02  0.8543033E-09  0.8543033E-09  0.5473948E-09  0.5000000E-15
  1.000000000000000E-004
  CAR 
 unknown system                          
     14.11336353    -12.28567331  301      7.65634268      1.00000000
    -12.286  0.0000E+00  0.0000E+00
    -12.198  0.0000E+00  0.0000E+00
    -12.110  0.0000E+00  0.0000E+00
    -12.022  0.0000E+00  0.0000E+00
    -11.934  0.3929E-32  0.3457E-33
    -11.846  0.3987E-26  0.3508E-27
    -11.758  0.8342E-21  0.7341E-22
    -11.670  0.3593E-16  0.3162E-17
    -11.582  0.3168E-12  0.2788E-13
    -11.494  0.5645E-09  0.4970E-10
    -11.406  0.1962E-06  0.1731E-07
    -11.318  0.1177E-04  0.1053E-05
    -11.230  0.5557E-04  0.5943E-05
    -11.142 -0.4824E-03 -0.3651E-04
    -11.054  0.3876E-02  0.3046E-03
    -10.966  0.1982E-01  0.2049E-02
    -10.878  0.3361E-01  0.5006E-02
    -10.790  0.4230E-01  0.8729E-02
    -10.702  0.4056E-01  0.1230E-01
    -10.614  0.4957E-01  0.1666E-01
    -10.526  0.6605E-01  0.2247E-01
    -10.438  0.1027E+00  0.3151E-01
    -10.350  0.7351E-01  0.3798E-01
    -10.262  0.9244E-01  0.4611E-01
    -10.174  0.6096E-01  0.5148E-01
    -10.086  0.3604E-01  0.5465E-01
     -9.998  0.3114E-01  0.5739E-01
     -9.910  0.5014E-02  0.5783E-01
     -9.822  0.6520E-01  0.6357E-01
     -9.734  0.8513E-01  0.7106E-01
     -9.646  0.1657E-01  0.7252E-01
     -9.558  0.4540E-01  0.7651E-01
     -9.470  0.1460E+00  0.8936E-01
     -9.382  0.1120E+00  0.9922E-01
     -9.294  0.5845E-01  0.1044E+00
     -9.206  0.5988E-01  0.1096E+00
     -9.118  0.3445E-01  0.1127E+00
     -9.030  0.5283E-01  0.1173E+00
     -8.942  0.1056E+00  0.1266E+00
     -8.854  0.1502E+00  0.1398E+00
     -8.766  0.1625E+00  0.1541E+00
     -8.678  0.1393E+00  0.1664E+00
     -8.590  0.1318E+00  0.1780E+00
     -8.502  0.9184E-01  0.1861E+00
     -8.414  0.9107E-01  0.1941E+00
     -8.326  0.1266E+00  0.2052E+00
     -8.238  0.2435E+00  0.2266E+00
     -8.150  0.1476E+00  0.2396E+00
     -8.062  0.6177E-02  0.2402E+00
     -7.974 -0.2429E-02  0.2399E+00
     -7.886  0.5400E-03  0.2400E+00
     -7.798  0.3108E-04  0.2400E+00
     -7.710  0.2191E-06  0.2400E+00
     -7.622  0.2723E-09  0.2400E+00
     -7.534  0.6581E-13  0.2400E+00
     -7.446  0.1928E-17  0.2400E+00
     -7.358  0.0000E+00  0.2400E+00
     -7.270  0.0000E+00  0.2400E+00
     -7.182  0.0000E+00  0.2400E+00
     -7.094  0.0000E+00  0.2400E+00
     -7.006  0.0000E+00  0.2400E+00
     -6.918  0.0000E+00  0.2400E+00
     -6.830  0.0000E+00  0.2400E+00
     -6.742  0.0000E+00  0.2400E+00
     -6.654  0.0000E+00  0.2400E+00
     -6.566  0.0000E+00  0.2400E+00
     -6.478  0.0000E+00  0.2400E+00
     -6.390  0.0000E+00  0.2400E+00
     -6.302  0.0000E+00  0.2400E+00
     -6.214  0.0000E+00  0.2400E+00
     -6.126  0.0000E+00  0.2400E+00
     -6.038  0.0000E+00  0.2400E+00
     -5.950  0.0000E+00  0.2400E+00
     -5.862  0.0000E+00  0.2400E+00
     -5.774  0.0000E+00  0.2400E+00
     -5.686  0.0000E+00  0.2400E+00
     -5.598  0.0000E+00  0.2400E+00
     -5.510  0.0000E+00  0.2400E+00
     -5.422  0.0000E+00  0.2400E+00
     -5.334  0.0000E+00  0.2400E+00
     -5.246  0.0000E+00  0.2400E+00
     -5.158  0.0000E+00  0.2400E+00
     -5.070  0.0000E+00  0.2400E+00
     -4.982  0.0000E+00  0.2400E+00
     -4.894  0.8609E-35  0.2400E+00
     -4.806  0.1634E-28  0.2400E+00
     -4.718  0.6328E-23  0.2400E+00
     -4.630  0.4938E-18  0.2400E+00
     -4.542  0.7645E-14  0.2400E+00
     -4.454  0.2276E-10  0.2400E+00
     -4.366  0.1245E-07  0.2400E+00
     -4.278  0.1149E-05  0.2400E+00
     -4.190  0.1393E-04  0.2400E+00
     -4.102 -0.3767E-04  0.2400E+00
     -4.014  0.5541E-04  0.2400E+00
     -3.926  0.4899E-02  0.2404E+00
     -3.838  0.9816E-02  0.2413E+00
     -3.750  0.9120E-02  0.2421E+00
     -3.662  0.2252E-01  0.2441E+00
     -3.574  0.1097E-01  0.2450E+00
     -3.486  0.2220E-01  0.2470E+00
     -3.398  0.3596E-01  0.2502E+00
     -3.310  0.1340E-01  0.2513E+00
     -3.222  0.3773E-01  0.2547E+00
     -3.134  0.2101E-01  0.2565E+00
     -3.046  0.4265E-01  0.2603E+00
     -2.958  0.7881E-01  0.2672E+00
     -2.870  0.5794E-01  0.2723E+00
     -2.782  0.9296E-01  0.2805E+00
     -2.694  0.9385E-01  0.2887E+00
     -2.606  0.8170E-01  0.2959E+00
     -2.518  0.6719E-01  0.3018E+00
     -2.430  0.6292E-01  0.3074E+00
     -2.342  0.5555E-01  0.3123E+00
     -2.254  0.5461E-01  0.3171E+00
     -2.166  0.8040E-01  0.3241E+00
     -2.078  0.1152E+00  0.3343E+00
     -1.990  0.1168E+00  0.3446E+00
     -1.902  0.9855E-01  0.3532E+00
     -1.814  0.1179E+00  0.3636E+00
     -1.726  0.1257E+00  0.3747E+00
     -1.638  0.8813E-01  0.3824E+00
     -1.550  0.1127E+00  0.3924E+00
     -1.462  0.9447E-01  0.4007E+00
     -1.374  0.5230E-01  0.4053E+00
     -1.286  0.3509E-01  0.4084E+00
     -1.198  0.8484E-02  0.4091E+00
     -1.110  0.2911E-01  0.4117E+00
     -1.022  0.4169E-01  0.4153E+00
     -0.934  0.2195E-01  0.4173E+00
     -0.846  0.5253E-01  0.4219E+00
     -0.758  0.9055E-01  0.4299E+00
     -0.670  0.9634E-01  0.4383E+00
     -0.582  0.8083E-01  0.4454E+00
     -0.494  0.9901E-01  0.4542E+00
     -0.406  0.7038E-01  0.4604E+00
     -0.318  0.1010E+00  0.4692E+00
     -0.230  0.1068E+00  0.4786E+00
     -0.142  0.6040E-01  0.4839E+00
     -0.054  0.8635E-01  0.4915E+00
      0.034  0.5722E-01  0.4966E+00
      0.122  0.6815E-01  0.5026E+00
      0.210  0.9051E-01  0.5105E+00
      0.298  0.1096E+00  0.5202E+00
      0.386  0.1089E+00  0.5298E+00
      0.474  0.8532E-01  0.5373E+00
      0.562  0.1084E+00  0.5468E+00
      0.650  0.1279E+00  0.5581E+00
      0.738  0.1082E+00  0.5676E+00
      0.826  0.1189E+00  0.5781E+00
      0.914  0.9287E-01  0.5862E+00
      1.002  0.1161E+00  0.5965E+00
      1.090  0.1633E+00  0.6108E+00
      1.178  0.1144E+00  0.6209E+00
      1.266  0.9711E-01  0.6294E+00
      1.354  0.1275E+00  0.6407E+00
      1.442  0.1164E+00  0.6509E+00
      1.530  0.1046E+00  0.6601E+00
      1.618  0.1264E+00  0.6712E+00
      1.706  0.1581E+00  0.6851E+00
      1.794  0.1680E+00  0.6999E+00
      1.882  0.1100E+00  0.7096E+00
      1.970  0.1182E+00  0.7200E+00
      2.058  0.9933E-01  0.7287E+00
      2.146  0.1292E+00  0.7401E+00
      2.234  0.1167E+00  0.7504E+00
      2.322  0.1130E+00  0.7603E+00
      2.410  0.1258E+00  0.7714E+00
      2.498  0.1184E+00  0.7818E+00
      2.586  0.1180E+00  0.7922E+00
      2.674  0.1238E+00  0.8031E+00
      2.762  0.1109E+00  0.8128E+00
      2.850  0.1141E+00  0.8229E+00
      2.938  0.1126E+00  0.8328E+00
      3.026  0.1076E+00  0.8423E+00
      3.114  0.9023E-01  0.8502E+00
      3.202  0.1051E+00  0.8594E+00
      3.290  0.8530E-01  0.8670E+00
      3.378  0.1024E+00  0.8760E+00
      3.466  0.1020E+00  0.8849E+00
      3.554  0.1062E+00  0.8943E+00
      3.642  0.1468E+00  0.9072E+00
      3.730  0.9412E-01  0.9155E+00
      3.818  0.6974E-01  0.9216E+00
      3.906  0.9368E-01  0.9299E+00
      3.994  0.1310E+00  0.9414E+00
      4.082  0.1293E+00  0.9528E+00
      4.170  0.1193E+00  0.9633E+00
      4.258  0.1335E+00  0.9750E+00
      4.346  0.8933E-01  0.9829E+00
      4.434  0.7980E-01  0.9899E+00
      4.522  0.1184E+00  0.1000E+01
      4.610  0.1530E+00  0.1014E+01
      4.698  0.2041E+00  0.1032E+01
      4.786  0.8751E-01  0.1039E+01
      4.874  0.7764E-01  0.1046E+01
      4.962  0.8515E-01  0.1054E+01
      5.050  0.7143E-01  0.1060E+01
      5.138  0.5270E-01  0.1065E+01
      5.226  0.1237E+00  0.1076E+01
      5.314  0.1704E+00  0.1091E+01
      5.402  0.1469E+00  0.1103E+01
      5.490  0.1644E+00  0.1118E+01
      5.578  0.1149E+00  0.1128E+01
      5.666  0.6535E-01  0.1134E+01
      5.754  0.4699E-01  0.1138E+01
      5.842  0.6897E-01  0.1144E+01
      5.930  0.7868E-01  0.1151E+01
      6.018  0.9215E-01  0.1159E+01
      6.106  0.1152E+00  0.1169E+01
      6.194  0.1258E+00  0.1180E+01
      6.282  0.9911E-01  0.1189E+01
      6.370  0.6649E-01  0.1195E+01
      6.458  0.3404E-01  0.1198E+01
      6.546  0.3578E-01  0.1201E+01
      6.634  0.1001E+00  0.1210E+01
      6.722  0.7958E-01  0.1217E+01
      6.810  0.9534E-02  0.1218E+01
      6.898 -0.1752E-02  0.1217E+01
      6.986  0.2586E-03  0.1217E+01
      7.074  0.5157E-04  0.1218E+01
      7.162 -0.9233E-05  0.1218E+01
      7.250 -0.1063E-03  0.1217E+01
      7.338  0.5265E-02  0.1218E+01
      7.426  0.2291E-01  0.1220E+01
      7.514  0.4513E-01  0.1224E+01
      7.602  0.7913E-01  0.1231E+01
      7.690  0.1767E+00  0.1246E+01
      7.778  0.1273E+00  0.1258E+01
      7.866  0.4544E-01  0.1262E+01
      7.954  0.1014E-01  0.1263E+01
      8.042 -0.5855E-03  0.1262E+01
      8.130  0.5530E-04  0.1262E+01
      8.218  0.3682E-04  0.1262E+01
      8.306  0.9815E-06  0.1262E+01
      8.394  0.4262E-08  0.1262E+01
      8.482  0.3603E-11  0.1263E+01
      8.570  0.4278E-09  0.1263E+01
      8.658  0.2885E-06  0.1263E+01
      8.746  0.3096E-04  0.1263E+01
      8.834  0.2247E-03  0.1263E+01
      8.922 -0.2672E-02  0.1262E+01
      9.010  0.1719E-01  0.1264E+01
      9.098  0.4145E-01  0.1267E+01
      9.186  0.1232E-02  0.1268E+01
      9.274 -0.8306E-03  0.1267E+01
      9.362  0.4244E-03  0.1268E+01
      9.450  0.1452E-02  0.1268E+01
      9.538  0.6881E-02  0.1268E+01
      9.626  0.1391E-01  0.1269E+01
      9.714  0.1359E-01  0.1271E+01
      9.802  0.2225E-01  0.1273E+01
      9.890  0.3124E-01  0.1275E+01
      9.978  0.6204E-01  0.1281E+01
     10.066  0.1185E+00  0.1291E+01
     10.154  0.1621E+00  0.1306E+01
     10.242  0.1570E+00  0.1319E+01
     10.330  0.9400E-01  0.1328E+01
     10.417  0.9165E-01  0.1336E+01
     10.505  0.1024E+00  0.1345E+01
     10.593  0.8127E-01  0.1352E+01
     10.681  0.4916E-01  0.1356E+01
     10.769  0.6070E-01  0.1362E+01
     10.857  0.4809E-01  0.1366E+01
     10.945  0.7160E-01  0.1372E+01
     11.033  0.7550E-01  0.1379E+01
     11.121  0.1316E+00  0.1390E+01
     11.209  0.1176E+00  0.1401E+01
     11.297  0.7272E-01  0.1407E+01
     11.385  0.1095E+00  0.1417E+01
     11.473  0.1134E+00  0.1427E+01
     11.561  0.1019E+00  0.1436E+01
     11.649  0.9102E-01  0.1444E+01
     11.737  0.9768E-01  0.1452E+01
     11.825  0.1336E+00  0.1464E+01
     11.913  0.1405E+00  0.1476E+01
     12.001  0.1248E+00  0.1487E+01
     12.089  0.1360E+00  0.1499E+01
     12.177  0.1718E+00  0.1514E+01
     12.265  0.1851E+00  0.1531E+01
     12.353  0.1832E+00  0.1547E+01
     12.441  0.1619E+00  0.1561E+01
     12.529  0.1821E+00  0.1577E+01
     12.617  0.1388E+00  0.1589E+01
     12.705  0.7916E-01  0.1596E+01
     12.793  0.3515E-01  0.1599E+01
     12.881  0.5370E-02  0.1600E+01
     12.969  0.1871E-02  0.1600E+01
     13.057  0.3991E-04  0.1600E+01
     13.145 -0.8799E-05  0.1600E+01
     13.233  0.7646E-05  0.1600E+01
     13.321  0.2055E-06  0.1600E+01
     13.409  0.7673E-09  0.1600E+01
     13.497  0.5043E-12  0.1600E+01
     13.585  0.6273E-16  0.1600E+01
     13.673  0.0000E+00  0.1600E+01
     13.761  0.0000E+00  0.1600E+01
     13.849  0.0000E+00  0.1600E+01
     13.937  0.0000E+00  0.1600E+01
     14.025  0.0000E+00  0.1600E+01
     14.113  0.0000E+00  0.1600E+01
