   28   28  100    1
  0.1235656E+02  0.8543033E-09  0.8543033E-09  0.5473948E-09  0.5000000E-15
  1.000000000000000E-004
  CAR 
 unknown system                          
    124     44     80
 
  0.3742002E-15  0.3742002E-15  0.3742002E-15  0.3472222E-02
    1      -11.085717   1.000000
    2      -10.410354   1.000000
    3      -10.410354   1.000000
    4       -9.577754   1.000000
    5       -9.577754   1.000000
    6       -8.886583   1.000000
    7       -8.503542   1.000000
    8       -8.469281   1.000000
    9       -8.469281   1.000000
   10       -8.424273   1.000000
   11       -8.355333   1.000000
   12       -8.355333   1.000000
   13       -4.010038   1.000000
   14       -3.075456   1.000000
   15       -3.075456   1.000000
   16       -2.761963   1.000000
   17       -2.089608   1.000000
   18       -1.852185   1.000000
   19       -1.852185   1.000000
   20       -1.318832   1.000000
   21       -0.922946   1.000000
   22       -0.922945   1.000000
   23       -0.621150   1.000000
   24       -0.259431   1.000000
   25       -0.259431   1.000000
   26        0.078557   1.000000
   27        0.128546   1.000000
   28        0.758541   1.000000
   29        0.859082   1.000000
   30        0.859082   1.000000
   31        1.136048   1.000000
   32        1.634010   1.000000
   33        1.634011   1.000000
   34        1.662483   1.000000
   35        1.860755   1.000000
   36        1.860755   1.000000
   37        2.211693   1.000000
   38        2.266482   1.000000
   39        2.266482   1.000000
   40        2.586251   1.000000
   41        2.586251   1.000000
   42        3.348448   1.000000
   43        3.348448   1.000000
   44        3.352907   1.000000
   45        3.470076   1.000000
   46        3.470076   1.000000
   47        3.995392   1.000000
   48        4.127896   1.000000
   49        4.361942   1.000000
   50        4.443156   1.000000
   51        4.443156   1.000000
   52        4.825291   1.000000
   53        4.994047   1.000000
   54        5.136045   1.000000
   55        5.136045   1.000000
   56        5.517298   1.000000
   57        5.517298   1.000000
   58        6.172497   1.000000
   59        6.172497   1.000000
   60        6.674742   1.000000
   61        6.674743   1.000000
   62        7.276358   0.999997
   63        7.914845   0.001582
   64        9.391493   0.000000
   65        9.391493   0.000000
   66       10.244488   0.000000
   67       10.244488   0.000000
   68       10.608405   0.000000
   69       10.649937   0.000000
   70       10.649937   0.000000
   71       11.428340   0.000000
   72       11.536426   0.000000
   73       11.745858   0.000000
   74       11.745858   0.000000
   75       12.009208   0.000000
   76       12.370197   0.000000
   77       12.505523   0.000000
   78       12.505960   0.000000
   79       12.661254   0.000000
   80       12.712120   0.000000
 
  0.1666667E+00  0.1271669E-14  0.3742002E-15  0.2083333E-01
    1      -11.054124   1.000000
    2      -10.475120   1.000000
    3      -10.434893   1.000000
    4       -9.545225   1.000000
    5       -9.508067   1.000000
    6       -8.856676   1.000000
    7       -8.629589   1.000000
    8       -8.487444   1.000000
    9       -8.455429   1.000000
   10       -8.415910   1.000000
   11       -8.354957   1.000000
   12       -8.319359   1.000000
   13       -3.927773   1.000000
   14       -3.084994   1.000000
   15       -2.994275   1.000000
   16       -2.710775   1.000000
   17       -2.161696   1.000000
   18       -1.924941   1.000000
   19       -1.854520   1.000000
   20       -1.552315   1.000000
   21       -1.155715   1.000000
   22       -0.854006   1.000000
   23       -0.642212   1.000000
   24       -0.293720   1.000000
   25       -0.090246   1.000000
   26        0.200513   1.000000
   27        0.304047   1.000000
   28        0.782743   1.000000
   29        0.794925   1.000000
   30        0.812718   1.000000
   31        1.182279   1.000000
   32        1.481676   1.000000
   33        1.650410   1.000000
   34        1.701431   1.000000
   35        1.872627   1.000000
   36        1.902079   1.000000
   37        2.214155   1.000000
   38        2.260323   1.000000
   39        2.444939   1.000000
   40        2.618819   1.000000
   41        2.642555   1.000000
   42        3.214173   1.000000
   43        3.272648   1.000000
   44        3.351248   1.000000
   45        3.514741   1.000000
   46        3.571060   1.000000
   47        3.964650   1.000000
   48        3.995479   1.000000
   49        4.138725   1.000000
   50        4.511379   1.000000
   51        4.681279   1.000000
   52        4.836982   1.000000
   53        4.971692   1.000000
   54        5.170075   1.000000
   55        5.241599   1.000000
   56        5.439857   1.000000
   57        5.510702   1.000000
   58        6.062216   1.000000
   59        6.106834   1.000000
   60        6.560265   1.000000
   61        6.664254   1.000000
   62        7.313262   0.999968
   63        7.848348   0.004576
   64        9.509016   0.000000
   65        9.575975   0.000000
   66       10.173886   0.000000
   67       10.215970   0.000000
   68       10.664193   0.000000
   69       10.778168   0.000000
   70       10.823206   0.000000
   71       11.195726   0.000000
   72       11.549918   0.000000
   73       11.620961   0.000000
   74       11.903126   0.000000
   75       12.112023   0.000000
   76       12.245033   0.000000
   77       12.429265   0.000000
   78       12.506669   0.000000
   79       12.574511   0.000000
   80       12.696765   0.000000
 
  0.3333333E+00  0.3825410E-15  0.3742002E-15  0.2083333E-01
    1      -10.965344   1.000000
    2      -10.622130   1.000000
    3      -10.477056   1.000000
    4       -9.494230   1.000000
    5       -9.327117   1.000000
    6       -8.844700   1.000000
    7       -8.775195   1.000000
    8       -8.543898   1.000000
    9       -8.460469   1.000000
   10       -8.401269   1.000000
   11       -8.353487   1.000000
   12       -8.292826   1.000000
   13       -3.693927   1.000000
   14       -3.117057   1.000000
   15       -2.822535   1.000000
   16       -2.645438   1.000000
   17       -2.345714   1.000000
   18       -2.035923   1.000000
   19       -1.903465   1.000000
   20       -1.803737   1.000000
   21       -1.515324   1.000000
   22       -0.725969   1.000000
   23       -0.680491   1.000000
   24       -0.448891   1.000000
   25        0.082080   1.000000
   26        0.429325   1.000000
   27        0.520143   1.000000
   28        0.642223   1.000000
   29        0.885815   1.000000
   30        0.945530   1.000000
   31        1.313836   1.000000
   32        1.370384   1.000000
   33        1.595336   1.000000
   34        1.649413   1.000000
   35        1.798959   1.000000
   36        1.978152   1.000000
   37        2.191493   1.000000
   38        2.287341   1.000000
   39        2.610330   1.000000
   40        2.698932   1.000000
   41        2.768328   1.000000
   42        3.095791   1.000000
   43        3.143118   1.000000
   44        3.358227   1.000000
   45        3.524941   1.000000
   46        3.739024   1.000000
   47        3.911528   1.000000
   48        4.047345   1.000000
   49        4.123761   1.000000
   50        4.514193   1.000000
   51        4.649299   1.000000
   52        4.872185   1.000000
   53        4.881723   1.000000
   54        5.114827   1.000000
   55        5.293351   1.000000
   56        5.429035   1.000000
   57        5.528139   1.000000
   58        5.860551   1.000000
   59        6.014351   1.000000
   60        6.352076   1.000000
   61        6.708453   1.000000
   62        7.404544   0.998036
   63        7.714938   0.018573
   64        9.746878   0.000000
   65        9.981296   0.000000
   66       10.048696   0.000000
   67       10.235659   0.000000
   68       10.637984   0.000000
   69       10.984348   0.000000
   70       11.048906   0.000000
   71       11.165415   0.000000
   72       11.354812   0.000000
   73       11.650476   0.000000
   74       11.969507   0.000000
   75       12.079298   0.000000
   76       12.206025   0.000000
   77       12.244108   0.000000
   78       12.389890   0.000000
   79       12.473659   0.000000
   80       12.570715   0.000000
 
  0.5000000E+00  0.3639454E-15  0.3742002E-15  0.1041667E-01
    1      -10.874811   1.000000
    2      -10.738846   1.000000
    3      -10.495729   1.000000
    4       -9.473868   1.000000
    5       -9.093502   1.000000
    6       -9.087276   1.000000
    7       -8.700080   1.000000
    8       -8.606063   1.000000
    9       -8.463142   1.000000
   10       -8.394137   1.000000
   11       -8.352245   1.000000
   12       -8.289096   1.000000
   13       -3.456189   1.000000
   14       -3.217684   1.000000
   15       -2.845247   1.000000
   16       -2.604419   1.000000
   17       -2.266987   1.000000
   18       -2.160790   1.000000
   19       -2.017375   1.000000
   20       -1.822104   1.000000
   21       -1.684435   1.000000
   22       -0.716288   1.000000
   23       -0.635395   1.000000
   24       -0.549316   1.000000
   25        0.203353   1.000000
   26        0.366317   1.000000
   27        0.556115   1.000000
   28        0.705946   1.000000
   29        1.003780   1.000000
   30        1.054230   1.000000
   31        1.215424   1.000000
   32        1.460567   1.000000
   33        1.587675   1.000000
   34        1.663814   1.000000
   35        1.724491   1.000000
   36        2.029846   1.000000
   37        2.048609   1.000000
   38        2.311684   1.000000
   39        2.579652   1.000000
   40        2.748675   1.000000
   41        2.885342   1.000000
   42        3.052907   1.000000
   43        3.149992   1.000000
   44        3.272696   1.000000
   45        3.537409   1.000000
   46        3.869708   1.000000
   47        3.937736   1.000000
   48        4.158611   1.000000
   49        4.262359   1.000000
   50        4.472026   1.000000
   51        4.487517   1.000000
   52        4.786968   1.000000
   53        4.917885   1.000000
   54        5.012532   1.000000
   55        5.269958   1.000000
   56        5.433633   1.000000
   57        5.442850   1.000000
   58        5.775430   1.000000
   59        6.152512   1.000000
   60        6.186073   1.000000
   61        6.751245   1.000000
   62        7.483227   0.998957
   63        7.621754   0.833953
   64        9.918545   0.000000
   65        9.937299   0.000000
   66       10.197039   0.000000
   67       10.390789   0.000000
   68       10.460366   0.000000
   69       11.041329   0.000000
   70       11.114485   0.000000
   71       11.116359   0.000000
   72       11.478038   0.000000
   73       11.638536   0.000000
   74       11.917380   0.000000
   75       11.994969   0.000000
   76       12.179502   0.000000
   77       12.198916   0.000000
   78       12.230630   0.000000
   79       12.432238   0.000000
   80       12.444806   0.000000
 
  0.1666667E+00  0.1666667E+00  0.3742002E-15  0.2083333E-01
    1      -10.993526   1.000000
    2      -10.568545   1.000000
    3      -10.481172   1.000000
    4       -9.471843   1.000000
    5       -9.415403   1.000000
    6       -8.799671   1.000000
    7       -8.784906   1.000000
    8       -8.510976   1.000000
    9       -8.469906   1.000000
   10       -8.404746   1.000000
   11       -8.352545   1.000000
   12       -8.299141   1.000000
   13       -3.767481   1.000000
   14       -3.079475   1.000000
   15       -2.891093   1.000000
   16       -2.656782   1.000000
   17       -2.266748   1.000000
   18       -2.080473   1.000000
   19       -1.850323   1.000000
   20       -1.776402   1.000000
   21       -1.367703   1.000000
   22       -0.833788   1.000000
   23       -0.656773   1.000000
   24       -0.376994   1.000000
   25        0.015241   1.000000
   26        0.420354   1.000000
   27        0.483851   1.000000
   28        0.676947   1.000000
   29        0.816330   1.000000
   30        0.907481   1.000000
   31        1.299521   1.000000
   32        1.384131   1.000000
   33        1.586992   1.000000
   34        1.757911   1.000000
   35        1.766831   1.000000
   36        1.944337   1.000000
   37        2.213360   1.000000
   38        2.292643   1.000000
   39        2.600975   1.000000
   40        2.665857   1.000000
   41        2.676613   1.000000
   42        3.130807   1.000000
   43        3.172110   1.000000
   44        3.374683   1.000000
   45        3.574815   1.000000
   46        3.630708   1.000000
   47        3.902553   1.000000
   48        4.028396   1.000000
   49        4.121128   1.000000
   50        4.610420   1.000000
   51        4.628601   1.000000
   52        4.848208   1.000000
   53        4.915236   1.000000
   54        5.185826   1.000000
   55        5.276489   1.000000
   56        5.353134   1.000000
   57        5.546145   1.000000
   58        5.870024   1.000000
   59        6.051870   1.000000
   60        6.434611   1.000000
   61        6.679368   1.000000
   62        7.376113   0.999294
   63        7.751286  -0.051596
   64        9.705141   0.000000
   65        9.846431   0.000000
   66       10.102668   0.000000
   67       10.168661   0.000000
   68       10.772796   0.000000
   69       10.837329   0.000000
   70       11.064964   0.000000
   71       11.110435   0.000000
   72       11.410805   0.000000
   73       11.744668   0.000000
   74       11.934293   0.000000
   75       12.019175   0.000000
   76       12.213197   0.000000
   77       12.249906   0.000000
   78       12.325163   0.000000
   79       12.580892   0.000000
   80       12.584330   0.000000
 
  0.3333333E+00  0.1666667E+00  0.3742002E-15  0.4166667E-01
    1      -10.888085   1.000000
    2      -10.702192   1.000000
    3      -10.525878   1.000000
    4       -9.409349   1.000000
    5       -9.238663   1.000000
    6       -9.006889   1.000000
    7       -8.709287   1.000000
    8       -8.564469   1.000000
    9       -8.484863   1.000000
   10       -8.394081   1.000000
   11       -8.345936   1.000000
   12       -8.298848   1.000000
   13       -3.487891   1.000000
   14       -3.104359   1.000000
   15       -2.873801   1.000000
   16       -2.715834   1.000000
   17       -2.288805   1.000000
   18       -2.131135   1.000000
   19       -1.963344   1.000000
   20       -1.833771   1.000000
   21       -1.637664   1.000000
   22       -0.762699   1.000000
   23       -0.659926   1.000000
   24       -0.535990   1.000000
   25        0.154239   1.000000
   26        0.449952   1.000000
   27        0.553774   1.000000
   28        0.688497   1.000000
   29        1.013231   1.000000
   30        1.051915   1.000000
   31        1.290655   1.000000
   32        1.452080   1.000000
   33        1.516036   1.000000
   34        1.686615   1.000000
   35        1.775520   1.000000
   36        1.938748   1.000000
   37        2.083609   1.000000
   38        2.380848   1.000000
   39        2.591247   1.000000
   40        2.650674   1.000000
   41        2.792561   1.000000
   42        3.026444   1.000000
   43        3.063678   1.000000
   44        3.424127   1.000000
   45        3.566903   1.000000
   46        3.861867   1.000000
   47        4.005475   1.000000
   48        4.159522   1.000000
   49        4.199147   1.000000
   50        4.507855   1.000000
   51        4.634883   1.000000
   52        4.805483   1.000000
   53        4.890595   1.000000
   54        5.044531   1.000000
   55        5.261130   1.000000
   56        5.277864   1.000000
   57        5.410934   1.000000
   58        5.636231   1.000000
   59        6.197926   1.000000
   60        6.347848   1.000000
   61        6.713197   1.000000
   62        7.470387   0.996076
   63        7.633475   0.732340
   64        9.908537   0.000000
   65        9.970703   0.000000
   66       10.146801   0.000000
   67       10.319406   0.000000
   68       10.577887   0.000000
   69       10.880733   0.000000
   70       11.175078   0.000000
   71       11.296056   0.000000
   72       11.399543   0.000000
   73       11.714307   0.000000
   74       11.819089   0.000000
   75       11.960692   0.000000
   76       12.072517   0.000000
   77       12.245226   0.000000
   78       12.307624   0.000000
   79       12.459264   0.000000
   80       12.502440   0.000000
 
  0.3333333E+00  0.3333333E+00  0.3742002E-15  0.6944444E-02
    1      -10.788008   1.000000
    2      -10.788008   1.000000
    3      -10.568426   1.000000
    4       -9.270552   1.000000
    5       -9.189395   1.000000
    6       -9.189395   1.000000
    7       -8.663196   1.000000
    8       -8.539309   1.000000
    9       -8.539309   1.000000
   10       -8.390931   1.000000
   11       -8.323477   1.000000
   12       -8.323477   1.000000
   13       -3.296292   1.000000
   14       -2.977931   1.000000
   15       -2.972606   1.000000
   16       -2.972606   1.000000
   17       -2.179318   1.000000
   18       -2.179318   1.000000
   19       -1.844643   1.000000
   20       -1.844643   1.000000
   21       -1.832381   1.000000
   22       -0.750912   1.000000
   23       -0.638114   1.000000
   24       -0.638114   1.000000
   25        0.183347   1.000000
   26        0.498767   1.000000
   27        0.498767   1.000000
   28        0.749789   1.000000
   29        1.127033   1.000000
   30        1.127033   1.000000
   31        1.379530   1.000000
   32        1.379530   1.000000
   33        1.406987   1.000000
   34        1.831067   1.000000
   35        1.868352   1.000000
   36        1.868352   1.000000
   37        1.889047   1.000000
   38        2.501397   1.000000
   39        2.501397   1.000000
   40        2.589592   1.000000
   41        2.903043   1.000000
   42        2.903043   1.000000
   43        2.927923   1.000000
   44        3.555178   1.000000
   45        3.555178   1.000000
   46        3.976231   1.000000
   47        4.088802   1.000000
   48        4.238952   1.000000
   49        4.238952   1.000000
   50        4.526719   1.000000
   51        4.751311   1.000000
   52        4.751311   1.000000
   53        5.007395   1.000000
   54        5.007395   1.000000
   55        5.020111   1.000000
   56        5.234444   1.000000
   57        5.234444   1.000000
   58        5.457985   1.000000
   59        6.382236   1.000000
   60        6.382236   1.000000
   61        6.671831   1.000000
   62        7.549233   1.047940
   63        7.549233   1.047940
   64        9.981173   0.000000
   65        9.981173   0.000000
   66       10.264977   0.000000
   67       10.264977   0.000000
   68       10.559298   0.000000
   69       10.978064   0.000000
   70       10.978064   0.000000
   71       11.448162   0.000000
   72       11.470840   0.000000
   73       11.777027   0.000000
   74       11.777027   0.000000
   75       11.815631   0.000000
   76       11.927345   0.000000
   77       12.323398   0.000000
   78       12.323444   0.000000
   79       12.533535   0.000000
   80       12.534485   0.000000
 
  0.3742002E-15  0.3742002E-15  0.1250000E+00  0.6944444E-02
    1      -11.035244   1.000000
    2      -10.364224   1.000000
    3      -10.364224   1.000000
    4       -9.554985   1.000000
    5       -9.554985   1.000000
    6       -9.110437   1.000000
    7       -8.574860   1.000000
    8       -8.574860   1.000000
    9       -8.478868   1.000000
   10       -8.387652   1.000000
   11       -8.387652   1.000000
   12       -8.299474   1.000000
   13       -3.956253   1.000000
   14       -2.924643   1.000000
   15       -2.924643   1.000000
   16       -2.804965   1.000000
   17       -2.008241   1.000000
   18       -1.796858   1.000000
   19       -1.796857   1.000000
   20       -1.384192   1.000000
   21       -0.890392   1.000000
   22       -0.890392   1.000000
   23       -0.539758   1.000000
   24       -0.289389   1.000000
   25       -0.289389   1.000000
   26       -0.154988   1.000000
   27        0.139923   1.000000
   28        0.870751   1.000000
   29        0.870751   1.000000
   30        1.064264   1.000000
   31        1.101490   1.000000
   32        1.574727   1.000000
   33        1.574727   1.000000
   34        1.633162   1.000000
   35        1.838889   1.000000
   36        1.838889   1.000000
   37        2.217708   1.000000
   38        2.217708   1.000000
   39        2.246303   1.000000
   40        2.500399   1.000000
   41        2.500399   1.000000
   42        3.267682   1.000000
   43        3.336152   1.000000
   44        3.336152   1.000000
   45        3.492451   1.000000
   46        3.492451   1.000000
   47        3.949294   1.000000
   48        3.959688   1.000000
   49        4.363046   1.000000
   50        4.363046   1.000000
   51        4.503058   1.000000
   52        4.672926   1.000000
   53        5.110653   1.000000
   54        5.110653   1.000000
   55        5.158678   1.000000
   56        5.576483   1.000000
   57        5.576483   1.000000
   58        6.175675   1.000000
   59        6.175675   1.000000
   60        6.633273   1.000000
   61        6.633273   1.000000
   62        7.351474   0.999763
   63        7.821341  -0.002078
   64        9.495582   0.000000
   65        9.495582   0.000000
   66       10.287090   0.000000
   67       10.287090   0.000000
   68       10.617067   0.000000
   69       10.817671   0.000000
   70       10.817671   0.000000
   71       11.452753   0.000000
   72       11.698346   0.000000
   73       11.698347   0.000000
   74       11.728087   0.000000
   75       12.116521   0.000000
   76       12.234343   0.000000
   77       12.311690   0.000000
   78       12.311696   0.000000
   79       12.614248   0.000000
   80       12.614809   0.000000
 
  0.1666667E+00  0.1271669E-14  0.1250000E+00  0.4166667E-01
    1      -11.003970   1.000000
    2      -10.429199   1.000000
    3      -10.388328   1.000000
    4       -9.524124   1.000000
    5       -9.487309   1.000000
    6       -9.076228   1.000000
    7       -8.648178   1.000000
    8       -8.602401   1.000000
    9       -8.541963   1.000000
   10       -8.390644   1.000000
   11       -8.317077   1.000000
   12       -8.287027   1.000000
   13       -3.871605   1.000000
   14       -2.953269   1.000000
   15       -2.850974   1.000000
   16       -2.739000   1.000000
   17       -2.074936   1.000000
   18       -1.888934   1.000000
   19       -1.799271   1.000000
   20       -1.559472   1.000000
   21       -1.123468   1.000000
   22       -0.846142   1.000000
   23       -0.547675   1.000000
   24       -0.292800   1.000000
   25       -0.175367   1.000000
   26        0.000075   1.000000
   27        0.280312   1.000000
   28        0.773526   1.000000
   29        0.817380   1.000000
   30        1.090896   1.000000
   31        1.143467   1.000000
   32        1.393980   1.000000
   33        1.608069   1.000000
   34        1.656412   1.000000
   35        1.810928   1.000000
   36        1.939076   1.000000
   37        2.187447   1.000000
   38        2.214617   1.000000
   39        2.428057   1.000000
   40        2.542089   1.000000
   41        2.583103   1.000000
   42        3.172359   1.000000
   43        3.249247   1.000000
   44        3.395763   1.000000
   45        3.495372   1.000000
   46        3.620081   1.000000
   47        3.828018   1.000000
   48        3.967512   1.000000
   49        4.301684   1.000000
   50        4.426989   1.000000
   51        4.606871   1.000000
   52        4.679494   1.000000
   53        5.036015   1.000000
   54        5.154508   1.000000
   55        5.250291   1.000000
   56        5.469098   1.000000
   57        5.553293   1.000000
   58        6.075848   1.000000
   59        6.106632   1.000000
   60        6.518027   1.000000
   61        6.629522   1.000000
   62        7.387637   0.998896
   63        7.786326  -0.028259
   64        9.599335   0.000000
   65        9.661831   0.000000
   66       10.241435   0.000000
   67       10.286397   0.000000
   68       10.706585   0.000000
   69       10.785152   0.000000
   70       10.946346   0.000000
   71       11.245576   0.000000
   72       11.586068   0.000000
   73       11.704143   0.000000
   74       11.889974   0.000000
   75       12.073741   0.000000
   76       12.135570   0.000000
   77       12.365601   0.000000
   78       12.391610   0.000000
   79       12.517055   0.000000
   80       12.687901   0.000000
 
  0.3333333E+00  0.3825410E-15  0.1250000E+00  0.4166667E-01
    1      -10.916237   1.000000
    2      -10.575635   1.000000
    3      -10.430031   1.000000
    4       -9.479664   1.000000
    5       -9.312462   1.000000
    6       -8.978552   1.000000
    7       -8.847090   1.000000
    8       -8.697272   1.000000
    9       -8.556771   1.000000
   10       -8.391990   1.000000
   11       -8.266134   1.000000
   12       -8.262386   1.000000
   13       -3.634368   1.000000
   14       -3.003955   1.000000
   15       -2.706960   1.000000
   16       -2.645640   1.000000
   17       -2.279312   1.000000
   18       -2.018462   1.000000
   19       -1.848507   1.000000
   20       -1.757640   1.000000
   21       -1.468359   1.000000
   22       -0.715199   1.000000
   23       -0.543875   1.000000
   24       -0.393318   1.000000
   25       -0.090106   1.000000
   26        0.287540   1.000000
   27        0.445407   1.000000
   28        0.589005   1.000000
   29        0.806646   1.000000
   30        1.058449   1.000000
   31        1.310516   1.000000
   32        1.352314   1.000000
   33        1.555315   1.000000
   34        1.649719   1.000000
   35        1.773913   1.000000
   36        1.986866   1.000000
   37        2.181741   1.000000
   38        2.242514   1.000000
   39        2.498786   1.000000
   40        2.683945   1.000000
   41        2.781300   1.000000
   42        3.057845   1.000000
   43        3.182540   1.000000
   44        3.367983   1.000000
   45        3.544805   1.000000
   46        3.745782   1.000000
   47        3.917455   1.000000
   48        4.053727   1.000000
   49        4.234617   1.000000
   50        4.526336   1.000000
   51        4.616996   1.000000
   52        4.719218   1.000000
   53        4.870633   1.000000
   54        5.019973   1.000000
   55        5.312025   1.000000
   56        5.424894   1.000000
   57        5.543192   1.000000
   58        5.865627   1.000000
   59        5.979458   1.000000
   60        6.297372   1.000000
   61        6.669197   1.000000
   62        7.475745   0.997004
   63        7.706234   0.061859
   64        9.815623   0.000000
   65       10.005496   0.000000
   66       10.117134   0.000000
   67       10.302884   0.000000
   68       10.699105   0.000000
   69       10.921575   0.000000
   70       11.043472   0.000000
   71       11.236651   0.000000
   72       11.350070   0.000000
   73       11.677995   0.000000
   74       11.924027   0.000000
   75       12.040010   0.000000
   76       12.176450   0.000000
   77       12.279099   0.000000
   78       12.354244   0.000000
   79       12.452835   0.000000
   80       12.524549   0.000000
 
  0.5000000E+00  0.3639454E-15  0.1250000E+00  0.2083333E-01
    1      -10.826910   1.000000
    2      -10.691165   1.000000
    3      -10.448409   1.000000
    4       -9.463537   1.000000
    5       -9.102958   1.000000
    6       -9.064154   1.000000
    7       -8.874404   1.000000
    8       -8.796620   1.000000
    9       -8.560076   1.000000
   10       -8.392177   1.000000
   11       -8.252154   1.000000
   12       -8.250342   1.000000
   13       -3.399617   1.000000
   14       -3.116279   1.000000
   15       -2.762561   1.000000
   16       -2.563079   1.000000
   17       -2.203298   1.000000
   18       -2.137997   1.000000
   19       -1.997051   1.000000
   20       -1.688352   1.000000
   21       -1.686758   1.000000
   22       -0.636860   1.000000
   23       -0.544424   1.000000
   24       -0.475682   1.000000
   25        0.048232   1.000000
   26        0.243948   1.000000
   27        0.486037   1.000000
   28        0.608139   1.000000
   29        0.767916   1.000000
   30        1.032631   1.000000
   31        1.344248   1.000000
   32        1.419486   1.000000
   33        1.629646   1.000000
   34        1.659900   1.000000
   35        1.734886   1.000000
   36        2.001592   1.000000
   37        2.100330   1.000000
   38        2.251859   1.000000
   39        2.469599   1.000000
   40        2.757765   1.000000
   41        2.897930   1.000000
   42        3.031280   1.000000
   43        3.166380   1.000000
   44        3.295593   1.000000
   45        3.584019   1.000000
   46        3.857048   1.000000
   47        4.004327   1.000000
   48        4.195547   1.000000
   49        4.229910   1.000000
   50        4.510411   1.000000
   51        4.679407   1.000000
   52        4.700254   1.000000
   53        4.774031   1.000000
   54        4.834537   1.000000
   55        5.268698   1.000000
   56        5.433781   1.000000
   57        5.467181   1.000000
   58        5.817840   1.000000
   59        6.018991   1.000000
   60        6.139144   1.000000
   61        6.704137   1.000000
   62        7.549096   1.047857
   63        7.641775   0.651589
   64        9.982011   0.000000
   65       10.002423   0.000000
   66       10.214412   0.000000
   67       10.257877   0.000000
   68       10.705739   0.000000
   69       10.937414   0.000000
   70       11.128032   0.000000
   71       11.139241   0.000000
   72       11.472503   0.000000
   73       11.567168   0.000000
   74       11.933314   0.000000
   75       11.973075   0.000000
   76       12.178872   0.000000
   77       12.184547   0.000000
   78       12.348636   0.000000
   79       12.412263   0.000000
   80       12.491029   0.000000
 
  0.1666667E+00  0.1666667E+00  0.1250000E+00  0.2083333E-01