 running on   16 total cores
 distrk:  each k-point on   16 cores,    1 groups
 distr:  one band on    4 cores,    4 groups
 using from now: INCAR     
 vasp.5.4.4.18Apr17-6-g9f103f2a35 (build Nov 01 2019 12:17:22) complex          
  
 POSCAR found type information on POSCAR  Si N 
 POSCAR found :  2 types and      28 ions
 WARNING: type information on POSCAR and POTCAR are incompatible
 POTCAR overwrites the type information in POSCAR
 typ   1 type information:  Si N 
 WARNING: type information on POSCAR and POTCAR are incompatible
 POTCAR overwrites the type information in POSCAR
 typ   2 type information:  N  Si
 LDA part: xc-table for Pade appr. of Perdew
 generate k-points for:    6    6    8
 POSCAR, INCAR and KPOINTS ok, starting setup
 FFT: planning ...
 WAVECAR not read
 entering main loop
       N       E                     dE             d eps       ncg     rms          rms(c)
DAV:   1     0.475409593557E+03    0.47541E+03   -0.49738E+04  7040   0.113E+03
DAV:   2    -0.174111521347E+03   -0.64952E+03   -0.62397E+03  8744   0.244E+02
DAV:   3    -0.225248517828E+03   -0.51137E+02   -0.50673E+02  8480   0.733E+01
DAV:   4    -0.226433452310E+03   -0.11849E+01   -0.11786E+01  8784   0.116E+01
DAV:   5    -0.226461736624E+03   -0.28284E-01   -0.28243E-01  8568   0.172E+00    0.364E+01
RMM:   6    -0.202284102869E+03    0.24178E+02   -0.11088E+02  7053   0.267E+01    0.163E+01
RMM:   7    -0.201797691310E+03    0.48641E+00   -0.45802E+00  7206   0.503E+00    0.897E+00
RMM:   8    -0.201626429857E+03    0.17126E+00   -0.11537E+00  7040   0.272E+00    0.162E+00
RMM:   9    -0.201591966090E+03    0.34464E-01   -0.77962E-02  7041   0.739E-01    0.752E-01
RMM:  10    -0.201585610753E+03    0.63553E-02   -0.11975E-01  7040   0.820E-01    0.498E-01
RMM:  11    -0.201583835127E+03    0.17756E-02   -0.98178E-03  7040   0.245E-01    0.205E-01
RMM:  12    -0.201583482573E+03    0.35255E-03   -0.44647E-03  7040   0.172E-01    0.101E-01
RMM:  13    -0.201583288589E+03    0.19398E-03   -0.48450E-04  5468   0.565E-02    0.289E-02
RMM:  14    -0.201583271870E+03    0.16720E-04   -0.48902E-05  4259   0.216E-02
   1 F= -.20158327E+03 E0= -.20158113E+03  d E =-.201583E+03
 curvature:   0.00 expect dE= 0.000E+00 dE for cont linesearch  0.000E+00
 trial: gam= 0.00000 g(F)=  0.260E-02 g(S)=  0.000E+00 ort = 0.000E+00 (trialstep = 0.100E+01)
 search vector abs. value=  0.260E-02
 bond charge predicted
       N       E                     dE             d eps       ncg     rms          rms(c)
DAV:   1    -0.201582797447E+03    0.49114E-03   -0.39267E-01  8384   0.244E+00    0.188E-01
RMM:   2    -0.201583627150E+03   -0.82970E-03   -0.10723E-02  7040   0.323E-01    0.873E-02
RMM:   3    -0.201583459753E+03    0.16740E-03   -0.38270E-04  5146   0.613E-02    0.601E-02
RMM:   4    -0.201583374713E+03    0.85040E-04   -0.17355E-04  4176   0.394E-02
   2 F= -.20158337E+03 E0= -.20158121E+03  d E =-.102844E-03
 trial-energy change:   -0.000103  1 .order   -0.000210   -0.002599    0.002179
 step:   0.5439(harm=  0.5439)  dis= 0.00146  next Energy=  -201.583979 (dE=-0.707E-03)
 bond charge predicted
       N       E                     dE             d eps       ncg     rms          rms(c)
DAV:   1    -0.201583829360E+03   -0.36961E-03   -0.84961E-02  7656   0.114E+00    0.864E-02
RMM:   2    -0.201584007007E+03   -0.17765E-03   -0.24082E-03  7040   0.154E-01    0.397E-02
RMM:   3    -0.201583964327E+03    0.42680E-04   -0.70876E-05  3966   0.284E-02
   3 F= -.20158396E+03 E0= -.20158182E+03  d E =-.692457E-03
 curvature:  -0.27 expect dE=-0.103E-03 dE for cont linesearch -0.123E-04
 trial: gam= 0.00000 g(F)=  0.379E-03 g(S)=  0.000E+00 ort =-0.343E-03 (trialstep = 0.909E+00)
 search vector abs. value=  0.379E-03
 reached required accuracy - stopping structural energy minimisation
