 vasp.5.4.4.18Apr17-6-g9f103f2a35 (build Nov 01 2019 12:17:22) complex          
  
 executed on             LinuxIFC date 2023.05.19  18:21:55
 running on   16 total cores
 distrk:  each k-point on   16 cores,    1 groups
 distr:  one band on NCORES_PER_BAND=   4 cores,    4 groups


--------------------------------------------------------------------------------------------------------


 INCAR:
 POTCAR:    PAW_PBE N 08Apr2002                   
 POTCAR:    PAW_PBE Si 05Jan2001                  
 POTCAR:    PAW_PBE N 08Apr2002                   
   VRHFIN =N: s2p3                                                              
   LEXCH  = PE                                                                  
   EATOM  =   264.5486 eV,   19.4438 Ry                                         
                                                                                
   TITEL  = PAW_PBE N 08Apr2002                                                 
   LULTRA =        F    use ultrasoft PP ?                                      
   IUNSCR =        1    unscreen: 0-lin 1-nonlin 2-no                           
   RPACOR =    1.200    partial core radius                                     
   POMASS =   14.001; ZVAL   =    5.000    mass and valenz                      
   RCORE  =    1.500    outmost cutoff radius                                   
   RWIGS  =    1.400; RWIGS  =    0.741    wigner-seitz radius (au A)           
   ENMAX  =  400.000; ENMIN  =  300.000 eV                                      
   ICORE  =        2    local potential                                         
   LCOR   =        T    correct aug charges                                     
   LPAW   =        T    paw PP                                                  
   EAUG   =  627.112                                                            
   DEXC   =    0.000                                                            
   RMAX   =    1.529    core radius for proj-oper                               
   RAUG   =    1.300    factor for augmentation sphere                          
   RDEP   =    1.514    radius for radial grids                                 
   RDEPT  =    1.338    core radius for aug-charge                              
                                                                                
   Atomic configuration                                                         
    4 entries                                                                   
     n  l   j            E        occ.                                          
     1  0  0.50      -384.7179   2.0000                                         
     2  0  0.50       -18.5828   2.0000                                         
     2  1  0.50        -7.0898   3.0000                                         
     3  2  1.50        -6.8029   0.0000                                         
   Description                                                                  
     l       E           TYP  RCUT    TYP  RCUT                                 
     0    -18.5828119     23  1.200                                             
     0    -13.5018863     23  1.200                                             
     1     -7.0897853     23  1.500                                             
     1      9.5240782     23  1.500                                             
     2     -6.8029130      7  1.500                                             
  local pseudopotential read in
  partial core-charges read in
  partial kinetic energy density read in
  atomic valenz-charges read in
  non local Contribution for L=           0  read in
    real space projection operators read in
  non local Contribution for L=           0  read in
    real space projection operators read in
  non local Contribution for L=           1  read in
    real space projection operators read in
  non local Contribution for L=           1  read in
    real space projection operators read in
    PAW grid and wavefunctions read in
 
   number of l-projection  operators is LMAX  =           4
   number of lm-projection operators is LMMAX =           8
 
 POTCAR:    PAW_PBE Si 05Jan2001                  
   VRHFIN =Si: s2p2                                                             
   LEXCH  = PE                                                                  
   EATOM  =   103.0669 eV,    7.5752 Ry                                         
                                                                                
   TITEL  = PAW_PBE Si 05Jan2001                                                
   LULTRA =        F    use ultrasoft PP ?                                      
   IUNSCR =        1    unscreen: 0-lin 1-nonlin 2-no                           
   RPACOR =    1.500    partial core radius                                     
   POMASS =   28.085; ZVAL   =    4.000    mass and valenz                      
   RCORE  =    1.900    outmost cutoff radius                                   
   RWIGS  =    2.480; RWIGS  =    1.312    wigner-seitz radius (au A)           
   ENMAX  =  245.345; ENMIN  =  184.009 eV                                      
   ICORE  =        2    local potential                                         
   LCOR   =        T    correct aug charges                                     
   LPAW   =        T    paw PP                                                  
   EAUG   =  322.069                                                            
   DEXC   =    0.000                                                            
   RMAX   =    1.950    core radius for proj-oper                               
   RAUG   =    1.300    factor for augmentation sphere                          
   RDEP   =    1.993    radius for radial grids                                 
   RDEPT  =    1.837    core radius for aug-charge                              
                                                                                
   Atomic configuration                                                         
    6 entries                                                                   
     n  l   j            E        occ.                                          
     1  0  0.50     -1785.8828   2.0000                                         
     2  0  0.50      -139.4969   2.0000                                         
     2  1  1.50       -95.5546   6.0000                                         
     3  0  0.50       -10.8127   2.0000                                         
     3  1  0.50        -4.0811   2.0000                                         
     3  2  1.50        -4.0817   0.0000                                         
   Description                                                                  
     l       E           TYP  RCUT    TYP  RCUT                                 
     0    -10.8127223     23  1.900                                             
     0     -7.6451159     23  1.900                                             
     1     -4.0811372     23  1.900                                             
     1      2.4879257     23  1.900                                             
     2     -4.0817478      7  1.900                                             
  local pseudopotential read in
  partial core-charges read in
  partial kinetic energy density read in
  atomic valenz-charges read in
  non local Contribution for L=           0  read in
    real space projection operators read in
  non local Contribution for L=           0  read in
    real space projection operators read in
  non local Contribution for L=           1  read in
    real space projection operators read in
  non local Contribution for L=           1  read in
    real space projection operators read in
    PAW grid and wavefunctions read in
 
   number of l-projection  operators is LMAX  =           4
   number of lm-projection operators is LMMAX =           8
 
 Optimization of the real space projectors (new method)

 maximal supplied QI-value         = 25.13
 optimisation between [QCUT,QGAM] = [ 10.05, 20.36] = [ 28.30,116.06] Ry 
 Optimized for a Real-space Cutoff    1.70 Angstroem

   l    n(q)    QCUT    max X(q) W(low)/X(q) W(high)/X(q)  e(spline) 
   0     10    10.053    79.467    0.61E-04    0.98E-04    0.61E-06
   0     10    10.053    66.151    0.60E-04    0.98E-04    0.61E-06
   1     10    10.053     8.350    0.17E-03    0.71E-03    0.45E-05
   1     10    10.053     5.531    0.18E-03    0.77E-03    0.49E-05
 Optimization of the real space projectors (new method)

 maximal supplied QI-value         = 19.84
 optimisation between [QCUT,QGAM] = [ 10.12, 20.44] = [ 28.68,116.96] Ry 
 Optimized for a Real-space Cutoff    1.38 Angstroem

   l    n(q)    QCUT    max X(q) W(low)/X(q) W(high)/X(q)  e(spline) 
   0      8    10.119   159.560    0.58E-04    0.11E-03    0.54E-07
   0      8    10.119   115.863    0.56E-04    0.11E-03    0.54E-07
   1      8    10.119    88.339    0.22E-03    0.17E-03    0.19E-06
   1      8    10.119    48.592    0.22E-03    0.17E-03    0.18E-06
  PAW_PBE N 08Apr2002                   :
 energy of atom  1       EATOM= -264.5486
 kinetic energy error for atom=    0.0736 (will be added to EATOM!!)
  PAW_PBE Si 05Jan2001                  :
 energy of atom  2       EATOM= -103.0669
 kinetic energy error for atom=    0.0012 (will be added to EATOM!!)
 
 
 POSCAR: Si12 N16                                
  positions in direct lattice
  No initial velocities read in
 exchange correlation table for  LEXCH =        8
   RHO(1)=    0.500       N(1)  =     2000
   RHO(2)=  100.500       N(2)  =     4000
 


--------------------------------------------------------------------------------------------------------


 ion  position               nearest neighbor table
   1  0.008  0.647  0.213-  14 1.73  23 1.75  25 1.77
   2  0.639  0.992  0.213-  16 1.73  22 1.75  28 1.77
   3  0.914  0.322  0.992-  22 1.74  25 1.76  18 1.77
   4  0.647  0.008  0.713-  22 1.73  16 1.75  26 1.77
   5  0.086  0.407  0.492-  13 1.74  18 1.76  25 1.77
   6  0.322  0.914  0.492-  14 1.74  26 1.76  28 1.77
   7  0.353  0.361  0.213-  13 1.73  15 1.75  21 1.77
   8  0.593  0.678  0.492-  16 1.74  27 1.76  21 1.77
   9  0.992  0.639  0.713-  23 1.73  14 1.75  18 1.77
  10  0.361  0.353  0.713-  15 1.73  13 1.75  27 1.77
  11  0.678  0.593  0.992-  23 1.74  21 1.76  27 1.77
  12  0.407  0.086  0.992-  15 1.74  28 1.76  26 1.77
  13  0.213  0.300  0.467-   7 1.73   5 1.74  10 1.75  19 2.29  21 2.92  18 3.00  15 3.03  15 3.03
                            27 3.04
  14  0.087  0.787  0.467-   1 1.73   6 1.74   9 1.75  19 2.29  25 2.92  26 3.00  23 3.03  23 3.03
                            18 3.04
  15  0.300  0.213  0.967-  10 1.73  12 1.74   7 1.75  17 2.29  27 2.92  28 3.00  13 3.03  13 3.03
                            21 3.04
  16  0.700  0.913  0.467-   2 1.73   8 1.74   4 1.75  19 2.29  28 2.92  27 3.00  22 3.03  22 3.03
                            26 3.04
  17  0.000  0.000  0.957-  22 2.29  23 2.29  15 2.29  19 2.74  19 2.74
  18  0.067  0.484  0.783-   5 1.76   3 1.77   9 1.77  24 2.28  25 2.91  25 2.91  23 2.92  13 3.00
                            14 3.04
  19  0.000  0.000  0.457-  14 2.29  16 2.29  13 2.29  17 2.74  17 2.74
  20  0.667  0.333  0.476-  21 2.28  28 2.28  25 2.28
  21  0.582  0.516  0.283-  11 1.76   8 1.77   7 1.77  20 2.28  27 2.91  27 2.91  13 2.92  23 3.00
                            15 3.04
  22  0.787  0.087  0.967-   4 1.73   3 1.74   2 1.75  17 2.29  26 2.92  25 3.00  16 3.03  16 3.03
                            28 3.04
  23  0.913  0.700  0.967-   9 1.73  11 1.74   1 1.75  17 2.29  18 2.92  21 3.00  14 3.03  14 3.03
                            25 3.04
  24  0.333  0.667  0.976-  27 2.28  18 2.28  26 2.28
  25  0.933  0.418  0.283-   3 1.76   5 1.77   1 1.77  20 2.28  18 2.91  18 2.91  14 2.92  22 3.00
                            23 3.04
  26  0.418  0.933  0.783-   6 1.76  12 1.77   4 1.77  24 2.28  28 2.91  28 2.91  22 2.92  14 3.00
                            16 3.04
  27  0.516  0.582  0.783-   8 1.76  11 1.77  10 1.77  24 2.28  21 2.91  21 2.91  15 2.92  16 3.00
                            13 3.04
  28  0.484  0.067  0.283-  12 1.76   6 1.77   2 1.77  20 2.28  26 2.91  26 2.91  16 2.92  15 3.00
                            22 3.04
 
  LATTYP: Found a hexagonal cell.
 ALAT       =     8.5430331145
 C/A-ratio  =     0.6407499831
  
  Lattice vectors:
  
 A1 = (   4.2715165573,  -7.3984837026,   0.0000000000)
 A2 = (   4.2715165573,   7.3984837026,   0.0000000000)
 A3 = (   0.0000000000,   0.0000000000,   5.4739483240)


Analysis of symmetry for initial positions (statically):
=====================================================================
 Subroutine PRICEL returns:
 Original cell was already a primitive cell.
 

 Routine SETGRP: Setting up the symmetry group for a 
 hexagonal supercell.


 Subroutine GETGRP returns: Found  6 space group operations
 (whereof  3 operations were pure point group operations)
 out of a pool of 24 trial point group operations.


The static configuration has the point symmetry C_3 .
 The point group associated with its full space group is C_3v.


Analysis of symmetry for dynamics (positions and initial velocities):
=====================================================================
 Subroutine PRICEL returns:
 Original cell was already a primitive cell.
 

 Routine SETGRP: Setting up the symmetry group for a 
 hexagonal supercell.


 Subroutine GETGRP returns: Found  6 space group operations
 (whereof  3 operations were pure point group operations)
 out of a pool of 24 trial point group operations.


The dynamic configuration has the point symmetry C_3 .
 The point group associated with its full space group is C_3v.


 Subroutine INISYM returns: Found  6 space group operations
 (whereof  3 operations are pure point group operations),
 and found     1 'primitive' translations

 
 
 KPOINTS: Automatic mesh                          

Automatic generation of k-mesh.
 generate k-points for:    6    6    8
Space group operators:
 irot       det(A)        alpha          n_x          n_y          n_z        tau_x        tau_y        tau_z
    1     1.000000     0.000000     1.000000     0.000000     0.000000     0.000000     0.000000     0.000000
    2     1.000000   120.000000     0.000000     0.000000    -1.000000     0.000000     0.000000     0.000000
    3     1.000000   120.000000     0.000000     0.000000     1.000000     0.000000     0.000000     0.000000
    4    -1.000000   180.000000    -0.000000     1.000000     0.000000     0.000000     0.000000     0.500000
    5    -1.000000   180.000000     0.866025     0.500000     0.000000     0.000000     0.000000     0.500000
    6    -1.000000   180.000000     0.866025    -0.500000     0.000000     0.000000     0.000000     0.500000
 
 Subroutine IBZKPT returns following result:
 ===========================================
 
 Found     44 irreducible k-points:
 
 Following reciprocal coordinates:
            Coordinates               Weight
  0.000000  0.000000  0.000000      1.000000
  0.166667  0.000000  0.000000      6.000000
  0.333333  0.000000  0.000000      6.000000
  0.500000  0.000000  0.000000      3.000000
  0.166667  0.166667  0.000000      6.000000
  0.333333  0.166667  0.000000     12.000000
  0.333333  0.333333  0.000000      2.000000
  0.000000  0.000000  0.125000      2.000000
  0.166667  0.000000  0.125000     12.000000
  0.333333  0.000000  0.125000     12.000000
  0.500000  0.000000  0.125000      6.000000
  0.166667  0.166667  0.125000      6.000000
  0.333333  0.166667  0.125000     12.000000
  0.333333  0.333333  0.125000      2.000000
 -0.166667  0.333333  0.125000      6.000000
 -0.333333  0.500000  0.125000     12.000000
 -0.333333 -0.333333  0.125000      2.000000
  0.000000  0.000000  0.250000      2.000000
  0.166667  0.000000  0.250000     12.000000
  0.333333  0.000000  0.250000     12.000000
  0.500000  0.000000  0.250000      6.000000
  0.166667  0.166667  0.250000      6.000000
  0.333333  0.166667  0.250000     12.000000
  0.333333  0.333333  0.250000      2.000000
 -0.166667  0.333333  0.250000      6.000000
 -0.333333  0.500000  0.250000     12.000000
 -0.333333 -0.333333  0.250000      2.000000
  0.000000  0.000000  0.375000      2.000000
  0.166667  0.000000  0.375000     12.000000
  0.333333  0.000000  0.375000     12.000000
  0.500000  0.000000  0.375000      6.000000
  0.166667  0.166667  0.375000      6.000000
  0.333333  0.166667  0.375000     12.000000
  0.333333  0.333333  0.375000      2.000000
 -0.166667  0.333333  0.375000      6.000000
 -0.333333  0.500000  0.375000     12.000000
 -0.333333 -0.333333  0.375000      2.000000
  0.000000  0.000000  0.500000      1.000000
  0.166667  0.000000  0.500000      6.000000
  0.333333  0.000000  0.500000      6.000000
  0.500000  0.000000  0.500000      3.000000
  0.166667  0.166667  0.500000      6.000000
  0.333333  0.166667  0.500000     12.000000
  0.333333  0.333333  0.500000      2.000000
 
 Following cartesian coordinates:
            Coordinates               Weight
  0.000000 -0.000000  0.000000      1.000000
  0.019509 -0.011264  0.000000      6.000000
  0.039018 -0.022527  0.000000      6.000000
  0.058527 -0.033791  0.000000      3.000000
  0.039018  0.000000  0.000000      6.000000
  0.058527 -0.011264  0.000000     12.000000
  0.078036  0.000000  0.000000      2.000000
  0.000000 -0.000000  0.022835      2.000000
  0.019509 -0.011264  0.022835     12.000000
  0.039018 -0.022527  0.022835     12.000000
  0.058527 -0.033791  0.022835      6.000000
  0.039018  0.000000  0.022835      6.000000
  0.058527 -0.011264  0.022835     12.000000
  0.078036  0.000000  0.022835      2.000000
  0.019509  0.033791  0.022835      6.000000
  0.019509  0.056318  0.022835     12.000000
 -0.078036  0.000000  0.022835      2.000000
  0.000000 -0.000000  0.045671      2.000000
  0.019509 -0.011264  0.045671     12.000000
  0.039018 -0.022527  0.045671     12.000000
  0.058527 -0.033791  0.045671      6.000000
  0.039018  0.000000  0.045671      6.000000
  0.058527 -0.011264  0.045671     12.000000
  0.078036  0.000000  0.045671      2.000000
  0.019509  0.033791  0.045671      6.000000
  0.019509  0.056318  0.045671     12.000000
 -0.078036  0.000000  0.045671      2.000000
  0.000000 -0.000000  0.068506      2.000000
  0.019509 -0.011264  0.068506     12.000000
  0.039018 -0.022527  0.068506     12.000000
  0.058527 -0.033791  0.068506      6.000000
  0.039018  0.000000  0.068506      6.000000
  0.058527 -0.011264  0.068506     12.000000
  0.078036  0.000000  0.068506      2.000000
  0.019509  0.033791  0.068506      6.000000
  0.019509  0.056318  0.068506     12.000000
 -0.078036  0.000000  0.068506      2.000000
  0.000000 -0.000000  0.091342      1.000000
  0.019509 -0.011264  0.091342      6.000000
  0.039018 -0.022527  0.091342      6.000000
  0.058527 -0.033791  0.091342      3.000000
  0.039018  0.000000  0.091342      6.000000
  0.058527 -0.011264  0.091342     12.000000
  0.078036  0.000000  0.091342      2.000000
 


--------------------------------------------------------------------------------------------------------




 Dimension of arrays:
   k-points           NKPTS =     44   k-points in BZ     NKDIM =     44   number of bands    NBANDS=     80
   number of dos      NEDOS =    301   number of ions     NIONS =     28
   non local maximal  LDIM  =      4   non local SUM 2l+1 LMDIM =      8
   total plane-waves  NPLWV = 112896
   max r-space proj   IRMAX =   6740   max aug-charges    IRDMAX=  11108
   dimension x,y,z NGX =    56 NGY =   56 NGZ =   36
   dimension x,y,z NGXF=   112 NGYF=  112 NGZF=   72
   support grid    NGXF=   112 NGYF=  112 NGZF=   72
   ions per type =              12  16
   NGX,Y,Z   is equivalent  to a cutoff of  10.90, 10.90, 10.93 a.u.
   NGXF,Y,Z  is equivalent  to a cutoff of  21.80, 21.80, 21.87 a.u.

 SYSTEM =  unknown system                          
 POSCAR =  Si12 N16                                

 Startparameter for this run:
   NWRITE =      2    write-flag & timer
   PREC   = accura    normal or accurate (medium, high low for compatibility)
   ISTART =      0    job   : 0-new  1-cont  2-samecut
   ICHARG =      2    charge: 1-file 2-atom 10-const
   ISPIN  =      1    spin polarized calculation?
   LNONCOLLINEAR =      F non collinear calculations
   LSORBIT =      F    spin-orbit coupling
   INIWAV =      1    electr: 0-lowe 1-rand  2-diag
   LASPH  =      F    aspherical Exc in radial PAW
   METAGGA=      F    non-selfconsistent MetaGGA calc.

 Electronic Relaxation 1
   ENCUT  =  400.0 eV  29.40 Ry    5.42 a.u.  13.93 13.93  8.93*2*pi/ulx,y,z
   ENINI  =  400.0     initial cutoff
   ENAUG  =  627.1 eV  augmentation charge cutoff
   NELM   =     60;   NELMIN=  2; NELMDL= -5     # of ELM steps 
   EDIFF  = 0.1E-03   stopping-criterion for ELM
   LREAL  =      T    real-space projection
   NLSPLINE    = F    spline interpolate recip. space projectors
   LCOMPAT=      F    compatible to vasp.4.4
   GGA_COMPAT  = T    GGA compatible to vasp.4.4-vasp.4.6
   LMAXPAW     = -100 max onsite density
   LMAXMIX     =    2 max onsite mixed and CHGCAR
   VOSKOWN=      0    Vosko Wilk Nusair interpolation
   ROPT   =   -0.00025  -0.00025
 Ionic relaxation
   EDIFFG = 0.1E-02   stopping-criterion for IOM
   NSW    =    100    number of steps for IOM
   NBLOCK =      1;   KBLOCK =    100    inner block; outer block 
   IBRION =      2    ionic relax: 0-MD 1-quasi-New 2-CG
   NFREE  =      1    steps in history (QN), initial steepest desc. (CG)
   ISIF   =      2    stress and relaxation
   IWAVPR =     11    prediction:  0-non 1-charg 2-wave 3-comb
   ISYM   =      2    0-nonsym 1-usesym 2-fastsym
   LCORR  =      T    Harris-Foulkes like correction to forces

   POTIM  = 0.5000    time-step for ionic-motion
   TEIN   =    0.0    initial temperature
   TEBEG  =    0.0;   TEEND  =   0.0 temperature during run
   SMASS  =  -3.00    Nose mass-parameter (am)
   estimated Nose-frequenzy (Omega)   =  0.10E-29 period in steps =****** mass=  -0.167E-26a.u.
   SCALEE = 1.0000    scale energy and forces
   NPACO  =    256;   APACO  = 16.0  distance and # of slots for P.C.
   PSTRESS=    0.0 pullay stress

  Mass of Ions in am
   POMASS =  14.00 28.09
  Ionic Valenz
   ZVAL   =   5.00  4.00
  Atomic Wigner-Seitz radii
   RWIGS  =  -1.00 -1.00
  virtual crystal weights 
   VCA    =   1.00  1.00
   NELECT =     124.0000    total number of electrons
   NUPDOWN=      -1.0000    fix difference up-down

 DOS related values:
   EMIN   =  10.00;   EMAX   =-10.00  energy-range for DOS
   EFERMI =   0.00
   ISMEAR =     2;   SIGMA  =   0.10  broadening in eV -4-tet -1-fermi 0-gaus

 Electronic relaxation 2 (details)
   IALGO  =     68    algorithm
   LDIAG  =      T    sub-space diagonalisation (order eigenvalues)
   LSUBROT=      F    optimize rotation matrix (better conditioning)
   TURBO    =      0    0=normal 1=particle mesh
   IRESTART =      0    0=no restart 2=restart with 2 vectors
   NREBOOT  =      0    no. of reboots
   NMIN     =      0    reboot dimension
   EREF     =   0.00    reference energy to select bands
   IMIX   =      4    mixing-type and parameters
     AMIX     =   0.40;   BMIX     =  1.00
     AMIX_MAG =   1.60;   BMIX_MAG =  1.00
     AMIN     =   0.10
     WC   =   100.;   INIMIX=   1;  MIXPRE=   1;  MAXMIX= -45

 Intra band minimization:
   WEIMIN = 0.0010     energy-eigenvalue tresh-hold
   EBREAK =  0.31E-06  absolut break condition
   DEPER  =   0.30     relativ break condition  

   TIME   =   0.40     timestep for ELM

  volume/ion in A,a.u.               =      12.36        83.39
  Fermi-wavevector in a.u.,A,eV,Ry     =   1.162867  2.197501 18.398625  1.352261
  Thomas-Fermi vector in A             =   2.299424
 
 Write flags
   LWAVE        =      F    write WAVECAR
   LDOWNSAMPLE  =      F    k-point downsampling of WAVECAR
   LCHARG       =      F    write CHGCAR
   LVTOT        =      F    write LOCPOT, total local potential
   LVHAR        =      F    write LOCPOT, Hartree potential only
   LELF         =      F    write electronic localiz. function (ELF)
   LORBIT       =      0    0 simple, 1 ext, 2 COOP (PROOUT), +10 PAW based schemes


 Dipole corrections
   LMONO  =      F    monopole corrections only (constant potential shift)
   LDIPOL =      F    correct potential (dipole corrections)
   IDIPOL =      0    1-x, 2-y, 3-z, 4-all directions 
   EPSILON=  1.0000000 bulk dielectric constant

 Exchange correlation treatment:
   GGA     =    --    GGA type
   LEXCH   =     8    internal setting for exchange type
   VOSKOWN=      0    Vosko Wilk Nusair interpolation
   LHFCALC =     F    Hartree Fock is set to
   LHFONE  =     F    Hartree Fock one center treatment
   AEXX    =    0.0000 exact exchange contribution

 Linear response parameters
   LEPSILON=     F    determine dielectric tensor
   LRPA    =     F    only Hartree local field effects (RPA)
   LNABLA  =     F    use nabla operator in PAW spheres
   LVEL    =     F    velocity operator in full k-point grid
   LINTERFAST=   F  fast interpolation
   KINTER  =     0    interpolate to denser k-point grid
   CSHIFT  =0.1000    complex shift for real part using Kramers Kronig
   OMEGAMAX=  -1.0    maximum frequency
   DEG_THRESHOLD= 0.2000000E-02 threshold for treating states as degnerate
   RTIME   =   -0.100 relaxation time in fs
  (WPLASMAI=    0.000 imaginary part of plasma frequency in eV, 0.658/RTIME)
   DFIELD  = 0.0000000 0.0000000 0.0000000 field for delta impulse in time
 
 Orbital magnetization related:
   ORBITALMAG=     F  switch on orbital magnetization
   LCHIMAG   =     F  perturbation theory with respect to B field
   DQ        =  0.001000  dq finite difference perturbation B field
   LLRAUG    =     F  two centre corrections for induced B field



--------------------------------------------------------------------------------------------------------


 conjugate gradient relaxation of ions
 charge density and potential will be updated during run
 non-spin polarized calculation
 RMM-DIIS sequential band-by-band and
  variant of blocked Davidson during initial phase
 perform sub-space diagonalisation
    before iterative eigenvector-optimisation
 modified Broyden-mixing scheme, WC =      100.0
 initial mixing is a Kerker type mixing with AMIX =  0.4000 and BMIX =      1.0000
 Hartree-type preconditioning will be used
 using additional bands           18
 real space projection scheme for non local part
 use partial core corrections
 calculate Harris-corrections to forces 
   (improved forces if not selfconsistent)
 use gradient corrections 
 use of overlap-Matrix (Vanderbilt PP)
 Methfessel and Paxton  Order N= 2 SIGMA  =   0.10


--------------------------------------------------------------------------------------------------------


  energy-cutoff  :      400.00
  volume of cell :      345.98
      direct lattice vectors                 reciprocal lattice vectors
     4.271516557 -7.398483703  0.000000000     0.117054445 -0.067581415  0.000000000
     4.271516557  7.398483703  0.000000000     0.117054445  0.067581415  0.000000000
     0.000000000  0.000000000  5.473948324     0.000000000  0.000000000  0.182683493

  length of vectors
     8.543033115  8.543033115  5.473948324     0.135162831  0.135162831  0.182683493


 
 k-points in units of 2pi/SCALE and weight: Automatic mesh                          
   0.00000000 -0.00000000  0.00000000       0.003
   0.01950907 -0.01126357  0.00000000       0.021
   0.03901815 -0.02252714  0.00000000       0.021
   0.05852722 -0.03379071  0.00000000       0.010
   0.03901815 -0.00000000  0.00000000       0.021
   0.05852722 -0.01126357  0.00000000       0.042
   0.07803630  0.00000000  0.00000000       0.007
   0.00000000 -0.00000000  0.02283544       0.007
   0.01950907 -0.01126357  0.02283544       0.042
   0.03901815 -0.02252714  0.02283544       0.042
   0.05852722 -0.03379071  0.02283544       0.021
   0.03901815 -0.00000000  0.02283544       0.021
   0.05852722 -0.01126357  0.02283544       0.042
   0.07803630  0.00000000  0.02283544       0.007
   0.01950907  0.03379071  0.02283544       0.021
   0.01950907  0.05631785  0.02283544       0.042
  -0.07803630  0.00000000  0.02283544       0.007
   0.00000000 -0.00000000  0.04567087       0.007
   0.01950907 -0.01126357  0.04567087       0.042
   0.03901815 -0.02252714  0.04567087       0.042
   0.05852722 -0.03379071  0.04567087       0.021
   0.03901815 -0.00000000  0.04567087       0.021
   0.05852722 -0.01126357  0.04567087       0.042
   0.07803630  0.00000000  0.04567087       0.007
   0.01950907  0.03379071  0.04567087       0.021
   0.01950907  0.05631785  0.04567087       0.042
  -0.07803630  0.00000000  0.04567087       0.007
   0.00000000 -0.00000000  0.06850631       0.007
   0.01950907 -0.01126357  0.06850631       0.042
   0.03901815 -0.02252714  0.06850631       0.042
   0.05852722 -0.03379071  0.06850631       0.021
   0.03901815 -0.00000000  0.06850631       0.021
   0.05852722 -0.01126357  0.06850631       0.042
   0.07803630  0.00000000  0.06850631       0.007
   0.01950907  0.03379071  0.06850631       0.021
   0.01950907  0.05631785  0.06850631       0.042
  -0.07803630  0.00000000  0.06850631       0.007
   0.00000000 -0.00000000  0.09134175       0.003
   0.01950907 -0.01126357  0.09134175       0.021
   0.03901815 -0.02252714  0.09134175       0.021
   0.05852722 -0.03379071  0.09134175       0.010
   0.03901815 -0.00000000  0.09134175       0.021
   0.05852722 -0.01126357  0.09134175       0.042
   0.07803630  0.00000000  0.09134175       0.007
 
 k-points in reciprocal lattice and weights: Automatic mesh                          
   0.00000000  0.00000000  0.00000000       0.003
   0.16666667  0.00000000  0.00000000       0.021
   0.33333333  0.00000000  0.00000000       0.021
   0.50000000  0.00000000  0.00000000       0.010
   0.16666667  0.16666667  0.00000000       0.021
   0.33333333  0.16666667  0.00000000       0.042
   0.33333333  0.33333333  0.00000000       0.007
   0.00000000  0.00000000  0.12500000       0.007
   0.16666667  0.00000000  0.12500000       0.042
   0.33333333  0.00000000  0.12500000       0.042
   0.50000000  0.00000000  0.12500000       0.021
   0.16666667  0.16666667  0.12500000       0.021
   0.33333333  0.16666667  0.12500000       0.042
   0.33333333  0.33333333  0.12500000       0.007
  -0.16666667  0.33333333  0.12500000       0.021
  -0.33333333  0.50000000  0.12500000       0.042
  -0.33333333 -0.33333333  0.12500000       0.007
   0.00000000  0.00000000  0.25000000       0.007
   0.16666667  0.00000000  0.25000000       0.042
   0.33333333  0.00000000  0.25000000       0.042
   0.50000000  0.00000000  0.25000000       0.021
   0.16666667  0.16666667  0.25000000       0.021
   0.33333333  0.16666667  0.25000000       0.042
   0.33333333  0.33333333  0.25000000       0.007
  -0.16666667  0.33333333  0.25000000       0.021
  -0.33333333  0.50000000  0.25000000       0.042
  -0.33333333 -0.33333333  0.25000000       0.007
   0.00000000  0.00000000  0.37500000       0.007
   0.16666667  0.00000000  0.37500000       0.042
   0.33333333  0.00000000  0.37500000       0.042
   0.50000000  0.00000000  0.37500000       0.021
   0.16666667  0.16666667  0.37500000       0.021
   0.33333333  0.16666667  0.37500000       0.042
   0.33333333  0.33333333  0.37500000       0.007
  -0.16666667  0.33333333  0.37500000       0.021
  -0.33333333  0.50000000  0.37500000       0.042
  -0.33333333 -0.33333333  0.37500000       0.007
   0.00000000  0.00000000  0.50000000       0.003
   0.16666667  0.00000000  0.50000000       0.021
   0.33333333  0.00000000  0.50000000       0.021
   0.50000000  0.00000000  0.50000000       0.010
   0.16666667  0.16666667  0.50000000       0.021
   0.33333333  0.16666667  0.50000000       0.042
   0.33333333  0.33333333  0.50000000       0.007
 
 position of ions in fractional coordinates (direct lattice) 
   0.00847736  0.64712623  0.21326215
   0.63864887  0.99152264  0.21326215
   0.91417805  0.32157747  0.99187268
   0.64712623  0.00847736  0.71326215
   0.08582195  0.40739942  0.49187268
   0.32157747  0.91417805  0.49187268
   0.35287377  0.36135113  0.21326215
   0.59260058  0.67842253  0.49187268
   0.99152264  0.63864887  0.71326215
   0.36135113  0.35287377  0.71326215
   0.67842253  0.59260058  0.99187268
   0.40739942  0.08582195  0.99187268
   0.21311138  0.30040483  0.46674092
   0.08729345  0.78688862  0.46674092
   0.30040483  0.21311138  0.96674092
   0.69959517  0.91270655  0.46674092
   0.00000000  0.00000000  0.95692726
   0.06686359  0.48449764  0.78259872
   0.00000000  0.00000000  0.45692726
   0.66666667  0.33333333  0.47577702
   0.58236595  0.51550236  0.28259872
   0.78688862  0.08729345  0.96674092
   0.91270655  0.69959517  0.96674092
   0.33333333  0.66666667  0.97577702
   0.93313641  0.41763405  0.28259872
   0.41763405  0.93313641  0.78259872
   0.51550236  0.58236595  0.78259872
   0.48449764  0.06686359  0.28259872
 
 position of ions in cartesian coordinates  (Angst):
   2.80042160  4.72503327  1.16738599
   6.96330461  2.61073082  1.16738599
   5.27855018 -4.38434576  5.42945978
   2.80042160 -4.72503327  3.90436016
   2.10680322  2.37918567  2.69248562
   5.27855018  4.38434576  2.69248562
   3.05082347  0.06271961  1.16738599
   5.42919627  0.63495227  2.69248562
   6.96330461 -2.61073082  3.90436016
   3.05082347 -0.06271961  3.90436016
   5.42919627 -0.63495227  5.42945978
   2.10680322 -2.37918567  5.42945978
   2.19349298  0.64583914  2.55491565
   3.73408317  5.17594348  2.55491565
   2.19349298 -0.64583914  5.29188981
   6.88697352  1.57670108  2.55491565
   0.00000000  0.00000000  5.23817037
   2.35514860  3.08985868  4.28390498
   0.00000000  0.00000000  2.50119621
   4.27151656 -2.46616123  2.60437880
   4.68956271 -0.49468918  1.54693081
   3.73408317 -5.17594348  5.29188981
   6.88697352 -1.57670108  5.29188981
   4.27151656  2.46616123  5.34135296
   5.76983836 -3.81393585  1.54693081
   5.76983836  3.81393585  4.28390498
   4.68956271  0.49468918  4.28390498
   2.35514860 -3.08985868  1.54693081
 


--------------------------------------------------------------------------------------------------------


 k-point  1 :   0.0000 0.0000 0.0000  plane waves:    6257
 k-point  2 :   0.1667 0.0000 0.0000  plane waves:    6292
 k-point  3 :   0.3333 0.0000 0.0000  plane waves:    6274
 k-point  4 :   0.5000 0.0000 0.0000  plane waves:    6290
 k-point  5 :   0.1667 0.1667 0.0000  plane waves:    6274
 k-point  6 :   0.3333 0.1667 0.0000  plane waves:    6270
 k-point  7 :   0.3333 0.3333 0.0000  plane waves:    6240
 k-point  8 :   0.0000 0.0000 0.1250  plane waves:    6282
 k-point  9 :   0.1667 0.0000 0.1250  plane waves:    6288
 k-point 10 :   0.3333 0.0000 0.1250  plane waves:    6285
 k-point 11 :   0.5000 0.0000 0.1250  plane waves:    6270
 k-point 12 :   0.1667 0.1667 0.1250  plane waves:    6274
 k-point 13 :   0.3333 0.1667 0.1250  plane waves:    6277
 k-point 14 :   0.3333 0.3333 0.1250  plane waves:    6297
 k-point 15 :  -0.1667 0.3333 0.1250  plane waves:    6274
 k-point 16 :  -0.3333 0.5000 0.1250  plane waves:    6277
 k-point 17 :  -0.3333-0.3333 0.1250  plane waves:    6297
 k-point 18 :   0.0000 0.0000 0.2500  plane waves:    6276
 k-point 19 :   0.1667 0.0000 0.2500  plane waves:    6269
 k-point 20 :   0.3333 0.0000 0.2500  plane waves:    6287
 k-point 21 :   0.5000 0.0000 0.2500  plane waves:    6288
 k-point 22 :   0.1667 0.1667 0.2500  plane waves:    6283
 k-point 23 :   0.3333 0.1667 0.2500  plane waves:    6291
 k-point 24 :   0.3333 0.3333 0.2500  plane waves:    6279
 k-point 25 :  -0.1667 0.3333 0.2500  plane waves:    6283
 k-point 26 :  -0.3333 0.5000 0.2500  plane waves:    6291
 k-point 27 :  -0.3333-0.3333 0.2500  plane waves:    6279
 k-point 28 :   0.0000 0.0000 0.3750  plane waves:    6252
 k-point 29 :   0.1667 0.0000 0.3750  plane waves:    6275
 k-point 30 :   0.3333 0.0000 0.3750  plane waves:    6294
 k-point 31 :   0.5000 0.0000 0.3750  plane waves:    6318
 k-point 32 :   0.1667 0.1667 0.3750  plane waves:    6290
 k-point 33 :   0.3333 0.1667 0.3750  plane waves:    6296
 k-point 34 :   0.3333 0.3333 0.3750  plane waves:    6315
 k-point 35 :  -0.1667 0.3333 0.3750  plane waves:    6290
 k-point 36 :  -0.3333 0.5000 0.3750  plane waves:    6296
 k-point 37 :  -0.3333-0.3333 0.3750  plane waves:    6315
 k-point 38 :   0.0000 0.0000 0.5000  plane waves:    6246
 k-point 39 :   0.1667 0.0000 0.5000  plane waves:    6272
 k-point 40 :   0.3333 0.0000 0.5000  plane waves:    6312
 k-point 41 :   0.5000 0.0000 0.5000  plane waves:    6316
 k-point 42 :   0.1667 0.1667 0.5000  plane waves:    6310
 k-point 43 :   0.3333 0.1667 0.5000  plane waves:    6296
 k-point 44 :   0.3333 0.3333 0.5000  plane waves:    6288

 maximum and minimum number of plane-waves per node :      1602     1530

 maximum number of plane-waves:      6318
 maximum index in each direction: 
   IXMAX=   14   IYMAX=   14   IZMAX=    8
   IXMIN=  -14   IYMIN=  -14   IZMIN=   -9


 real space projection operators:
  total allocation   :       8361.00 KBytes
  max/ min on nodes  :       2097.25       2085.00


 parallel 3D FFT for wavefunctions:
    minimum data exchange during FFTs selected (reduces bandwidth)
 parallel 3D FFT for charge:
    minimum data exchange during FFTs selected (reduces bandwidth)


 total amount of memory used by VASP MPI-rank0    66324. kBytes
=======================================================================

   base      :      30000. kBytes
   nonlr-proj:       5777. kBytes
   fftplans  :       2789. kBytes
   grid      :       4365. kBytes
   one-center:         21. kBytes
   wavefun   :      23372. kBytes
 
     INWAV:  cpu time    0.0000: real time    0.0000
 Broyden mixing: mesh for mixing (old mesh)
   NGX = 27   NGY = 27   NGZ = 17
  (NGX  =112   NGY  =112   NGZ  = 72)
  gives a total of  12393 points

 initial charge density was supplied:
 charge density of overlapping atoms calculated
 number of electron     124.0000000 magnetization 
 keeping initial charge density in first step


--------------------------------------------------------------------------------------------------------


 Maximum index for non-local projection operator         1633
 Maximum index for augmentation-charges          761 (set IRDMAX)


--------------------------------------------------------------------------------------------------------


 First call to EWALD:  gamma=   0.252
 Maximum number of real-space cells 3x 3x 3
 Maximum number of reciprocal cells 3x 3x 2

    FEWALD:  cpu time    0.0021: real time    0.0024


--------------------------------------- Iteration      1(   1)  ---------------------------------------


    POTLOK:  cpu time    0.2284: real time    0.2308
    SETDIJ:  cpu time    0.0046: real time    0.0046
     EDDAV:  cpu time    6.1526: real time    6.1553
       DOS:  cpu time    0.0032: real time    0.0032
    --------------------------------------------
      LOOP:  cpu time    6.3888: real time    6.3939

 eigenvalue-minimisations  :  7040
 total energy-change (2. order) : 0.4754096E+03  (-0.4973797E+04)
 number of electron     124.0000000 magnetization 
 augmentation part      124.0000000 magnetization 

 Free energy of the ion-electron system (eV)
  ---------------------------------------------------
  alpha Z        PSCENC =       140.93765575
  Ewald energy   TEWEN  =     -4241.03047376
  -Hartree energ DENC   =     -1070.54790337
  -exchange      EXHF   =         0.00000000
  -V(xc)+E(xc)   XCENC  =        99.15692089
  PAW double counting   =      3869.17357318    -3601.97287308
  entropy T*S    EENTRO =         0.00298062
  eigenvalues    EBANDS =       456.93774471
  atomic energy  EATOM  =      4822.75196862
  Solvation  Ediel_sol  =         0.00000000
  ---------------------------------------------------
  free energy    TOTEN  =       475.40959356 eV

  energy without entropy =      475.40661293  energy(sigma->0) =      475.40884840


--------------------------------------------------------------------------------------------------------




--------------------------------------- Iteration      1(   2)  ---------------------------------------


     EDDAV:  cpu time    7.0135: real time    7.0150
       DOS:  cpu time    0.0032: real time    0.0032
    --------------------------------------------
      LOOP:  cpu time    7.0167: real time    7.0182

 eigenvalue-minimisations  :  8744
 total energy-change (2. order) :-0.6495211E+03  (-0.6239656E+03)
 number of electron     124.0000000 magnetization 
 augmentation part      124.0000000 magnetization 

 Free energy of the ion-electron system (eV)
  ---------------------------------------------------
  alpha Z        PSCENC =       140.93765575
  Ewald energy   TEWEN  =     -4241.03047376
  -Hartree energ DENC   =     -1070.54790337
  -exchange      EXHF   =         0.00000000
  -V(xc)+E(xc)   XCENC  =        99.15692089
  PAW double counting   =      3869.17357318    -3601.97287308
  entropy T*S    EENTRO =        -0.00310291
  eigenvalues    EBANDS =      -192.57728666
  atomic energy  EATOM  =      4822.75196862
  Solvation  Ediel_sol  =         0.00000000
  ---------------------------------------------------
  free energy    TOTEN  =      -174.11152135 eV

  energy without entropy =     -174.10841843  energy(sigma->0) =     -174.11074562


--------------------------------------------------------------------------------------------------------




--------------------------------------- Iteration      1(   3)  ---------------------------------------


     EDDAV:  cpu time    6.9241: real time    6.9243
       DOS:  cpu time    0.0035: real time    0.0035
    --------------------------------------------
      LOOP:  cpu time    6.9276: real time    6.9278

 eigenvalue-minimisations  :  8480
 total energy-change (2. order) :-0.5113700E+02  (-0.5067322E+02)
 number of electron     124.0000000 magnetization 
 augmentation part      124.0000000 magnetization 

 Free energy of the ion-electron system (eV)
  ---------------------------------------------------
  alpha Z        PSCENC =       140.93765575
  Ewald energy   TEWEN  =     -4241.03047376
  -Hartree energ DENC   =     -1070.54790337
  -exchange      EXHF   =         0.00000000
  -V(xc)+E(xc)   XCENC  =        99.15692089
  PAW double counting   =      3869.17357318    -3601.97287308
  entropy T*S    EENTRO =        -0.02408342
  eigenvalues    EBANDS =      -243.69330263
  atomic energy  EATOM  =      4822.75196862
  Solvation  Ediel_sol  =         0.00000000
  ---------------------------------------------------
  free energy    TOTEN  =      -225.24851783 eV

  energy without entropy =     -225.22443441  energy(sigma->0) =     -225.24249697


--------------------------------------------------------------------------------------------------------




--------------------------------------- Iteration      1(   4)  ---------------------------------------


     EDDAV:  cpu time    7.1560: real time    7.1569
       DOS:  cpu time    0.0038: real time    0.0038
    --------------------------------------------
      LOOP:  cpu time    7.1598: real time    7.1607

 eigenvalue-minimisations  :  8784
 total energy-change (2. order) :-0.1184934E+01  (-0.1178585E+01)
 number of electron     124.0000000 magnetization 
 augmentation part      124.0000000 magnetization 

 Free energy of the ion-electron system (eV)
  ---------------------------------------------------
  alpha Z        PSCENC =       140.93765575
  Ewald energy   TEWEN  =     -4241.03047376
  -Hartree energ DENC   =     -1070.54790337
  -exchange      EXHF   =         0.00000000
  -V(xc)+E(xc)   XCENC  =        99.15692089
  PAW double counting   =      3869.17357318    -3601.97287308
  entropy T*S    EENTRO =        -0.02728316
  eigenvalues    EBANDS =      -244.87503738
  atomic energy  EATOM  =      4822.75196862
  Solvation  Ediel_sol  =         0.00000000
  ---------------------------------------------------
  free energy    TOTEN  =      -226.43345231 eV

  energy without entropy =     -226.40616915  energy(sigma->0) =     -226.42663152


--------------------------------------------------------------------------------------------------------




--------------------------------------- Iteration      1(   5)  ---------------------------------------


     EDDAV:  cpu time    7.3071: real time    7.3091
       DOS:  cpu time    0.0036: real time    0.0036
    CHARGE:  cpu time    0.3285: real time    0.3285
    MIXING:  cpu time    0.0012: real time    0.0012
    --------------------------------------------
      LOOP:  cpu time    7.6404: real time    7.6425

 eigenvalue-minimisations  :  8568
 total energy-change (2. order) :-0.2828431E-01  (-0.2824301E-01)
 number of electron     123.9999995 magnetization 
 augmentation part        0.9234690 magnetization 

 Broyden mixing:
  rms(total) = 0.36359E+01    rms(broyden)= 0.36345E+01
  rms(prec ) = 0.51368E+01
  weight for this iteration     100.00

 Free energy of the ion-electron system (eV)
  ---------------------------------------------------
  alpha Z        PSCENC =       140.93765575
  Ewald energy   TEWEN  =     -4241.03047376
  -Hartree energ DENC   =     -1070.54790337
  -exchange      EXHF   =         0.00000000
  -V(xc)+E(xc)   XCENC  =        99.15692089
  PAW double counting   =      3869.17357318    -3601.97287308
  entropy T*S    EENTRO =        -0.02731138
  eigenvalues    EBANDS =      -244.90329348
  atomic energy  EATOM  =      4822.75196862
  Solvation  Ediel_sol  =         0.00000000
  ---------------------------------------------------
  free energy    TOTEN  =      -226.46173662 eV

  energy without entropy =     -226.43442525  energy(sigma->0) =     -226.45490878


--------------------------------------------------------------------------------------------------------




--------------------------------------- Iteration      1(   6)  ---------------------------------------


    POTLOK:  cpu time    0.0401: real time    0.0402
    SETDIJ:  cpu time    0.0043: real time    0.0047
    EDDIAG:  cpu time    0.8990: real time    0.8990
  RMM-DIIS:  cpu time    3.9788: real time    3.9785
    ORTHCH:  cpu time    0.0962: real time    0.0962
       DOS:  cpu time    0.0036: real time    0.0035
    CHARGE:  cpu time    0.3027: real time    0.3027
    MIXING:  cpu time    0.0010: real time    0.0011
    --------------------------------------------
      LOOP:  cpu time    5.3256: real time    5.3258

 eigenvalue-minimisations  :  7053
 total energy-change (2. order) : 0.2417763E+02  (-0.1108774E+02)
 number of electron     123.9999996 magnetization 
 augmentation part       -0.5163664 magnetization 

 Broyden mixing:
  rms(total) = 0.16301E+01    rms(broyden)= 0.16293E+01
  rms(prec ) = 0.18357E+01
  weight for this iteration     100.00

 eigenvalues of (default mixing * dielectric matrix)
  average eigenvalue GAMMA=   1.1330
  1.1330

 Free energy of the ion-electron system (eV)
  ---------------------------------------------------
  alpha Z        PSCENC =       140.93765575
  Ewald energy   TEWEN  =     -4241.03047376
  -Hartree energ DENC   =     -1259.86467135
  -exchange      EXHF   =         0.00000000
  -V(xc)+E(xc)   XCENC  =       112.52870437
  PAW double counting   =      8280.71821301    -8016.14169154
  entropy T*S    EENTRO =        -0.00363670
  eigenvalues    EBANDS =       -42.18017127
  atomic energy  EATOM  =      4822.75196862
  Solvation  Ediel_sol  =         0.00000000
  ---------------------------------------------------
  free energy    TOTEN  =      -202.28410287 eV

  energy without entropy =     -202.28046617  energy(sigma->0) =     -202.28319369


--------------------------------------------------------------------------------------------------------




--------------------------------------- Iteration      1(   7)  ---------------------------------------


    POTLOK:  cpu time    0.0363: real time    0.0380
    SETDIJ:  cpu time    0.0040: real time    0.0045
    EDDIAG:  cpu time    0.9033: real time    0.9037
  RMM-DIIS:  cpu time    3.8657: real time    3.8656
    ORTHCH:  cpu time    0.0902: real time    0.0902
       DOS:  cpu time    0.0035: real time    0.0035
    CHARGE:  cpu time    0.3165: real time    0.3165
    MIXING:  cpu time    0.0013: real time    0.0013
    --------------------------------------------
      LOOP:  cpu time    5.2209: real time    5.2232

 eigenvalue-minimisations  :  7206
 total energy-change (2. order) : 0.4864116E+00  (-0.4580224E+00)
 number of electron     123.9999996 magnetization 
 augmentation part       -0.6576971 magnetization 

 Broyden mixing:
  rms(total) = 0.89667E+00    rms(broyden)= 0.89655E+00
  rms(prec ) = 0.10186E+01
  weight for this iteration     100.00

 eigenvalues of (default mixing * dielectric matrix)
  average eigenvalue GAMMA=   1.6304
  1.1378  2.1230

 Free energy of the ion-electron system (eV)
  ---------------------------------------------------
  alpha Z        PSCENC =       140.93765575
  Ewald energy   TEWEN  =     -4241.03047376
  -Hartree energ DENC   =     -1279.12555097
  -exchange      EXHF   =         0.00000000
  -V(xc)+E(xc)   XCENC  =       114.73170142
  PAW double counting   =     12363.16391134   -12099.66217374
  entropy T*S    EENTRO =        -0.00865800
  eigenvalues    EBANDS =       -23.55607197
  atomic energy  EATOM  =      4822.75196862
  Solvation  Ediel_sol  =         0.00000000
  ---------------------------------------------------
  free energy    TOTEN  =      -201.79769131 eV

  energy without entropy =     -201.78903331  energy(sigma->0) =     -201.79552681


--------------------------------------------------------------------------------------------------------




--------------------------------------- Iteration      1(   8)  ---------------------------------------


    POTLOK:  cpu time    0.0360: real time    0.0394
    SETDIJ:  cpu time    0.0041: real time    0.0044
    EDDIAG:  cpu time    0.8690: real time    0.8690
  RMM-DIIS:  cpu time    3.8090: real time    3.8088
    ORTHCH:  cpu time    0.0934: real time    0.0934
       DOS:  cpu time    0.0035: real time    0.0035
    CHARGE:  cpu time    0.3209: real time    0.3209
    MIXING:  cpu time    0.0011: real time    0.0011
    --------------------------------------------
      LOOP:  cpu time    5.1371: real time    5.1407

 eigenvalue-minimisations  :  7040
 total energy-change (2. order) : 0.1712615E+00  (-0.1153706E+00)
 number of electron     123.9999996 magnetization 
 augmentation part       -0.5717084 magnetization 

 Broyden mixing:
  rms(total) = 0.16188E+00    rms(broyden)= 0.16187E+00
  rms(prec ) = 0.28368E+00
  weight for this iteration     100.00

 eigenvalues of (default mixing * dielectric matrix)
  average eigenvalue GAMMA=   1.4138
  2.3039  0.9688  0.9688

 Free energy of the ion-electron system (eV)
  ---------------------------------------------------
  alpha Z        PSCENC =       140.93765575
  Ewald energy   TEWEN  =     -4241.03047376
  -Hartree energ DENC   =     -1278.51083634
  -exchange      EXHF   =         0.00000000
  -V(xc)+E(xc)   XCENC  =       115.73650876
  PAW double counting   =     16984.52768310   -16721.95374273
  entropy T*S    EENTRO =        -0.00343061
  eigenvalues    EBANDS =       -24.08176265
  atomic energy  EATOM  =      4822.75196862
  Solvation  Ediel_sol  =         0.00000000
  ---------------------------------------------------
  free energy    TOTEN  =      -201.62642986 eV

  energy without entropy =     -201.62299925  energy(sigma->0) =     -201.62557220


--------------------------------------------------------------------------------------------------------




--------------------------------------- Iteration      1(   9)  ---------------------------------------


    POTLOK:  cpu time    0.0360: real time    0.0377
    SETDIJ:  cpu time    0.0040: real time    0.0040
    EDDIAG:  cpu time    0.9063: real time    0.9062
  RMM-DIIS:  cpu time    3.9617: real time    3.9614
    ORTHCH:  cpu time    0.0888: real time    0.0888
       DOS:  cpu time    0.0036: real time    0.0036
    CHARGE:  cpu time    0.3083: real time    0.3083
    MIXING:  cpu time    0.0012: real time    0.0012
    --------------------------------------------
      LOOP:  cpu time    5.3099: real time    5.3112

 eigenvalue-minimisations  :  7041
 total energy-change (2. order) : 0.3446377E-01  (-0.7796224E-02)
 number of electron     123.9999996 magnetization 
 augmentation part       -0.5730752 magnetization 

 Broyden mixing:
  rms(total) = 0.75231E-01    rms(broyden)= 0.75221E-01
  rms(prec ) = 0.13134E+00
  weight for this iteration     100.00

 eigenvalues of (default mixing * dielectric matrix)
  average eigenvalue GAMMA=   1.3365
  2.3663  1.1649  1.1649  0.6501

 Free energy of the ion-electron system (eV)
  ---------------------------------------------------
  alpha Z        PSCENC =       140.93765575
  Ewald energy   TEWEN  =     -4241.03047376
  -Hartree energ DENC   =     -1283.96517462
  -exchange      EXHF   =         0.00000000
  -V(xc)+E(xc)   XCENC  =       116.28402179
  PAW double counting   =     17806.64913108   -17544.23897521
  entropy T*S    EENTRO =        -0.00936422
  eigenvalues    EBANDS =       -18.97075551
  atomic energy  EATOM  =      4822.75196862
  Solvation  Ediel_sol  =         0.00000000
  ---------------------------------------------------
  free energy    TOTEN  =      -201.59196609 eV

  energy without entropy =     -201.58260187  energy(sigma->0) =     -201.58962503


--------------------------------------------------------------------------------------------------------




--------------------------------------- Iteration      1(  10)  ---------------------------------------


    POTLOK:  cpu time    0.0394: real time    0.0395
    SETDIJ:  cpu time    0.0041: real time    0.0041
    EDDIAG:  cpu time    0.8990: real time    0.8992
  RMM-DIIS:  cpu time    3.9622: real time    3.9619
    ORTHCH:  cpu time    0.0859: real time    0.0859
       DOS:  cpu time    0.0035: real time    0.0035
    CHARGE:  cpu time    0.3065: real time    0.3066
    MIXING:  cpu time    0.0011: real time    0.0011
    --------------------------------------------
      LOOP:  cpu time    5.3017: real time    5.3018

 eigenvalue-minimisations  :  7040
 total energy-change (2. order) : 0.6355337E-02  (-0.1197482E-01)
 number of electron     123.9999996 magnetization 
 augmentation part       -0.6209535 magnetization 

 Broyden mixing:
  rms(total) = 0.49799E-01    rms(broyden)= 0.49752E-01
  rms(prec ) = 0.81981E-01
  weight for this iteration     100.00

 eigenvalues of (default mixing * dielectric matrix)
  average eigenvalue GAMMA=   1.4337
  2.2750  2.2750  1.0325  1.0325  0.5537

 Free energy of the ion-electron system (eV)
  ---------------------------------------------------
  alpha Z        PSCENC =       140.93765575
  Ewald energy   TEWEN  =     -4241.03047376
  -Hartree energ DENC   =     -1290.39925623
  -exchange      EXHF   =         0.00000000
  -V(xc)+E(xc)   XCENC  =       116.70653665
  PAW double counting   =     17920.89518651   -17658.51579877
  entropy T*S    EENTRO =        -0.00707346
  eigenvalues    EBANDS =       -12.92435608
  atomic energy  EATOM  =      4822.75196862
  Solvation  Ediel_sol  =         0.00000000
  ---------------------------------------------------
  free energy    TOTEN  =      -201.58561075 eV

  energy without entropy =     -201.57853730  energy(sigma->0) =     -201.58384239


--------------------------------------------------------------------------------------------------------




--------------------------------------- Iteration      1(  11)  ---------------------------------------


    POTLOK:  cpu time    0.0334: real time    0.0354
    SETDIJ:  cpu time    0.0041: real time    0.0041
    EDDIAG:  cpu time    0.8816: real time    0.8816
  RMM-DIIS:  cpu time    3.9745: real time    3.9742
    ORTHCH:  cpu time    0.0909: real time    0.0909
       DOS:  cpu time    0.0035: real time    0.0035
    CHARGE:  cpu time    0.3091: real time    0.3091
    MIXING:  cpu time    0.0012: real time    0.0012
    --------------------------------------------
      LOOP:  cpu time    5.2982: real time    5.2999

 eigenvalue-minimisations  :  7040
 total energy-change (2. order) : 0.1775626E-02  (-0.9817812E-03)
 number of electron     123.9999996 magnetization 
 augmentation part       -0.6142745 magnetization 

 Broyden mixing:
  rms(total) = 0.20479E-01    rms(broyden)= 0.20477E-01
  rms(prec ) = 0.37478E-01
  weight for this iteration     100.00

 eigenvalues of (default mixing * dielectric matrix)
  average eigenvalue GAMMA=   1.4516
  2.3812  2.3812  1.2193  1.0992  1.0992  0.5295

 Free energy of the ion-electron system (eV)
  ---------------------------------------------------
  alpha Z        PSCENC =       140.93765575
  Ewald energy   TEWEN  =     -4241.03047376
  -Hartree energ DENC   =     -1289.16980295
  -exchange      EXHF   =         0.00000000
  -V(xc)+E(xc)   XCENC  =       116.63051495
  PAW double counting   =     17795.22005848   -17532.80457702
  entropy T*S    EENTRO =        -0.00884776
  eigenvalues    EBANDS =       -14.11033143
  atomic energy  EATOM  =      4822.75196862
  Solvation  Ediel_sol  =         0.00000000
  ---------------------------------------------------
  free energy    TOTEN  =      -201.58383513 eV

  energy without entropy =     -201.57498736  energy(sigma->0) =     -201.58162319


--------------------------------------------------------------------------------------------------------




--------------------------------------- Iteration      1(  12)  ---------------------------------------


    POTLOK:  cpu time    0.0406: real time    0.0408
    SETDIJ:  cpu time    0.0045: real time    0.0049
    EDDIAG:  cpu time    0.8985: real time    0.8988
  RMM-DIIS:  cpu time    4.0032: real time    4.0029
    ORTHCH:  cpu time    0.0938: real time    0.0938
       DOS:  cpu time    0.0036: real time    0.0036
    CHARGE:  cpu time    0.3037: real time    0.3037
    MIXING:  cpu time    0.0012: real time    0.0012
    --------------------------------------------
      LOOP:  cpu time    5.3491: real time    5.3497

 eigenvalue-minimisations  :  7040
 total energy-change (2. order) : 0.3525543E-03  (-0.4464712E-03)
 number of electron     123.9999996 magnetization 
 augmentation part       -0.6085030 magnetization 

 Broyden mixing:
  rms(total) = 0.10147E-01    rms(broyden)= 0.10143E-01
  rms(prec ) = 0.25151E-01
  weight for this iteration     100.00

 eigenvalues of (default mixing * dielectric matrix)
  average eigenvalue GAMMA=   1.4920
  2.5520  2.5520  1.8457  1.0327  1.0327  0.9143  0.5143

 Free energy of the ion-electron system (eV)
  ---------------------------------------------------
  alpha Z        PSCENC =       140.93765575
  Ewald energy   TEWEN  =     -4241.03047376
  -Hartree energ DENC   =     -1288.51280058
  -exchange      EXHF   =         0.00000000
  -V(xc)+E(xc)   XCENC  =       116.60198939
  PAW double counting   =     17781.89459392   -17519.47872166
  entropy T*S    EENTRO =        -0.00808963
  eigenvalues    EBANDS =       -14.73960463
  atomic energy  EATOM  =      4822.75196862
  Solvation  Ediel_sol  =         0.00000000
  ---------------------------------------------------
  free energy    TOTEN  =      -201.58348257 eV

  energy without entropy =     -201.57539294  energy(sigma->0) =     -201.58146017


--------------------------------------------------------------------------------------------------------




--------------------------------------- Iteration      1(  13)  ---------------------------------------


    POTLOK:  cpu time    0.0349: real time    0.0380
    SETDIJ:  cpu time    0.0039: real time    0.0039
    EDDIAG:  cpu time    0.8700: real time    0.8699
  RMM-DIIS:  cpu time    3.1209: real time    3.1207
    ORTHCH:  cpu time    0.0876: real time    0.0876
       DOS:  cpu time    0.0035: real time    0.0035
    CHARGE:  cpu time    0.3063: real time    0.3063
    MIXING:  cpu time    0.0013: real time    0.0013
    --------------------------------------------
      LOOP:  cpu time    4.4284: real time    4.4312

 eigenvalue-minimisations  :  5468
 total energy-change (2. order) : 0.1939834E-03  (-0.4845027E-04)
 number of electron     123.9999996 magnetization 
 augmentation part       -0.6068946 magnetization 

 Broyden mixing:
  rms(total) = 0.28932E-02    rms(broyden)= 0.28877E-02
  rms(prec ) = 0.44567E-02
  weight for this iteration     100.00

 eigenvalues of (default mixing * dielectric matrix)
  average eigenvalue GAMMA=   1.4621
  2.7467  2.4646  1.8096  1.0625  1.0625  1.1384  0.8979  0.5141

 Free energy of the ion-electron system (eV)
  ---------------------------------------------------
  alpha Z        PSCENC =       140.93765575
  Ewald energy   TEWEN  =     -4241.03047376
  -Hartree energ DENC   =     -1288.58774287
  -exchange      EXHF   =         0.00000000
  -V(xc)+E(xc)   XCENC  =       116.61492596
  PAW double counting   =     17747.29478257   -17484.87732910
  entropy T*S    EENTRO =        -0.00859404
  eigenvalues    EBANDS =       -14.67848173
  atomic energy  EATOM  =      4822.75196862
  Solvation  Ediel_sol  =         0.00000000
  ---------------------------------------------------
  free energy    TOTEN  =      -201.58328859 eV

  energy without entropy =     -201.57469455  energy(sigma->0) =     -201.58114008


--------------------------------------------------------------------------------------------------------




--------------------------------------- Iteration      1(  14)  ---------------------------------------


    POTLOK:  cpu time    0.1586: real time    0.3010
    SETDIJ:  cpu time    0.0040: real time    0.0040
    EDDIAG:  cpu time    0.8693: real time    0.8694
  RMM-DIIS:  cpu time    2.4527: real time    2.4529
    ORTHCH:  cpu time    0.0898: real time    0.0898
       DOS:  cpu time    0.0035: real time    0.0035
    --------------------------------------------
      LOOP:  cpu time    3.5780: real time    3.7206

 eigenvalue-minimisations  :  4259
 total energy-change (2. order) : 0.1671955E-04  (-0.4890155E-05)
 number of electron     123.9999996 magnetization 
 augmentation part       -0.6068946 magnetization 

 Free energy of the ion-electron system (eV)
  ---------------------------------------------------
  alpha Z        PSCENC =       140.93765575
  Ewald energy   TEWEN  =     -4241.03047376
  -Hartree energ DENC   =     -1288.74774532
  -exchange      EXHF   =         0.00000000
  -V(xc)+E(xc)   XCENC  =       116.62486583
  PAW double counting   =     17745.99396807   -17483.57678713
  entropy T*S    EENTRO =        -0.00856635
  eigenvalues    EBANDS =       -14.52815760
  atomic energy  EATOM  =      4822.75196862
  Solvation  Ediel_sol  =         0.00000000
  ---------------------------------------------------
  free energy    TOTEN  =      -201.58327187 eV

  energy without entropy =     -201.57470552  energy(sigma->0) =     -201.58113028


--------------------------------------------------------------------------------------------------------




 average (electrostatic) potential at core
  the test charge radii are     0.7089  0.9892
  (the norm of the test charge is              1.0000)
       1 -61.4119       2 -61.4119       3 -61.4192       4 -61.4119       5 -61.4192
       6 -61.4192       7 -61.4119       8 -61.4192       9 -61.4119      10 -61.4119
      11 -61.4192      12 -61.4192      13 -82.5189      14 -82.5189      15 -82.5189
      16 -82.5189      17 -81.4103      18 -82.3665      19 -81.4103      20 -80.7843
      21 -82.3665      22 -82.5189      23 -82.5189      24 -80.7843      25 -82.3665
      26 -82.3665      27 -82.3665      28 -82.3665
 
 
 
 E-fermi :   7.6564     XC(G=0): -10.5253     alpha+bet :-14.1051


 k-point     1 :       0.0000    0.0000    0.0000
  band No.  band energies     occupation 
      1     -11.0851      2.00000
      2     -10.4089      2.00000
      3     -10.4089      2.00000
      4      -9.5778      2.00000
      5      -9.5778      2.00000
      6      -8.8860      2.00000
      7      -8.5015      2.00000
      8      -8.4687      2.00000
      9      -8.4687      2.00000
     10      -8.4250      2.00000
     11      -8.3554      2.00000
     12      -8.3554      2.00000
     13      -4.0137      2.00000
     14      -3.0728      2.00000
     15      -3.0728      2.00000
     16      -2.7597      2.00000
     17      -2.0833      2.00000
     18      -1.8503      2.00000
     19      -1.8503      2.00000
     20      -1.3214      2.00000
     21      -0.9237      2.00000
     22      -0.9237      2.00000
     23      -0.6207      2.00000
     24      -0.2647      2.00000
     25      -0.2647      2.00000
     26       0.0756      2.00000
     27       0.1277      2.00000
     28       0.7555      2.00000
     29       0.8602      2.00000
     30       0.8602      2.00000
     31       1.1370      2.00000
     32       1.6329      2.00000
     33       1.6329      2.00000
     34       1.6587      2.00000
     35       1.8606      2.00000
     36       1.8606      2.00000
     37       2.2112      2.00000
     38       2.2677      2.00000
     39       2.2677      2.00000
     40       2.5917      2.00000
     41       2.5917      2.00000
     42       3.3465      2.00000
     43       3.3465      2.00000
     44       3.3556      2.00000
     45       3.4694      2.00000
     46       3.4694      2.00000
     47       4.0006      2.00000
     48       4.1277      2.00000
     49       4.3615      2.00000
     50       4.4425      2.00000
     51       4.4425      2.00000
     52       4.8252      2.00000
     53       4.9966      2.00000
     54       5.1370      2.00000
     55       5.1370      2.00000
     56       5.5168      2.00000
     57       5.5168      2.00000
     58       6.1708      2.00000
     59       6.1708      2.00000
     60       6.6759      2.00000
     61       6.6759      2.00000
     62       7.2747      1.99999
     63       7.9159      0.00306
     64       9.3875      0.00000
     65       9.3875      0.00000
     66      10.2419      0.00000
     67      10.2419      0.00000
     68      10.6084      0.00000
     69      10.6501      0.00000
     70      10.6503      0.00000
     71      11.4284      0.00000
     72      11.5355      0.00000
     73      11.7483      0.00000
     74      11.7514      0.00000
     75      12.0182      0.00000
     76      12.3750      0.00000
     77      12.5226      0.00000
     78      12.6458      0.00000
     79      12.7094      0.00000
     80      12.7236      0.00000

 k-point     2 :       0.1667    0.0000    0.0000
  band No.  band energies     occupation 
      1     -11.0534      2.00000
      2     -10.4738      2.00000
      3     -10.4335      2.00000
      4      -9.5452      2.00000
      5      -9.5080      2.00000
      6      -8.8561      2.00000
      7      -8.6286      2.00000
      8      -8.4869      2.00000
      9      -8.4537      2.00000
     10      -8.4163      2.00000
     11      -8.3552      2.00000
     12      -8.3196      2.00000
     13      -3.9311      2.00000
     14      -3.0824      2.00000
     15      -2.9916      2.00000
     16      -2.7078      2.00000
     17      -2.1572      2.00000
     18      -1.9233      2.00000
     19      -1.8526      2.00000
     20      -1.5547      2.00000
     21      -1.1575      2.00000
     22      -0.8552      2.00000
     23      -0.6417      2.00000
     24      -0.2961      2.00000
     25      -0.0939      2.00000
     26       0.1973      2.00000
     27       0.3017      2.00000
     28       0.7831      2.00000
     29       0.7949      2.00000
     30       0.8110      2.00000
     31       1.1825      2.00000
     32       1.4798      2.00000
     33       1.6499      2.00000
     34       1.7001      2.00000
     35       1.8721      2.00000
     36       1.9012      2.00000
     37       2.2153      2.00000
     38       2.2611      2.00000
     39       2.4444      2.00000
     40       2.6234      2.00000
     41       2.6476      2.00000
     42       3.2140      2.00000
     43       3.2718      2.00000
     44       3.3531      2.00000
     45       3.5143      2.00000
     46       3.5700      2.00000
     47       3.9647      2.00000
     48       3.9999      2.00000
     49       4.1377      2.00000
     50       4.5108      2.00000
     51       4.6825      2.00000
     52       4.8369      2.00000
     53       4.9735      2.00000
     54       5.1708      2.00000
     55       5.2415      2.00000
     56       5.4394      2.00000
     57       5.5098      2.00000
     58       6.0613      2.00000
     59       6.1059      2.00000
     60       6.5610      2.00000
     61       6.6648      2.00000
     62       7.3118      1.99994
     63       7.8492      0.00927
     64       9.5052      0.00000
     65       9.5722      0.00000
     66      10.1721      0.00000
     67      10.2139      0.00000
     68      10.6638      0.00000
     69      10.7771      0.00000
     70      10.8229      0.00000
     71      11.1953      0.00000
     72      11.5498      0.00000
     73      11.6221      0.00000
     74      11.9087      0.00000
     75      12.1299      0.00000
     76      12.2585      0.00000
     77      12.4564      0.00000
     78      12.5271      0.00000
     79      12.7179      0.00000
     80      12.8366      0.00000

 k-point     3 :       0.3333    0.0000    0.0000
  band No.  band energies     occupation 
      1     -10.9646      2.00000
      2     -10.6211      2.00000
      3     -10.4757      2.00000
      4      -9.4941      2.00000
      5      -9.3268      2.00000
      6      -8.8440      2.00000
      7      -8.7748      2.00000
      8      -8.5429      2.00000
      9      -8.4589      2.00000
     10      -8.4010      2.00000
     11      -8.3542      2.00000
     12      -8.2933      2.00000
     13      -3.6965      2.00000
     14      -3.1150      2.00000
     15      -2.8191      2.00000
     16      -2.6409      2.00000
     17      -2.3461      2.00000
     18      -2.0339      2.00000
     19      -1.9026      2.00000
     20      -1.8038      2.00000
     21      -1.5181      2.00000
     22      -0.7262      2.00000
     23      -0.6807      2.00000
     24      -0.4498      2.00000
     25       0.0795      2.00000
     26       0.4268      2.00000
     27       0.5180      2.00000
     28       0.6425      2.00000
     29       0.8861      2.00000
     30       0.9433      2.00000
     31       1.3121      2.00000
     32       1.3688      2.00000
     33       1.5951      2.00000
     34       1.6490      2.00000
     35       1.7988      2.00000
     36       1.9776      2.00000
     37       2.1916      2.00000
     38       2.2865      2.00000
     39       2.6135      2.00000
     40       2.6981      2.00000
     41       2.7699      2.00000
     42       3.0982      2.00000
     43       3.1455      2.00000
     44       3.3616      2.00000
     45       3.5254      2.00000
     46       3.7375      2.00000
     47       3.9106      2.00000
     48       4.0499      2.00000
     49       4.1240      2.00000
     50       4.5143      2.00000
     51       4.6500      2.00000
     52       4.8722      2.00000
     53       4.8828      2.00000
     54       5.1156      2.00000
     55       5.2928      2.00000
     56       5.4279      2.00000
     57       5.5275      2.00000
     58       5.8606      2.00000
     59       6.0146      2.00000
     60       6.3519      2.00000
     61       6.7082      2.00000
     62       7.4037      1.99618
     63       7.7155      0.03257
     64       9.7435      0.00000
     65       9.9793      0.00000
     66      10.0468      0.00000
     67      10.2319      0.00000
     68      10.6378      0.00000
     69      10.9828      0.00000
     70      11.0477      0.00000
     71      11.1649      0.00000
     72      11.3561      0.00000
     73      11.6515      0.00000
     74      11.9727      0.00000
     75      12.0893      0.00000
     76      12.2199      0.00000
     77      12.2584      0.00000
     78      12.4128      0.00000
     79      12.5196      0.00000
     80      12.6198      0.00000

 k-point     4 :       0.5000    0.0000    0.0000
  band No.  band energies     occupation 
      1     -10.8740      2.00000
      2     -10.7379      2.00000
      3     -10.4944      2.00000
      4      -9.4737      2.00000
      5      -9.0927      2.00000
      6      -9.0870      2.00000
      7      -8.7003      2.00000
      8      -8.6042      2.00000
      9      -8.4616      2.00000
     10      -8.3935      2.00000
     11      -8.3534      2.00000
     12      -8.2897      2.00000
     13      -3.4582      2.00000
     14      -3.2170      2.00000
     15      -2.8408      2.00000
     16      -2.6002      2.00000
     17      -2.2664      2.00000
     18      -2.1613      2.00000
     19      -2.0158      2.00000
     20      -1.8210      2.00000
     21      -1.6880      2.00000
     22      -0.7156      2.00000
     23      -0.6368      2.00000
     24      -0.5495      2.00000
     25       0.2027      2.00000
     26       0.3617      2.00000
     27       0.5569      2.00000
     28       0.7046      2.00000
     29       1.0020      2.00000
     30       1.0547      2.00000
     31       1.2126      2.00000
     32       1.4611      2.00000
     33       1.5861      2.00000
     34       1.6637      2.00000
     35       1.7229      2.00000
     36       2.0279      2.00000
     37       2.0501      2.00000
     38       2.3102      2.00000
     39       2.5823      2.00000
     40       2.7454      2.00000
     41       2.8858      2.00000
     42       3.0599      2.00000
     43       3.1527      2.00000
     44       3.2751      2.00000
     45       3.5389      2.00000
     46       3.8689      2.00000
     47       3.9377      2.00000
     48       4.1598      2.00000
     49       4.2622      2.00000
     50       4.4717      2.00000
     51       4.4879      2.00000
     52       4.7878      2.00000
     53       4.9179      2.00000
     54       5.0143      2.00000
     55       5.2692      2.00000
     56       5.4334      2.00000
     57       5.4410      2.00000
     58       5.7762      2.00000
     59       6.1525      2.00000
     60       6.1856      2.00000
     61       6.7509      2.00000
     62       7.4828      1.99761
     63       7.6221      1.66279
     64       9.9137      0.00000
     65       9.9373      0.00000
     66      10.1951      0.00000
     67      10.3877      0.00000
     68      10.4587      0.00000
     69      11.0411      0.00000
     70      11.1123      0.00000
     71      11.1169      0.00000
     72      11.4790      0.00000
     73      11.6379      0.00000
     74      11.9260      0.00000
     75      11.9979      0.00000
     76      12.1929      0.00000
     77      12.2106      0.00000
     78      12.2502      0.00000
     79      12.4476      0.00000
     80      12.9183      0.00000

 k-point     5 :       0.1667    0.1667    0.0000
  band No.  band energies     occupation 
      1     -10.9928      2.00000
      2     -10.5674      2.00000
      3     -10.4799      2.00000
      4      -9.4717      2.00000
      5      -9.4152      2.00000
      6      -8.7992      2.00000
      7      -8.7842      2.00000
      8      -8.5104      2.00000
      9      -8.4680      2.00000
     10      -8.4047      2.00000
     11      -8.3531      2.00000
     12      -8.2996      2.00000
     13      -3.7703      2.00000
     14      -3.0768      2.00000
     15      -2.8886      2.00000
     16      -2.6525      2.00000
     17      -2.2651      2.00000
     18      -2.0801      2.00000
     19      -1.8483      2.00000
     20      -1.7779      2.00000
     21      -1.3686      2.00000
     22      -0.8361      2.00000
     23      -0.6559      2.00000
     24      -0.3781      2.00000
     25       0.0124      2.00000
     26       0.4177      2.00000
     27       0.4822      2.00000
     28       0.6766      2.00000
     29       0.8166      2.00000
     30       0.9051      2.00000
     31       1.2988      2.00000
     32       1.3822      2.00000
     33       1.5862      2.00000
     34       1.7582      2.00000
     35       1.7666      2.00000
     36       1.9438      2.00000
     37       2.2135      2.00000
     38       2.2921      2.00000
     39       2.5996      2.00000
     40       2.6690      2.00000
     41       2.6803      2.00000
     42       3.1333      2.00000
     43       3.1735      2.00000
     44       3.3777      2.00000
     45       3.5734      2.00000
     46       3.6304      2.00000
     47       3.9018      2.00000
     48       4.0317      2.00000
     49       4.1204      2.00000
     50       4.6099      2.00000
     51       4.6305      2.00000
     52       4.8481      2.00000
     53       4.9165      2.00000
     54       5.1862      2.00000
     55       5.2763      2.00000
     56       5.3519      2.00000
     57       5.5453      2.00000
     58       5.8702      2.00000
     59       6.0518      2.00000
     60       6.4346      2.00000
     61       6.6793      2.00000
     62       7.3751      1.99865
     63       7.7520     -0.10324
     64       9.7015      0.00000
     65       9.8439      0.00000
     66      10.0999      0.00000
     67      10.1665      0.00000
     68      10.7720      0.00000
     69      10.8368      0.00000
     70      11.0645      0.00000
     71      11.1097      0.00000
     72      11.4117      0.00000
     73      11.7452      0.00000
     74      11.9378      0.00000
     75      12.0230      0.00000
     76      12.2193      0.00000
     77      12.2686      0.00000
     78      12.3299      0.00000
     79      12.6035      0.00000
     80      12.6686      0.00000

 k-point     6 :       0.3333    0.1667    0.0000
  band No.  band energies     occupation 
      1     -10.8873      2.00000
      2     -10.7012      2.00000
      3     -10.5246      2.00000
      4      -9.4091      2.00000
      5      -9.2383      2.00000
      6      -9.0063      2.00000
      7      -8.7093      2.00000
      8      -8.5630      2.00000
      9      -8.4831      2.00000
     10      -8.3935      2.00000
     11      -8.3470      2.00000
     12      -8.2996      2.00000
     13      -3.4900      2.00000
     14      -3.1026      2.00000
     15      -2.8708      2.00000
     16      -2.7122      2.00000
     17      -2.2887      2.00000
     18      -2.1301      2.00000
     19      -1.9635      2.00000
     20      -1.8324      2.00000
     21      -1.6388      2.00000
     22      -0.7648      2.00000
     23      -0.6596      2.00000
     24      -0.5365      2.00000
     25       0.1532      2.00000
     26       0.4473      2.00000
     27       0.5536      2.00000
     28       0.6869      2.00000
     29       1.0128      2.00000
     30       1.0506      2.00000
     31       1.2882      2.00000
     32       1.4525      2.00000
     33       1.5140      2.00000
     34       1.6863      2.00000
     35       1.7756      2.00000
     36       1.9386      2.00000
     37       2.0828      2.00000
     38       2.3792      2.00000
     39       2.5908      2.00000
     40       2.6490      2.00000
     41       2.7953      2.00000
     42       3.0312      2.00000
     43       3.0679      2.00000
     44       3.4262      2.00000
     45       3.5692      2.00000
     46       3.8617      2.00000
     47       4.0045      2.00000
     48       4.1602      2.00000
     49       4.1993      2.00000
     50       4.5088      2.00000
     51       4.6343      2.00000
[...]
     33       1.3909      2.00000
     34       1.4104      2.00000
     35       1.6856      2.00000
     36       1.7849      2.00000
     37       1.8165      2.00000
     38       2.1040      2.00000
     39       2.1859      2.00000
     40       2.3613      2.00000
     41       2.7989      2.00000
     42       2.8573      2.00000
     43       2.9461      2.00000
     44       2.9591      2.00000
     45       3.3534      2.00000
     46       3.6285      2.00000
     47       3.6666      2.00000
     48       4.0076      2.00000
     49       4.0582      2.00000
     50       4.1902      2.00000
     51       4.6422      2.00000
     52       4.6561      2.00000
     53       5.2223      2.00000
     54       5.2369      2.00000
     55       5.4204      2.00000
     56       5.4695      2.00000
     57       6.0747      2.00000
     58       6.0899      2.00000
     59       6.2100      2.00000
     60       6.2424      2.00000
     61       7.5473      2.09337
     62       7.5706      2.09538
     63       7.8275      0.00076
     64       7.8329      0.00407
     65      10.1904      0.00000
     66      10.2652      0.00000
     67      10.4646      0.00000
     68      10.5184      0.00000
     69      11.2077      0.00000
     70      11.2988      0.00000
     71      11.4063      0.00000
     72      11.6020      0.00000
     73      11.8169      0.00000
     74      11.9562      0.00000
     75      12.0101      0.00000
     76      12.0934      0.00000
     77      12.2777      0.00000
     78      12.3313      0.00000
     79      12.4371      0.00000
     80      12.4762      0.00000

 k-point    43 :       0.3333    0.1667    0.5000
  band No.  band energies     occupation 
      1     -10.2328      2.00000
      2     -10.2323      2.00000
      3      -9.8771      2.00000
      4      -9.8697      2.00000
      5      -9.8186      2.00000
      6      -9.8050      2.00000
      7      -8.8366      2.00000
      8      -8.8151      2.00000
      9      -8.7697      2.00000
     10      -8.7549      2.00000
     11      -8.2840      2.00000
     12      -8.2832      2.00000
     13      -2.8127      2.00000
     14      -2.7730      2.00000
     15      -2.3911      2.00000
     16      -2.3374      2.00000
     17      -2.0423      2.00000
     18      -1.9858      2.00000
     19      -1.4248      2.00000
     20      -1.4007      2.00000
     21      -0.8877      2.00000
     22      -0.8750      2.00000
     23      -0.2764      2.00000
     24      -0.0464      2.00000
     25       0.0038      2.00000
     26       0.1841      2.00000
     27       0.3094      2.00000
     28       0.3337      2.00000
     29       0.5529      2.00000
     30       0.7275      2.00000
     31       1.0469      2.00000
     32       1.1004      2.00000
     33       1.2284      2.00000
     34       1.3487      2.00000
     35       1.5859      2.00000
     36       1.6124      2.00000
     37       1.7626      2.00000
     38       2.1795      2.00000
     39       2.3643      2.00000
     40       2.5538      2.00000
     41       2.8493      2.00000
     42       2.8845      2.00000
     43       2.9555      2.00000
     44       3.0556      2.00000
     45       3.4612      2.00000
     46       3.6985      2.00000
     47       3.9673      2.00000
     48       4.1675      2.00000
     49       4.3452      2.00000
     50       4.4395      2.00000
     51       4.6064      2.00000
     52       4.6578      2.00000
     53       4.9579      2.00000
     54       5.0149      2.00000
     55       5.3832      2.00000
     56       5.4094      2.00000
     57       5.8326      2.00000
     58       5.8501      2.00000
     59       6.1207      2.00000
     60       6.1639      2.00000
     61       7.6421      1.29664
     62       7.6605      0.91251
     63       7.7786     -0.07142
     64       7.7914     -0.04696
     65      10.0917      0.00000
     66      10.1514      0.00000
     67      10.4696      0.00000
     68      10.5297      0.00000
     69      10.9220      0.00000
     70      11.1406      0.00000
     71      11.4260      0.00000
     72      11.5608      0.00000
     73      11.8047      0.00000
     74      12.0356      0.00000
     75      12.1044      0.00000
     76      12.1918      0.00000
     77      12.2899      0.00000
     78      12.3559      0.00000
     79      12.5639      0.00000
     80      12.6315      0.00000

 k-point    44 :       0.3333    0.3333    0.5000
  band No.  band energies     occupation 
      1     -10.2189      2.00000
      2     -10.2189      2.00000
      3      -9.8657      2.00000
      4      -9.8657      2.00000
      5      -9.8577      2.00000
      6      -9.8300      2.00000
      7      -8.8160      2.00000
      8      -8.7775      2.00000
      9      -8.7775      2.00000
     10      -8.7658      2.00000
     11      -8.2939      2.00000
     12      -8.2939      2.00000
     13      -2.6755      2.00000
     14      -2.5030      2.00000
     15      -2.4848      2.00000
     16      -2.4848      2.00000
     17      -2.1644      2.00000
     18      -2.1644      2.00000
     19      -1.3204      2.00000
     20      -1.2769      2.00000
     21      -0.9849      2.00000
     22      -0.9849      2.00000
     23      -0.1196      2.00000
     24      -0.1196      2.00000
     25       0.1707      2.00000
     26       0.1707      2.00000
     27       0.2169      2.00000
     28       0.2615      2.00000
     29       0.6509      2.00000
     30       0.6509      2.00000
     31       1.0909      2.00000
     32       1.0909      2.00000
     33       1.1784      2.00000
     34       1.4539      2.00000
     35       1.4539      2.00000
     36       1.4715      2.00000
     37       1.6554      2.00000
     38       2.3453      2.00000
     39       2.3453      2.00000
     40       2.6059      2.00000
     41       2.8817      2.00000
     42       2.8817      2.00000
     43       3.0699      2.00000
     44       3.3810      2.00000
     45       3.3810      2.00000
     46       3.4045      2.00000
     47       4.2166      2.00000
     48       4.2166      2.00000
     49       4.3702      2.00000
     50       4.5202      2.00000
     51       4.5202      2.00000
     52       4.6442      2.00000
     53       4.9473      2.00000
     54       4.9473      2.00000
     55       5.4064      2.00000
     56       5.4064      2.00000
     57       5.8014      2.00000
     58       5.8014      2.00000
     59       6.0220      2.00000
     60       6.0681      2.00000
     61       7.6788      0.54288
     62       7.6828      0.46936
     63       7.7700     -0.08662
     64       7.7700     -0.08662
     65      10.1367      0.00000
     66      10.1367      0.00000
     67      10.4628      0.00000
     68      10.4628      0.00000
     69      10.7318      0.00000
     70      11.0889      0.00000
     71      11.4558      0.00000
     72      11.4558      0.00000
     73      11.9411      0.00000
     74      12.1736      0.00000
     75      12.1737      0.00000
     76      12.3058      0.00000
     77      12.3633      0.00000
     78      12.3649      0.00000
     79      12.4781      0.00000
     80      12.5733      0.00000


--------------------------------------------------------------------------------------------------------


 soft charge-density along one line, spin component           1
         0         1         2         3         4         5         6         7         8         9
 total charge-density along one line
 
 pseudopotential strength for first ion, spin component:           1
 12.457  14.931  -0.001  -0.001   0.001  -0.003  -0.003   0.003
 14.931  17.897  -0.001  -0.001   0.001  -0.004  -0.003   0.003
 -0.001  -0.001  -5.853   0.012  -0.015  -7.800   0.019  -0.023
 -0.001  -0.001   0.012  -5.863  -0.012   0.019  -7.816  -0.019
  0.001   0.001  -0.015  -0.012  -5.851  -0.023  -0.019  -7.796
 -0.003  -0.004  -7.800   0.019  -0.023  -9.677   0.029  -0.036
 -0.003  -0.003   0.019  -7.816  -0.019   0.029  -9.704  -0.029
  0.003   0.003  -0.023  -0.019  -7.796  -0.036  -0.029  -9.672
 total augmentation occupancy for first ion, spin component:           1
  7.598  -3.526   0.198   0.161  -0.164  -0.056  -0.048   0.051
 -3.526   1.761  -0.169  -0.133   0.140   0.037   0.032  -0.034
  0.198  -0.169   2.205  -0.098   0.134  -0.354   0.054  -0.069
  0.161  -0.133  -0.098   2.343   0.105   0.054  -0.408  -0.053
 -0.164   0.140   0.134   0.105   2.201  -0.069  -0.054  -0.347
 -0.056   0.037  -0.354   0.054  -0.069   0.067  -0.015   0.019
 -0.048   0.032   0.054  -0.408  -0.054  -0.015   0.082   0.014
  0.051  -0.034  -0.069  -0.053  -0.347   0.019   0.014   0.065


------------------------ aborting loop because EDIFF is reached ----------------------------------------


    CHARGE:  cpu time    0.3085: real time    0.3087
    FORLOC:  cpu time    0.0095: real time    0.0095
    FORNL :  cpu time    1.8806: real time    1.8812
    STRESS:  cpu time    5.6415: real time    5.6434
    FORCOR:  cpu time    0.0432: real time    0.0432
    FORHAR:  cpu time    0.0161: real time    0.0162
    MIXING:  cpu time    0.0010: real time    0.0010
    OFIELD:  cpu time    0.0000: real time    0.0000

  FORCE on cell =-STRESS in cart. coord.  units (eV):
  Direction    XX          YY          ZZ          XY          YZ          ZX
  --------------------------------------------------------------------------------------
  Alpha Z   140.93766   140.93766   140.93766
  Ewald   -1676.12285 -1676.12285  -888.50973    -0.00000     0.00000     0.00000
  Hartree   307.33572   307.33572   674.29845    -0.00000    -0.00000    -0.00000
  E(xc)    -476.71658  -476.71656  -474.73207     0.00000     0.00000     0.00000
  Local    -362.97537  -362.97470 -1456.21011    -0.00000     0.00000    -0.00000
  n-local   439.49801   439.53848   435.39362     0.04156     0.01900     0.20945
  augment   -75.71662   -75.71718   -74.91878    -0.00000    -0.00000    -0.00000
  Kinetic  1714.86685  1716.01378  1646.56241     0.08002     0.29438    -0.42291
  Fock        0.00000     0.00000     0.00000     0.00000     0.00000     0.00000
  -------------------------------------------------------------------------------------
  Total      11.70058    11.70058     2.82145     0.00000     0.00000     0.00000
  in kB      54.18291    54.18291    13.06555     0.00000     0.00000     0.00000
  external pressure =       40.48 kB  Pullay stress =        0.00 kB


 VOLUME and BASIS-vectors are now :
 -----------------------------------------------------------------------------
  energy-cutoff  :      400.00
  volume of cell :      345.98
      direct lattice vectors                 reciprocal lattice vectors
     4.271516557 -7.398483703  0.000000000     0.117054445 -0.067581415  0.000000000
     4.271516557  7.398483703  0.000000000     0.117054445  0.067581415  0.000000000
     0.000000000  0.000000000  5.473948324     0.000000000  0.000000000  0.182683493

  length of vectors
     8.543033115  8.543033115  5.473948324     0.135162831  0.135162831  0.182683493


 FORCES acting on ions
    electron-ion (+dipol)            ewald-force                    non-local-force                 convergence-correction
 -----------------------------------------------------------------------------------------------
   -.371E+02 -.106E+02 0.830E+01   0.407E+02 0.621E+01 -.115E+02   -.358E+01 0.441E+01 0.320E+01   -.200E-02 0.200E-01 -.163E-01
   0.934E+01 0.375E+02 0.830E+01   -.150E+02 -.383E+02 -.115E+02   0.561E+01 0.893E+00 0.320E+01   0.184E-01 -.829E-02 -.163E-01
   0.163E+02 0.190E+02 0.134E+02   -.178E+02 -.170E+02 -.160E+02   0.149E+01 -.208E+01 0.255E+01   0.227E-01 0.368E-01 0.235E-01
   -.371E+02 0.106E+02 0.830E+01   0.407E+02 -.621E+01 -.115E+02   -.358E+01 -.441E+01 0.320E+01   -.200E-02 -.200E-01 -.163E-01
   0.833E+01 0.236E+02 0.134E+02   -.579E+01 -.239E+02 -.160E+02   -.255E+01 0.246E+00 0.255E+01   0.205E-01 0.380E-01 0.235E-01
   0.163E+02 -.190E+02 0.134E+02   -.178E+02 0.170E+02 -.160E+02   0.149E+01 0.208E+01 0.255E+01   0.227E-01 -.368E-01 0.235E-01
   0.278E+02 -.268E+02 0.830E+01   -.257E+02 0.321E+02 -.115E+02   -.203E+01 -.531E+01 0.320E+01   -.164E-01 -.118E-01 -.163E-01
   -.246E+02 -.458E+01 0.134E+02   0.236E+02 0.693E+01 -.160E+02   0.106E+01 -.233E+01 0.255E+01   -.432E-01 -.124E-02 0.235E-01
   0.934E+01 -.375E+02 0.830E+01   -.150E+02 0.383E+02 -.115E+02   0.561E+01 -.893E+00 0.320E+01   0.184E-01 0.829E-02 -.163E-01
   0.278E+02 0.268E+02 0.830E+01   -.257E+02 -.321E+02 -.115E+02   -.203E+01 0.531E+01 0.320E+01   -.164E-01 0.118E-01 -.163E-01
   -.246E+02 0.458E+01 0.134E+02   0.236E+02 -.693E+01 -.160E+02   0.106E+01 0.233E+01 0.255E+01   -.432E-01 0.124E-02 0.235E-01
   0.833E+01 -.236E+02 0.134E+02   -.579E+01 0.239E+02 -.160E+02   -.255E+01 -.246E+00 0.255E+01   0.205E-01 -.380E-01 0.235E-01
   0.743E+02 0.115E+02 0.503E+01   -.754E+02 -.130E+02 -.535E+01   0.105E+01 0.148E+01 0.302E+00   0.196E-01 -.154E-03 0.322E-02
   -.272E+02 -.701E+02 0.503E+01   0.265E+02 0.718E+02 -.535E+01   0.755E+00 -.165E+01 0.302E+00   -.993E-02 -.169E-01 0.322E-02
   0.743E+02 -.115E+02 0.503E+01   -.754E+02 0.130E+02 -.535E+01   0.105E+01 -.148E+01 0.302E+00   0.196E-01 0.154E-03 0.322E-02
   -.472E+02 0.586E+02 0.503E+01   0.490E+02 -.588E+02 -.535E+01   -.181E+01 0.171E+00 0.302E+00   -.966E-02 0.170E-01 0.322E-02
   -.724E-06 0.241E-06 0.133E+01   0.400E-13 0.808E-12 -.979E+00   0.908E-17 -.694E-17 -.334E+00   -.879E-08 0.984E-07 0.212E-03
   -.207E+02 0.399E+02 -.208E+02   0.256E+02 -.409E+02 0.220E+02   -.494E+01 0.103E+01 -.124E+01   0.798E-02 -.627E-03 -.118E-02
   -.724E-06 -.241E-06 0.133E+01   0.493E-13 -.830E-12 -.979E+00   -.331E-17 -.239E-18 -.334E+00   -.879E-08 -.984E-07 0.212E-03
   -.656E-07 0.412E-07 -.386E+02   -.171E-11 -.821E-11 0.334E+02   0.218E-17 -.427E-17 0.524E+01   -.101E-06 -.388E-07 -.565E-03
   -.242E+02 0.379E+02 -.208E+02   0.226E+02 -.427E+02 0.220E+02   0.157E+01 0.479E+01 -.124E+01   -.345E-02 -.723E-02 -.118E-02
   -.272E+02 0.701E+02 0.503E+01   0.265E+02 -.718E+02 -.535E+01   0.755E+00 0.165E+01 0.302E+00   -.993E-02 0.169E-01 0.322E-02
   -.472E+02 -.586E+02 0.503E+01   0.490E+02 0.588E+02 -.535E+01   -.181E+01 -.171E+00 0.302E+00   -.966E-02 -.170E-01 0.322E-02
   -.656E-07 -.412E-07 -.386E+02   0.288E-11 0.809E-11 0.334E+02   -.561E-17 -.228E-17 0.524E+01   -.101E-06 0.388E-07 -.565E-03
   0.449E+02 0.204E+01 -.208E+02   -.483E+02 0.172E+01 0.220E+02   0.336E+01 -.376E+01 -.124E+01   -.453E-02 0.660E-02 -.118E-02
   0.449E+02 -.204E+01 -.208E+02   -.483E+02 -.172E+01 0.220E+02   0.336E+01 0.376E+01 -.124E+01   -.453E-02 -.660E-02 -.118E-02
   -.242E+02 -.379E+02 -.208E+02   0.226E+02 0.427E+02 0.220E+02   0.157E+01 -.479E+01 -.124E+01   -.345E-02 0.723E-02 -.118E-02
   -.207E+02 -.399E+02 -.208E+02   0.256E+02 0.409E+02 0.220E+02   -.494E+01 -.103E+01 -.124E+01   0.798E-02 0.627E-03 -.118E-02
 -----------------------------------------------------------------------------------------------
   0.425E-05 0.757E-11 -.387E+02   0.711E-14 0.711E-14 0.178E-13   0.000E+00 -.444E-15 0.387E+02   -.300E-05 -.338E-11 0.546E-01
 
 
 POSITION                                       TOTAL-FORCE (eV/Angst)
 -----------------------------------------------------------------------------------
      2.80056      4.72649      1.16682        -0.015893      0.002509      0.006305
      6.96450      2.60989      1.16682         0.010119      0.012509      0.006305
      5.27909     -4.38350      5.43029        -0.017183      0.005145     -0.002956
      2.80056     -4.72649      3.90379        -0.015893     -0.002509      0.006305
      2.10727      2.38008      2.69331         0.013047     -0.012309     -0.002956
      5.27909      4.38350      2.69331        -0.017183     -0.005145     -0.002956
      3.04950      0.06211      1.16682         0.005774     -0.015018      0.006305
      5.42819      0.63491      2.69331         0.004136      0.017453     -0.002956
      6.96450     -2.60989      3.90379         0.010119     -0.012509      0.006305
      3.04950     -0.06211      3.90379         0.005774      0.015018      0.006305
      5.42819     -0.63491      5.43029         0.004136     -0.017453     -0.002956
      2.10727     -2.38008      5.43029         0.013047      0.012309     -0.002956
      2.19425      0.64493      2.55488        -0.008512      0.012718     -0.012937
      3.73292      5.17574      2.55488         0.015270      0.001013     -0.012937
      2.19425     -0.64493      5.29185        -0.008512     -0.012718     -0.012937
      6.88738      1.57781      2.55488        -0.006758     -0.013731     -0.012937
     -0.00000      0.00000      5.23858        -0.000000      0.000000      0.014700
      2.35498      3.08921      4.28370         0.002961      0.008782      0.008616
     -0.00000     -0.00000      2.50160        -0.000000      0.000000      0.014700
      4.27152     -2.46616      2.60391        -0.000000      0.000000     -0.011783
      4.69021     -0.49487      1.54673        -0.009086      0.001826      0.008616
      3.73292     -5.17574      5.29185         0.015270     -0.001013     -0.012937
      6.88738     -1.57781      5.29185        -0.006758      0.013731     -0.012937
      4.27152      2.46616      5.34088        -0.000000      0.000000     -0.011783
      5.76936     -3.81440      1.54673         0.006125      0.006956      0.008616
      5.76936      3.81440      4.28370         0.006125     -0.006956      0.008616
      4.69021      0.49487      4.28370        -0.009086     -0.001826      0.008616
      2.35498     -3.08921      1.54673         0.002961     -0.008782      0.008616
 -----------------------------------------------------------------------------------
    total drift:                                0.000001      0.000000     -0.021044


--------------------------------------------------------------------------------------------------------



  FREE ENERGIE OF THE ION-ELECTRON SYSTEM (eV)
  ---------------------------------------------------
  free  energy   TOTEN  =      -201.58396433 eV

  energy  without entropy=     -201.57536754  energy(sigma->0) =     -201.58181513
 
 d Force = 0.5749900E-03[ 0.156E-03, 0.994E-03]  d Energy = 0.5896135E-03-0.146E-04
 d Force = 0.2478383E+00[ 0.245E+00, 0.250E+00]  d Ewald  = 0.2478388E+00-0.473E-06


--------------------------------------------------------------------------------------------------------


    POTLOK:  cpu time    0.0380: real time    0.0384


--------------------------------------------------------------------------------------------------------




--------------------------------------------------------------------------------------------------------


  
 reached required accuracy - stopping structural energy minimisation
     LOOP+:  cpu time   50.6529: real time   50.6668
    4ORBIT:  cpu time    0.0000: real time    0.0000

 total amount of memory used by VASP MPI-rank0    66324. kBytes
=======================================================================

   base      :      30000. kBytes
   nonlr-proj:       5777. kBytes
   fftplans  :       2789. kBytes
   grid      :       4365. kBytes
   one-center:         21. kBytes
   wavefun   :      23372. kBytes
 
  
  
 General timing and accounting informations for this job:
 ========================================================
  
                  Total CPU time used (sec):      173.918
                            User time (sec):      172.915
                          System time (sec):        1.003
                         Elapsed time (sec):      174.765
  
                   Maximum memory used (kb):       87448.
                   Average memory used (kb):           0.
  
                          Minor page faults:       120267
                          Major page faults:           11
                 Voluntary context switches:         4895
