<?xml version="1.0" encoding="ISO-8859-1"?>
<modeling>
 <generator>
  <i name="program" type="string">vasp </i>
  <i name="version" type="string">5.4.4.18Apr17-6-g9f103f2a35  </i>
  <i name="subversion" type="string">(build Nov 01 2019 12:17:22) complex            parallel </i>
  <i name="platform" type="string">LinuxIFC </i>
  <i name="date" type="string">2023 05 19 </i>
  <i name="time" type="string">18:21:55 </i>
 </generator>
 <incar>
  <i type="string" name="PREC">accurate</i>
  <i type="string" name="ALGO"> Fast</i>
  <i type="int" name="IBRION">     2</i>
  <i type="int" name="NSW">   100</i>
  <i type="int" name="ISIF">     2</i>
  <i type="string" name="LREAL"> Auto</i>
  <i type="int" name="ISMEAR">     2</i>
  <i name="SIGMA">      0.10000000</i>
  <i type="logical" name="LWAVE"> F  </i>
  <i type="logical" name="LCHARG"> F  </i>
  <v type="int" name="KPOINT_BSE">    -1     0     0     0</v>
 </incar>
 <structure name="primitive_cell" >
  <crystal>
   <varray name="basis" >
    <v>       4.27151656      -7.39848370       0.00000000 </v>
    <v>       4.27151656       7.39848370       0.00000000 </v>
    <v>       0.00000000       0.00000000       5.47394832 </v>
   </varray>
   <i name="volume">    345.98359300 </i>
   <varray name="rec_basis" >
    <v>       0.11705445      -0.06758142       0.00000000 </v>
    <v>       0.11705445       0.06758142       0.00000000 </v>
    <v>       0.00000000       0.00000000       0.18268349 </v>
   </varray>
  </crystal>
  <varray name="positions" >
   <v>       0.00847736      -0.35287377       0.21326215 </v>
   <v>       0.08729345      -0.21311138       0.46674092 </v>
   <v>      -0.08729345      -0.30040483      -0.03325908 </v>
   <v>      -0.06686359       0.41763405       0.28259872 </v>
   <v>      -0.00847736      -0.36135113      -0.28673785 </v>
   <v>      -0.08582195       0.32157747      -0.00812732 </v>
   <v>       0.08582195       0.40739942       0.49187268 </v>
   <v>      -0.32157747      -0.40739942      -0.00812732 </v>
   <v>       0.06686359       0.48449764      -0.21740128 </v>
   <v>       0.32157747      -0.08582195       0.49187268 </v>
   <v>       0.33333333      -0.33333333      -0.02422298 </v>
   <v>      -0.33333333       0.33333333       0.47577702 </v>
   <v>      -0.41763405      -0.48449764       0.28259872 </v>
   <v>       0.00000000       0.00000000       0.45692726 </v>
   <v>       0.00000000       0.00000000      -0.04307274 </v>
   <v>       0.40739942       0.08582195      -0.00812732 </v>
   <v>       0.48449764       0.06686359       0.28259872 </v>
   <v>       0.41763405      -0.06686359      -0.21740128 </v>
   <v>      -0.40739942      -0.32157747       0.49187268 </v>
   <v>       0.21311138       0.30040483       0.46674092 </v>
   <v>      -0.21311138       0.08729345      -0.03325908 </v>
   <v>       0.30040483       0.21311138      -0.03325908 </v>
   <v>      -0.30040483      -0.08729345       0.46674092 </v>
   <v>      -0.48449764      -0.41763405      -0.21740128 </v>
   <v>       0.35287377       0.36135113       0.21326215 </v>
   <v>      -0.36135113      -0.00847736       0.21326215 </v>
   <v>      -0.35287377       0.00847736      -0.28673785 </v>
   <v>       0.36135113       0.35287377      -0.28673785 </v>
  </varray>
 </structure>
 <varray name="primitive_index" >
  <v type="int" >        1 </v>
  <v type="int" >       14 </v>
  <v type="int" >       23 </v>
  <v type="int" >       25 </v>
  <v type="int" >        9 </v>
  <v type="int" >        3 </v>
  <v type="int" >        5 </v>
  <v type="int" >       11 </v>
  <v type="int" >       18 </v>
  <v type="int" >        6 </v>
  <v type="int" >       24 </v>
  <v type="int" >       20 </v>
  <v type="int" >       21 </v>
  <v type="int" >       19 </v>
  <v type="int" >       17 </v>
  <v type="int" >       12 </v>
  <v type="int" >       28 </v>
  <v type="int" >       26 </v>
  <v type="int" >        8 </v>
  <v type="int" >       13 </v>
  <v type="int" >       22 </v>
  <v type="int" >       15 </v>
  <v type="int" >       16 </v>
  <v type="int" >       27 </v>
  <v type="int" >        7 </v>
  <v type="int" >        2 </v>
  <v type="int" >        4 </v>
  <v type="int" >       10 </v>
 </varray>
 <kpoints>
  <generation param="Auto">
   <i name="subdivisionlength">     45.00000000 </i>
   <v type="int" name="divisions">       6        6        8 </v>
   <v name="usershift">      0.00000000       0.00000000       0.00000000 </v>
   <v name="genvec1">      0.16666667      -0.00000000       0.00000000 </v>
   <v name="genvec2">     -0.00000000       0.16666667       0.00000000 </v>
   <v name="genvec3">      0.00000000       0.00000000       0.12500000 </v>
   <v name="shift">      0.00000000       0.00000000       0.00000000 </v>
  </generation>
  <varray name="kpointlist" >
   <v>       0.00000000       0.00000000       0.00000000 </v>
   <v>       0.16666667       0.00000000       0.00000000 </v>
   <v>       0.33333333       0.00000000       0.00000000 </v>
   <v>       0.50000000       0.00000000       0.00000000 </v>
   <v>       0.16666667       0.16666667       0.00000000 </v>
   <v>       0.33333333       0.16666667       0.00000000 </v>
   <v>       0.33333333       0.33333333       0.00000000 </v>
   <v>       0.00000000       0.00000000       0.12500000 </v>
   <v>       0.16666667       0.00000000       0.12500000 </v>
   <v>       0.33333333       0.00000000       0.12500000 </v>
   <v>       0.50000000       0.00000000       0.12500000 </v>
   <v>       0.16666667       0.16666667       0.12500000 </v>
   <v>       0.33333333       0.16666667       0.12500000 </v>
   <v>       0.33333333       0.33333333       0.12500000 </v>
   <v>      -0.16666667       0.33333333       0.12500000 </v>
   <v>      -0.33333333       0.50000000       0.12500000 </v>
   <v>      -0.33333333      -0.33333333       0.12500000 </v>
   <v>       0.00000000       0.00000000       0.25000000 </v>
   <v>       0.16666667       0.00000000       0.25000000 </v>
   <v>       0.33333333       0.00000000       0.25000000 </v>
   <v>       0.50000000       0.00000000       0.25000000 </v>
   <v>       0.16666667       0.16666667       0.25000000 </v>
   <v>       0.33333333       0.16666667       0.25000000 </v>
   <v>       0.33333333       0.33333333       0.25000000 </v>
   <v>      -0.16666667       0.33333333       0.25000000 </v>
   <v>      -0.33333333       0.50000000       0.25000000 </v>
   <v>      -0.33333333      -0.33333333       0.25000000 </v>
   <v>       0.00000000       0.00000000       0.37500000 </v>
   <v>       0.16666667       0.00000000       0.37500000 </v>
   <v>       0.33333333       0.00000000       0.37500000 </v>
   <v>       0.50000000       0.00000000       0.37500000 </v>
   <v>       0.16666667       0.16666667       0.37500000 </v>
   <v>       0.33333333       0.16666667       0.37500000 </v>
   <v>       0.33333333       0.33333333       0.37500000 </v>
   <v>      -0.16666667       0.33333333       0.37500000 </v>
   <v>      -0.33333333       0.50000000       0.37500000 </v>
   <v>      -0.33333333      -0.33333333       0.37500000 </v>
   <v>       0.00000000       0.00000000       0.50000000 </v>
   <v>       0.16666667       0.00000000       0.50000000 </v>
   <v>       0.33333333       0.00000000       0.50000000 </v>
   <v>       0.50000000       0.00000000       0.50000000 </v>
   <v>       0.16666667       0.16666667       0.50000000 </v>
   <v>       0.33333333       0.16666667       0.50000000 </v>
   <v>       0.33333333       0.33333333       0.50000000 </v>
  </varray>
  <varray name="weights" >
   <v>       0.00347222 </v>
   <v>       0.02083333 </v>
   <v>       0.02083333 </v>
   <v>       0.01041667 </v>
   <v>       0.02083333 </v>
   <v>       0.04166667 </v>
   <v>       0.00694444 </v>
   <v>       0.00694444 </v>
   <v>       0.04166667 </v>
   <v>       0.04166667 </v>
   <v>       0.02083333 </v>
   <v>       0.02083333 </v>
   <v>       0.04166667 </v>
   <v>       0.00694444 </v>
   <v>       0.02083333 </v>
   <v>       0.04166667 </v>
   <v>       0.00694444 </v>
   <v>       0.00694444 </v>
   <v>       0.04166667 </v>
   <v>       0.04166667 </v>
   <v>       0.02083333 </v>
   <v>       0.02083333 </v>
   <v>       0.04166667 </v>
   <v>       0.00694444 </v>
   <v>       0.02083333 </v>
   <v>       0.04166667 </v>
   <v>       0.00694444 </v>
   <v>       0.00694444 </v>
   <v>       0.04166667 </v>
   <v>       0.04166667 </v>
   <v>       0.02083333 </v>
   <v>       0.02083333 </v>
   <v>       0.04166667 </v>
   <v>       0.00694444 </v>
   <v>       0.02083333 </v>
   <v>       0.04166667 </v>
   <v>       0.00694444 </v>
   <v>       0.00347222 </v>
   <v>       0.02083333 </v>
   <v>       0.02083333 </v>
   <v>       0.01041667 </v>
   <v>       0.02083333 </v>
   <v>       0.04166667 </v>
   <v>       0.00694444 </v>
  </varray>
 </kpoints>
 <parameters>
  <separator name="general" >
   <i type="string" name="SYSTEM">unknown system</i>
   <i type="logical" name="LCOMPAT"> F  </i>
  </separator>
  <separator name="electronic" >
   <i type="string" name="PREC">accura</i>
   <i name="ENMAX">    400.00000000</i>
   <i name="ENAUG">    627.11200000</i>
   <i name="EDIFF">      0.00010000</i>
   <i type="int" name="IALGO">    68</i>
   <i type="int" name="IWAVPR">    11</i>
   <i type="int" name="NBANDS">    80</i>
   <i name="NELECT">    124.00000000</i>
   <i type="int" name="TURBO">     0</i>
   <i type="int" name="IRESTART">     0</i>
   <i type="int" name="NREBOOT">     0</i>
   <i type="int" name="NMIN">     0</i>
   <i name="EREF">      0.00000000</i>
   <separator name="electronic smearing" >
    <i type="int" name="ISMEAR">     2</i>
    <i name="SIGMA">      0.10000000</i>
    <i name="KSPACING">      0.50000000</i>
    <i type="logical" name="KGAMMA"> T  </i>
   </separator>
   <separator name="electronic projectors" >
    <i type="logical" name="LREAL"> T  </i>
    <v name="ROPT">     -0.00025000     -0.00025000</v>
    <i type="int" name="LMAXPAW">  -100</i>
    <i type="int" name="LMAXMIX">     2</i>
    <i type="logical" name="NLSPLINE"> F  </i>
   </separator>
   <separator name="electronic startup" >
    <i type="int" name="ISTART">     0</i>
    <i type="int" name="ICHARG">     2</i>
    <i type="int" name="INIWAV">     1</i>
   </separator>
   <separator name="electronic spin" >
    <i type="int" name="ISPIN">     1</i>
    <i type="logical" name="LNONCOLLINEAR"> F  </i>
    <v name="MAGMOM">      1.00000000      1.00000000      1.00000000      1.00000000      1.00000000      1.00000000      1.00000000      1.00000000      1.00000000      1.00000000      1.00000000      1.00000000      1.00000000      1.00000000      1.00000000      1.00000000      1.00000000      1.00000000      1.00000000      1.00000000
      1.00000000      1.00000000      1.00000000      1.00000000      1.00000000      1.00000000      1.00000000      1.00000000</v>
    <i name="NUPDOWN">     -1.00000000</i>
    <i type="logical" name="LSORBIT"> F  </i>
    <v name="SAXIS">      0.00000000      0.00000000      1.00000000</v>
    <i type="logical" name="LSPIRAL"> F  </i>
    <v name="QSPIRAL">      0.00000000      0.00000000      0.00000000</v>
    <i type="logical" name="LZEROZ"> F  </i>
   </separator>
   <separator name="electronic exchange-correlation" >
    <i type="logical" name="LASPH"> F  </i>
    <i type="logical" name="LMETAGGA"> F  </i>
   </separator>
   <separator name="electronic convergence" >
    <i type="int" name="NELM">    60</i>
    <i type="int" name="NELMDL">    -5</i>
    <i type="int" name="NELMIN">     2</i>
    <i name="ENINI">    400.00000000</i>
    <separator name="electronic convergence detail" >
     <i type="logical" name="LDIAG"> T  </i>
     <i type="logical" name="LSUBROT"> F  </i>
     <i name="WEIMIN">      0.00100000</i>
     <i name="EBREAK">      0.00000031</i>
     <i name="DEPER">      0.30000000</i>
     <i type="int" name="NRMM">     4</i>
     <i name="TIME">      0.40000000</i>
    </separator>
   </separator>
   <separator name="electronic mixer" >
    <i name="AMIX">      0.40000000</i>
    <i name="BMIX">      1.00000000</i>
    <i name="AMIN">      0.10000000</i>
    <i name="AMIX_MAG">      1.60000000</i>
    <i name="BMIX_MAG">      1.00000000</i>
    <separator name="electronic mixer details" >
     <i type="int" name="IMIX">     4</i>
     <i type="logical" name="MIXFIRST"> F  </i>
     <i type="int" name="MAXMIX">   -45</i>
     <i name="WC">    100.00000000</i>
     <i type="int" name="INIMIX">     1</i>
     <i type="int" name="MIXPRE">     1</i>
     <i type="int" name="MREMOVE">     5</i>
    </separator>
   </separator>
   <separator name="electronic dipolcorrection" >
    <i type="logical" name="LDIPOL"> F  </i>
    <i type="logical" name="LMONO"> F  </i>
    <i type="int" name="IDIPOL">     0</i>
    <i name="EPSILON">      1.00000000</i>
    <v name="DIPOL">   -100.00000000   -100.00000000   -100.00000000</v>
    <i name="EFIELD">      0.00000000</i>
   </separator>
  </separator>
  <separator name="grids" >
   <i type="int" name="NGX">    56</i>
   <i type="int" name="NGY">    56</i>
   <i type="int" name="NGZ">    36</i>
   <i type="int" name="NGXF">   112</i>
   <i type="int" name="NGYF">   112</i>
   <i type="int" name="NGZF">    72</i>
   <i type="logical" name="ADDGRID"> F  </i>
  </separator>
  <separator name="ionic" >
   <i type="int" name="NSW">   100</i>
   <i type="int" name="IBRION">     2</i>
   <i type="int" name="MDALGO">     0</i>
   <i type="int" name="ISIF">     2</i>
   <i name="PSTRESS">      0.00000000</i>
   <i name="EDIFFG">      0.00100000</i>
   <i type="int" name="NFREE">     1</i>
   <i name="POTIM">      0.50000000</i>
   <i name="SMASS">     -3.00000000</i>
   <i name="SCALEE">      1.00000000</i>
  </separator>
  <separator name="ionic md" >
   <i name="TEBEG">      0.00010000</i>
   <i name="TEEND">      0.00010000</i>
   <i type="int" name="NBLOCK">     1</i>
   <i type="int" name="KBLOCK">   100</i>
   <i type="int" name="NPACO">   256</i>
   <i name="APACO">     16.00000000</i>
  </separator>
  <separator name="symmetry" >
   <i type="int" name="ISYM">     2</i>
   <i name="SYMPREC">      0.00001000</i>
  </separator>
  <separator name="dos" >
   <i type="int" name="LORBIT">     0</i>
   <v name="RWIGS">     -1.00000000     -1.00000000</v>
   <i type="int" name="NEDOS">   301</i>
   <i name="EMIN">     10.00000000</i>
   <i name="EMAX">    -10.00000000</i>
   <i name="EFERMI">      0.00000000</i>
  </separator>
  <separator name="writing" >
   <i type="int" name="NWRITE">     2</i>
   <i type="logical" name="LWAVE"> F  </i>
   <i type="logical" name="LDOWNSAMPLE"> F  </i>
   <i type="logical" name="LCHARG"> F  </i>
   <i type="logical" name="LPARD"> F  </i>
   <i type="logical" name="LVTOT"> F  </i>
   <i type="logical" name="LVHAR"> F  </i>
   <i type="logical" name="LELF"> F  </i>
   <i type="logical" name="LOPTICS"> F  </i>
   <v name="STM">      0.00000000      0.00000000      0.00000000      0.00000000      0.00000000      0.00000000      0.00000000</v>
  </separator>
  <separator name="performance" >
   <i type="int" name="NPAR">     4</i>
   <i type="int" name="NSIM">     4</i>
   <i type="int" name="NBLK">    -1</i>
   <i type="logical" name="LPLANE"> T  </i>
   <i type="logical" name="LSCALAPACK"> F  </i>
   <i type="logical" name="LSCAAWARE"> F  </i>
   <i type="logical" name="LSCALU"> F  </i>
   <i type="logical" name="LASYNC"> F  </i>
   <i type="logical" name="LORBITALREAL"> F  </i>
  </separator>
  <separator name="miscellaneous" >
   <i type="int" name="IDIOT">     3</i>
   <i type="int" name="ISPECIAL">     0</i>
   <i type="logical" name="LMUSIC"> F  </i>
   <v name="POMASS">     14.00100000     28.08500000</v>
   <v name="DARWINR">      0.00000000      0.00000000</v>
   <v name="DARWINV">      1.00000000      1.00000000</v>
   <i type="logical" name="LCORR"> T  </i>
  </separator>
  <i type="logical" name="GGA_COMPAT"> T  </i>
  <i type="logical" name="LBERRY"> F  </i>
  <i type="int" name="ICORELEVEL">     0</i>
  <i type="logical" name="LDAU"> F  </i>
  <i type="int" name="I_CONSTRAINED_M">     0</i>
  <separator name="electronic exchange-correlation" >
   <i type="string" name="GGA">--</i>
   <i type="int" name="VOSKOWN">     0</i>
   <i type="logical" name="LHFCALC"> F  </i>
   <i type="string" name="PRECFOCK"></i>
   <i type="logical" name="LSYMGRAD"> F  </i>
   <i type="logical" name="LHFONE"> F  </i>
   <i type="logical" name="LRHFCALC"> F  </i>
   <i type="logical" name="LTHOMAS"> F  </i>
   <i type="logical" name="LMODELHF"> F  </i>
   <i name="ENCUT4O">     -1.00000000</i>
   <i type="int" name="EXXOEP">     0</i>
   <i type="int" name="FOURORBIT">     0</i>
   <i name="AEXX">      0.00000000</i>
   <i name="HFALPHA">      0.00000000</i>
   <i name="MCALPHA">      0.00000000</i>
   <i name="ALDAX">      1.00000000</i>
   <i name="AGGAX">      1.00000000</i>
   <i name="ALDAC">      1.00000000</i>
   <i name="AGGAC">      1.00000000</i>
   <i type="int" name="NKREDX">     1</i>
   <i type="int" name="NKREDY">     1</i>
   <i type="int" name="NKREDZ">     1</i>
   <i type="logical" name="SHIFTRED"> F  </i>
   <i type="logical" name="ODDONLY"> F  </i>
   <i type="logical" name="EVENONLY"> F  </i>
   <i type="int" name="LMAXFOCK">     0</i>
   <i type="int" name="NMAXFOCKAE">     0</i>
   <i type="logical" name="LFOCKAEDFT"> F  </i>
   <i name="HFSCREEN">      0.00000000</i>
   <i name="HFSCREENC">      0.00000000</i>
   <i type="int" name="NBANDSGWLOW">     0</i>
  </separator>
  <separator name="vdW DFT" >
   <i type="logical" name="LUSE_VDW"> F  </i>
   <i name="Zab_VDW">     -0.84910000</i>
   <i name="PARAM1">      0.12340000</i>
   <i name="PARAM2">      1.00000000</i>
   <i name="PARAM3">      0.00000000</i>
  </separator>
  <separator name="model GW" >
   <i type="int" name="MODEL_GW">     0</i>
   <i name="MODEL_EPS0">      7.41393414</i>
   <i name="MODEL_ALPHA">      1.00000000</i>
  </separator>
  <separator name="linear response parameters" >
   <i type="logical" name="LEPSILON"> F  </i>
   <i type="logical" name="LRPA"> F  </i>
   <i type="logical" name="LNABLA"> F  </i>
   <i type="logical" name="LVEL"> F  </i>
   <i type="int" name="KINTER">     0</i>
   <i name="CSHIFT">      0.10000000</i>
   <i name="OMEGAMAX">     -1.00000000</i>
   <i name="DEG_THRESHOLD">      0.00200000</i>
   <i name="RTIME">     -0.10000000</i>
   <i name="WPLASMAI">      0.00000000</i>
   <v name="DFIELD">      0.00000000      0.00000000      0.00000000</v>
   <v name="WPLASMA">      0.00000000      0.00000000      0.00000000      0.00000000      0.00000000      0.00000000      0.00000000      0.00000000      0.00000000</v>
  </separator>
  <separator name="orbital magnetization" >
   <i type="logical" name="NUCIND"> F  </i>
   <v name="MAGPOS">      0.00000000      0.00000000      0.00000000</v>
   <i type="logical" name="LNICSALL"> T  </i>
   <i type="logical" name="ORBITALMAG"> F  </i>
   <i type="logical" name="LMAGBLOCH"> F  </i>
   <i type="logical" name="LCHIMAG"> F  </i>
   <i type="logical" name="LGAUGE"> T  </i>
   <i type="int" name="MAGATOM">     0</i>
   <v name="MAGDIPOL">      0.00000000      0.00000000      0.00000000</v>
   <v name="AVECCONST">      0.00000000      0.00000000      0.00000000</v>
  </separator>
  <separator name="response functions" >
   <i type="logical" name="LADDER"> F  </i>
   <i type="logical" name="LRPAFORCE"> F  </i>
   <i type="logical" name="LFXC"> F  </i>
   <i type="logical" name="LHARTREE"> T  </i>
   <i type="int" name="IBSE">     0</i>
   <v type="int" name="KPOINT">    -1     0     0     0</v>
   <i type="logical" name="LTCTE"> F  </i>
   <i type="logical" name="LTETE"> F  </i>
   <i type="logical" name="LTRIPLET"> F  </i>
   <i type="logical" name="LFXCEPS"> F  </i>
   <i type="logical" name="LFXHEG"> F  </i>
   <i type="int" name="NATURALO">     2</i>
   <i type="logical" name="L2ORDER"> F  </i>
   <i type="logical" name="LMP2LT"> F  </i>
   <i type="logical" name="LUSEW"> F  </i>
   <i name="ENCUTGW">     -2.00000000</i>
   <i name="ENCUTGWSOFT">     -2.00000000</i>
   <i name="ENCUTLF">     -1.00000000</i>
   <i type="int" name="LMAXMP2">    -1</i>
   <i name="SCISSOR">      0.00000000</i>
   <i type="int" name="NOMEGA">     0</i>
   <i type="int" name="NOMEGAR">     0</i>
   <i type="int" name="NBANDSGW">    -1</i>
   <i type="int" name="NBANDSO">    -1</i>
   <i type="int" name="NBANDSV">    -1</i>
   <i type="int" name="NELM">     1</i>
   <i type="int" name="NELMHF">     1</i>
   <i type="int" name="DIM">     3</i>
   <i type="int" name="ANTIRES">     0</i>
   <i name="OMEGAMAX">    -30.00000000</i>
   <i name="OMEGAMIN">    -30.00000000</i>
   <i name="OMEGATL">   -200.00000000</i>
   <i type="int" name="OMEGAGRID">   140</i>
   <i name="CSHIFT">     -0.10000000</i>
   <i type="logical" name="SELFENERGY"> F  </i>
   <i type="logical" name="LSPECTRAL"> F  </i>
   <i type="logical" name="LSPECTRALGW"> F  </i>
   <i type="logical" name="LSINGLES"> F  </i>
   <i type="logical" name="LFERMIGW"> F  </i>
   <i type="logical" name="ODDONLYGW"> F  </i>
   <i type="logical" name="EVENONLYGW"> F  </i>
   <i type="int" name="NKREDLFX">     1</i>
   <i type="int" name="NKREDLFY">     1</i>
   <i type="int" name="NKREDLFZ">     1</i>
   <i type="int" name="MAXMEM">  2800</i>
   <i type="int" name="TELESCOPE">     0</i>
   <i type="int" name="TAUPAR">     1</i>
   <i type="int" name="OMEGAPAR">    -1</i>
   <i name="LAMBDA">      1.00000000</i>
  </separator>
  <separator name="External order field" >
   <i name="OFIELD_KAPPA">      0.00000000</i>
   <v name="OFIELD_K">      0.00000000      0.00000000      0.00000000</v>
   <i name="OFIELD_Q6_NEAR">      0.00000000</i>
   <i name="OFIELD_Q6_FAR">      0.00000000</i>
   <i name="OFIELD_A">      0.00000000</i>
  </separator>
 </parameters>
 <atominfo>
  <atoms>      28 </atoms>
  <types>       2 </types>
  <array name="atoms" >
   <dimension dim="1">ion</dimension>
   <field type="string">element</field>
   <field type="int">atomtype</field>
   <set>
    <rc><c>N </c><c>   1</c></rc>
    <rc><c>N </c><c>   1</c></rc>
    <rc><c>N </c><c>   1</c></rc>
    <rc><c>N </c><c>   1</c></rc>
    <rc><c>N </c><c>   1</c></rc>
    <rc><c>N </c><c>   1</c></rc>
    <rc><c>N </c><c>   1</c></rc>
    <rc><c>N </c><c>   1</c></rc>
    <rc><c>N </c><c>   1</c></rc>
    <rc><c>N </c><c>   1</c></rc>
    <rc><c>N </c><c>   1</c></rc>
    <rc><c>N </c><c>   1</c></rc>
    <rc><c>Si</c><c>   2</c></rc>
    <rc><c>Si</c><c>   2</c></rc>
    <rc><c>Si</c><c>   2</c></rc>
    <rc><c>Si</c><c>   2</c></rc>
    <rc><c>Si</c><c>   2</c></rc>
    <rc><c>Si</c><c>   2</c></rc>
    <rc><c>Si</c><c>   2</c></rc>
    <rc><c>Si</c><c>   2</c></rc>
    <rc><c>Si</c><c>   2</c></rc>
    <rc><c>Si</c><c>   2</c></rc>
    <rc><c>Si</c><c>   2</c></rc>
    <rc><c>Si</c><c>   2</c></rc>
    <rc><c>Si</c><c>   2</c></rc>
    <rc><c>Si</c><c>   2</c></rc>
    <rc><c>Si</c><c>   2</c></rc>
    <rc><c>Si</c><c>   2</c></rc>
   </set>
  </array>
  <array name="atomtypes" >
   <dimension dim="1">type</dimension>
   <field type="int">atomspertype</field>
   <field type="string">element</field>
   <field>mass</field>
   <field>valence</field>
   <field type="string">pseudopotential</field>
   <set>
    <rc><c>  12</c><c>N </c><c>     14.00100000</c><c>      5.00000000</c><c>  PAW_PBE N 08Apr2002                   </c></rc>
    <rc><c>  16</c><c>Si</c><c>     28.08500000</c><c>      4.00000000</c><c>  PAW_PBE Si 05Jan2001                  </c></rc>
   </set>
  </array>
 </atominfo>
 <structure name="initialpos" >
  <crystal>
   <varray name="basis" >
    <v>       4.27151656      -7.39848370       0.00000000 </v>
    <v>       4.27151656       7.39848370       0.00000000 </v>
    <v>       0.00000000       0.00000000       5.47394832 </v>
   </varray>
   <i name="volume">    345.98359300 </i>
   <varray name="rec_basis" >
    <v>       0.11705445      -0.06758142       0.00000000 </v>
    <v>       0.11705445       0.06758142       0.00000000 </v>
    <v>       0.00000000       0.00000000       0.18268349 </v>
   </varray>
  </crystal>
  <varray name="positions" >
   <v>       0.00847736       0.64712623       0.21326215 </v>
   <v>       0.63864887       0.99152264       0.21326215 </v>
   <v>       0.91417805       0.32157747       0.99187268 </v>
   <v>       0.64712623       0.00847736       0.71326215 </v>
   <v>       0.08582195       0.40739942       0.49187268 </v>
   <v>       0.32157747       0.91417805       0.49187268 </v>
   <v>       0.35287377       0.36135113       0.21326215 </v>
   <v>       0.59260058       0.67842253       0.49187268 </v>
   <v>       0.99152264       0.63864887       0.71326215 </v>
   <v>       0.36135113       0.35287377       0.71326215 </v>
   <v>       0.67842253       0.59260058       0.99187268 </v>
   <v>       0.40739942       0.08582195       0.99187268 </v>
   <v>       0.21311138       0.30040483       0.46674092 </v>
   <v>       0.08729345       0.78688862       0.46674092 </v>
   <v>       0.30040483       0.21311138       0.96674092 </v>
   <v>       0.69959517       0.91270655       0.46674092 </v>
   <v>       0.00000000       0.00000000       0.95692726 </v>
   <v>       0.06686359       0.48449764       0.78259872 </v>
   <v>       0.00000000       0.00000000       0.45692726 </v>
   <v>       0.66666667       0.33333333       0.47577702 </v>
   <v>       0.58236595       0.51550236       0.28259872 </v>
   <v>       0.78688862       0.08729345       0.96674092 </v>
   <v>       0.91270655       0.69959517       0.96674092 </v>
   <v>       0.33333333       0.66666667       0.97577702 </v>
   <v>       0.93313641       0.41763405       0.28259872 </v>
   <v>       0.41763405       0.93313641       0.78259872 </v>
   <v>       0.51550236       0.58236595       0.78259872 </v>
   <v>       0.48449764       0.06686359       0.28259872 </v>
  </varray>
 </structure>
 <calculation>
  <scstep>
   <time name="dav">    6.15    6.16</time>
   <time name="total">    6.39    6.39</time>
   <energy>
    <i name="alphaZ">    140.93765575 </i>
    <i name="ewald">  -4241.03047376 </i>
    <i name="hartreedc">  -1070.54790337 </i>
    <i name="XCdc">     99.15692089 </i>
    <i name="pawpsdc">   3869.17357318 </i>
    <i name="pawaedc">  -3601.97287308 </i>
    <i name="eentropy">      0.00298062 </i>
    <i name="bandstr">    456.93774471 </i>
    <i name="atom">   4822.75196862 </i>
    <i name="e_fr_energy">    475.40959356 </i>
    <i name="e_wo_entrp">    475.40661293 </i>
    <i name="e_0_energy">    475.40884840 </i>
   </energy>
  </scstep>
  <scstep>
   <time name="dav">    7.01    7.01</time>
   <time name="total">    7.02    7.02</time>
   <energy>
    <i name="e_fr_energy">   -174.11152135 </i>
    <i name="e_wo_entrp">   -174.10841843 </i>
    <i name="e_0_energy">   -174.11074562 </i>
   </energy>
  </scstep>
  <scstep>
   <time name="dav">    6.92    6.92</time>
   <time name="total">    6.93    6.93</time>
   <energy>
    <i name="e_fr_energy">   -225.24851783 </i>
    <i name="e_wo_entrp">   -225.22443441 </i>
    <i name="e_0_energy">   -225.24249697 </i>
   </energy>
  </scstep>
  <scstep>
   <time name="dav">    7.16    7.16</time>
   <time name="total">    7.16    7.16</time>
   <energy>
    <i name="e_fr_energy">   -226.43345231 </i>
    <i name="e_wo_entrp">   -226.40616915 </i>
    <i name="e_0_energy">   -226.42663152 </i>
   </energy>
  </scstep>
  <scstep>
   <time name="dav">    7.31    7.31</time>
   <time name="total">    7.64    7.64</time>
   <energy>
    <i name="e_fr_energy">   -226.46173662 </i>
    <i name="e_wo_entrp">   -226.43442525 </i>
    <i name="e_0_energy">   -226.45490878 </i>
   </energy>
  </scstep>
  <scstep>
   <time name="diag">    0.90    0.90</time>
   <time name="diis">    3.98    3.98</time>
   <time name="orth">    0.10    0.10</time>
   <time name="total">    5.33    5.33</time>
   <energy>
    <i name="e_fr_energy">   -202.28410287 </i>
    <i name="e_wo_entrp">   -202.28046617 </i>
    <i name="e_0_energy">   -202.28319369 </i>
   </energy>
  </scstep>
  <scstep>
   <time name="diag">    0.90    0.90</time>
   <time name="diis">    3.87    3.87</time>
   <time name="orth">    0.09    0.09</time>
   <time name="total">    5.22    5.22</time>
   <energy>
    <i name="e_fr_energy">   -201.79769131 </i>
    <i name="e_wo_entrp">   -201.78903331 </i>
    <i name="e_0_energy">   -201.79552681 </i>
   </energy>
  </scstep>
  <scstep>
   <time name="diag">    0.87    0.87</time>
   <time name="diis">    3.81    3.81</time>
   <time name="orth">    0.09    0.09</time>
   <time name="total">    5.14    5.14</time>
   <energy>
    <i name="e_fr_energy">   -201.62642986 </i>
    <i name="e_wo_entrp">   -201.62299925 </i>
    <i name="e_0_energy">   -201.62557220 </i>
   </energy>
  </scstep>
  <scstep>
   <time name="diag">    0.91    0.91</time>
   <time name="diis">    3.96    3.96</time>
   <time name="orth">    0.09    0.09</time>
   <time name="total">    5.31    5.31</time>
   <energy>
    <i name="e_fr_energy">   -201.59196609 </i>
    <i name="e_wo_entrp">   -201.58260187 </i>
    <i name="e_0_energy">   -201.58962503 </i>
   </energy>
  </scstep>
  <scstep>
   <time name="diag">    0.90    0.90</time>
   <time name="diis">    3.96    3.96</time>
   <time name="orth">    0.09    0.09</time>
   <time name="total">    5.30    5.30</time>
   <energy>
    <i name="e_fr_energy">   -201.58561075 </i>
    <i name="e_wo_entrp">   -201.57853730 </i>
    <i name="e_0_energy">   -201.58384239 </i>
   </energy>
  </scstep>
  <scstep>
   <time name="diag">    0.88    0.88</time>
   <time name="diis">    3.97    3.97</time>
   <time name="orth">    0.09    0.09</time>
   <time name="total">    5.30    5.30</time>
   <energy>
    <i name="e_fr_energy">   -201.58383513 </i>
    <i name="e_wo_entrp">   -201.57498736 </i>
    <i name="e_0_energy">   -201.58162319 </i>
   </energy>
  </scstep>
  <scstep>
   <time name="diag">    0.90    0.90</time>
   <time name="diis">    4.00    4.00</time>
   <time name="orth">    0.09    0.09</time>
   <time name="total">    5.35    5.35</time>
   <energy>
    <i name="e_fr_energy">   -201.58348257 </i>
    <i name="e_wo_entrp">   -201.57539294 </i>
    <i name="e_0_energy">   -201.58146017 </i>
   </energy>
  </scstep>
  <scstep>
   <time name="diag">    0.87    0.87</time>
   <time name="diis">    3.12    3.12</time>
   <time name="orth">    0.09    0.09</time>
   <time name="total">    4.43    4.43</time>
   <energy>
    <i name="e_fr_energy">   -201.58328859 </i>
    <i name="e_wo_entrp">   -201.57469455 </i>
    <i name="e_0_energy">   -201.58114008 </i>
   </energy>
  </scstep>
  <scstep>
   <time name="diag">    0.87    0.87</time>
   <time name="diis">    2.45    2.45</time>
   <time name="orth">    0.09    0.09</time>
   <time name="total">    3.58    3.72</time>
   <energy>
    <i name="alphaZ">    140.93765575 </i>
    <i name="ewald">  -4241.03047376 </i>
    <i name="hartreedc">  -1288.74774532 </i>
    <i name="XCdc">    116.62486583 </i>
    <i name="pawpsdc">  17745.99396807 </i>
    <i name="pawaedc"> -17483.57678713 </i>
    <i name="eentropy">     -0.00856635 </i>
    <i name="bandstr">    -14.52815760 </i>
    <i name="atom">   4822.75196862 </i>
    <i name="e_fr_energy">   -201.58327187 </i>
    <i name="e_wo_entrp">   -201.57470552 </i>
    <i name="e_0_energy">   -201.58113028 </i>
   </energy>
  </scstep>
  <structure>
   <crystal>
    <varray name="basis" >
     <v>       4.27151656      -7.39848370       0.00000000 </v>
     <v>       4.27151656       7.39848370       0.00000000 </v>
     <v>       0.00000000       0.00000000       5.47394832 </v>
    </varray>
    <i name="volume">    345.98359300 </i>
    <varray name="rec_basis" >
     <v>       0.11705445      -0.06758142       0.00000000 </v>
     <v>       0.11705445       0.06758142       0.00000000 </v>
     <v>       0.00000000       0.00000000       0.18268349 </v>
    </varray>
   </crystal>
   <varray name="positions" >
    <v>       0.00847736       0.64712623       0.21326215 </v>
    <v>       0.63864887       0.99152264       0.21326215 </v>
    <v>       0.91417805       0.32157747       0.99187268 </v>
    <v>       0.64712623       0.00847736       0.71326215 </v>
    <v>       0.08582195       0.40739942       0.49187268 </v>
    <v>       0.32157747       0.91417805       0.49187268 </v>
    <v>       0.35287377       0.36135113       0.21326215 </v>
    <v>       0.59260058       0.67842253       0.49187268 </v>
    <v>       0.99152264       0.63864887       0.71326215 </v>
    <v>       0.36135113       0.35287377       0.71326215 </v>
    <v>       0.67842253       0.59260058       0.99187268 </v>
    <v>       0.40739942       0.08582195       0.99187268 </v>
    <v>       0.21311138       0.30040483       0.46674092 </v>
    <v>       0.08729345       0.78688862       0.46674092 </v>
    <v>       0.30040483       0.21311138       0.96674092 </v>
    <v>       0.69959517       0.91270655       0.46674092 </v>
    <v>       0.00000000       0.00000000       0.95692726 </v>
    <v>       0.06686359       0.48449764       0.78259872 </v>
    <v>       0.00000000       0.00000000       0.45692726 </v>
    <v>       0.66666667       0.33333333       0.47577702 </v>
    <v>       0.58236595       0.51550236       0.28259872 </v>
    <v>       0.78688862       0.08729345       0.96674092 </v>
    <v>       0.91270655       0.69959517       0.96674092 </v>
    <v>       0.33333333       0.66666667       0.97577702 </v>
    <v>       0.93313641       0.41763405       0.28259872 </v>
    <v>       0.41763405       0.93313641       0.78259872 </v>
    <v>       0.51550236       0.58236595       0.78259872 </v>
    <v>       0.48449764       0.06686359       0.28259872 </v>
   </varray>
  </structure>
  <varray name="forces" >
   <v>       0.00512355       0.05549242      -0.02165272 </v>
   <v>       0.04549607      -0.03218333      -0.02165272 </v>
   <v>       0.02055429       0.03238296       0.03153126 </v>
   <v>       0.00512355      -0.05549242      -0.02165272 </v>
   <v>       0.01776732       0.03399202       0.03153126 </v>
   <v>       0.02055429      -0.03238296       0.03153126 </v>
   <v>      -0.05061962      -0.02330908      -0.02165272 </v>
   <v>      -0.03832162      -0.00160906       0.03153126 </v>
   <v>       0.04549607       0.03218333      -0.02165272 </v>
   <v>      -0.05061962       0.02330908      -0.02165272 </v>
   <v>      -0.03832162       0.00160906       0.03153126 </v>
   <v>       0.01776732      -0.03399202       0.03153126 </v>
   <v>       0.02889436      -0.03464956      -0.00137364 </v>
   <v>      -0.04445458      -0.00769847      -0.00137364 </v>
   <v>       0.02889436       0.03464956      -0.00137364 </v>
   <v>       0.01556022       0.04234803      -0.00137364 </v>
   <v>      -0.00000000       0.00000000       0.01550444 </v>
   <v>      -0.00627994      -0.02480315      -0.00772860 </v>
   <v>      -0.00000000      -0.00000000       0.01550444 </v>
   <v>      -0.00000000      -0.00000000      -0.01783336 </v>
   <v>       0.02462013      -0.00696299      -0.00772860 </v>
   <v>      -0.04445458       0.00769847      -0.00137364 </v>
   <v>       0.01556022      -0.04234803      -0.00137364 </v>
   <v>      -0.00000000       0.00000000      -0.01783336 </v>
   <v>      -0.01834019      -0.01784017      -0.00772860 </v>
   <v>      -0.01834019       0.01784017      -0.00772860 </v>
   <v>       0.02462013       0.00696299      -0.00772860 </v>
   <v>      -0.00627994       0.02480315      -0.00772860 </v>
  </varray>
  <varray name="stress" >
   <v>      55.26772637       0.00000000      -0.00000000 </v>
   <v>       0.00000000      55.26772637       0.00000000 </v>
   <v>      -0.00000000      -0.00000000      11.31369730 </v>
  </varray>
  <energy>
   <i name="e_fr_energy">   -201.58327187 </i>
   <i name="e_wo_entrp">   -201.58113028 </i>
   <i name="e_0_energy">     -0.00856635 </i>
  </energy>
  <time name="totalsc">   88.71   89.06</time>
 </calculation>
 <calculation>
  <scstep>
   <time name="dav">    7.07    7.07</time>
   <time name="total">    7.43    7.43</time>
   <energy>
    <i name="alphaZ">    140.93765575 </i>
    <i name="ewald">  -4240.49375771 </i>
    <i name="hartreedc">  -1289.11842160 </i>
    <i name="XCdc">    116.63680259 </i>
    <i name="pawpsdc">  17748.07841182 </i>
    <i name="pawaedc"> -17485.66148528 </i>
    <i name="eentropy">     -0.00876364 </i>
    <i name="bandstr">    -14.70520799 </i>
    <i name="atom">   4822.75196862 </i>
    <i name="e_fr_energy">   -201.58279745 </i>
    <i name="e_wo_entrp">   -201.57403381 </i>
    <i name="e_0_energy">   -201.58060654 </i>
   </energy>
  </scstep>
  <scstep>
   <time name="diag">    0.90    0.90</time>
   <time name="diis">    3.98    3.97</time>
   <time name="orth">    0.09    0.09</time>
   <time name="total">    5.32    5.32</time>
   <energy>
    <i name="e_fr_energy">   -201.58362715 </i>
    <i name="e_wo_entrp">   -201.57505047 </i>
    <i name="e_0_energy">   -201.58148298 </i>
   </energy>
  </scstep>
  <scstep>
   <time name="diag">    0.90    0.90</time>
   <time name="diis">    3.11    3.11</time>
   <time name="orth">    0.10    0.10</time>
   <time name="total">    4.46    4.47</time>
   <energy>
    <i name="e_fr_energy">   -201.58345975 </i>
    <i name="e_wo_entrp">   -201.57469889 </i>
    <i name="e_0_energy">   -201.58126954 </i>
   </energy>
  </scstep>
  <scstep>
   <time name="diag">    0.90    0.90</time>
   <time name="diis">    2.59    2.59</time>
   <time name="orth">    0.09    0.09</time>
   <time name="total">    3.62    3.62</time>
   <energy>
    <i name="alphaZ">    140.93765575 </i>
    <i name="ewald">  -4240.49375771 </i>
    <i name="hartreedc">  -1289.21975734 </i>
    <i name="XCdc">    116.64307810 </i>
    <i name="pawpsdc">  17755.69642518 </i>
    <i name="pawaedc"> -17493.28238197 </i>
    <i name="eentropy">     -0.00864544 </i>
    <i name="bandstr">    -14.60795990 </i>
    <i name="atom">   4822.75196862 </i>
    <i name="e_fr_energy">   -201.58337471 </i>
    <i name="e_wo_entrp">   -201.57472927 </i>
    <i name="e_0_energy">   -201.58121335 </i>
   </energy>
  </scstep>
  <structure>
   <crystal>
    <varray name="basis" >
     <v>       4.27151656      -7.39848370       0.00000000 </v>
     <v>       4.27151656       7.39848370       0.00000000 </v>
     <v>       0.00000000       0.00000000       5.47394832 </v>
    </varray>
    <i name="volume">    345.98359300 </i>
    <varray name="rec_basis" >
     <v>       0.11705445      -0.06758142       0.00000000 </v>
     <v>       0.11705445       0.06758142       0.00000000 </v>
     <v>       0.00000000       0.00000000       0.18268349 </v>
    </varray>
   </crystal>
   <varray name="positions" >
    <v>       0.00832537       0.64733609       0.21307132 </v>
    <v>       0.63901072       0.99167463       0.21307132 </v>
    <v>       0.91418855       0.32179912       0.99215057 </v>
    <v>       0.64733609       0.00832537       0.71307132 </v>
    <v>       0.08581145       0.40761057       0.49215057 </v>
    <v>       0.32179912       0.91418855       0.49215057 </v>
    <v>       0.35266391       0.36098928       0.21307132 </v>
    <v>       0.59238943       0.67820088       0.49215057 </v>
    <v>       0.99167463       0.63901072       0.71307132 </v>
    <v>       0.36098928       0.35266391       0.71307132 </v>
    <v>       0.67820088       0.59238943       0.99215057 </v>
    <v>       0.40761057       0.08581145       0.99215057 </v>
    <v>       0.21338752       0.30045503       0.46672881 </v>
    <v>       0.08706751       0.78661248       0.46672881 </v>
    <v>       0.30045503       0.21338752       0.96672881 </v>
    <v>       0.69954497       0.91293249       0.46672881 </v>
    <v>      -0.00000000      -0.00000000       0.95706390 </v>
    <v>       0.06690899       0.48438131       0.78253061 </v>
    <v>      -0.00000000      -0.00000000       0.45706390 </v>
    <v>       0.66666667       0.33333333       0.47561985 </v>
    <v>       0.58252769       0.51561869       0.28253061 </v>
    <v>       0.78661248       0.08706751       0.96672881 </v>
    <v>       0.91293249       0.69954497       0.96672881 </v>
    <v>       0.33333333       0.66666667       0.97561985 </v>
    <v>       0.93309101       0.41747231       0.28253061 </v>
    <v>       0.41747231       0.93309101       0.78253061 </v>
    <v>       0.51561869       0.58252769       0.78253061 </v>
    <v>       0.48438131       0.06690899       0.28253061 </v>
   </varray>
  </structure>
  <varray name="forces" >
   <v>      -0.02898784      -0.02525943       0.02254119 </v>
   <v>      -0.00738139       0.03773393       0.02254119 </v>
   <v>      -0.04065876      -0.01110331      -0.02245093 </v>
   <v>      -0.02898784       0.02525943       0.02254119 </v>
   <v>       0.01071363      -0.04076318      -0.02245093 </v>
   <v>      -0.04065876       0.01110331      -0.02245093 </v>
   <v>       0.03636923      -0.01247449       0.02254119 </v>
   <v>       0.02994513       0.02965986      -0.02245093 </v>
   <v>      -0.00738139      -0.03773393       0.02254119 </v>
   <v>       0.03636923       0.01247449       0.02254119 </v>
   <v>       0.02994513      -0.02965986      -0.02245093 </v>
   <v>       0.01071363       0.04076318      -0.02245093 </v>
   <v>      -0.03660568       0.04770442      -0.02049772 </v>
   <v>       0.05961608       0.00784924      -0.02049772 </v>
   <v>      -0.03660568      -0.04770442      -0.02049772 </v>
   <v>      -0.02301040      -0.05555366      -0.02049772 </v>
   <v>      -0.00000000       0.00000000       0.01399105 </v>
   <v>       0.01055618       0.03299116       0.01879237 </v>
   <v>      -0.00000000       0.00000000       0.01399105 </v>
   <v>      -0.00000000       0.00000000      -0.00914582 </v>
   <v>      -0.03384928       0.00735366       0.01879237 </v>
   <v>       0.05961608      -0.00784924      -0.02049772 </v>
   <v>      -0.02301040       0.05555366      -0.02049772 </v>
   <v>      -0.00000000       0.00000000      -0.00914582 </v>
   <v>       0.02329309       0.02563750       0.01879237 </v>
   <v>       0.02329309      -0.02563750       0.01879237 </v>
   <v>      -0.03384928      -0.00735366       0.01879237 </v>
   <v>       0.01055618      -0.03299116       0.01879237 </v>
  </varray>
  <varray name="stress" >
   <v>      54.00725926       0.00000000       0.00000000 </v>
   <v>       0.00000000      54.00725926       0.00000000 </v>
   <v>       0.00000000      -0.00000000      13.92798252 </v>
  </varray>
  <energy>
   <i name="e_fr_energy">   -201.58337471 </i>
   <i name="e_wo_entrp">   -201.58121335 </i>
   <i name="e_0_energy">     -0.00864544 </i>
  </energy>
  <time name="totalsc">   29.76   29.77</time>
 </calculation>
 <calculation>
  <scstep>
   <time name="dav">   32.04   32.04</time>
   <time name="total">   33.60   33.60</time>
   <energy>
    <i name="alphaZ">    140.93765575 </i>
    <i name="ewald">  -4240.74159649 </i>
    <i name="hartreedc">  -1289.05624056 </i>
    <i name="XCdc">    116.63863761 </i>
    <i name="pawpsdc">  17757.89311707 </i>
    <i name="pawaedc"> -17495.47975603 </i>
    <i name="eentropy">     -0.00859642 </i>
    <i name="bandstr">    -14.51901892 </i>
    <i name="atom">   4822.75196862 </i>
    <i name="e_fr_energy">   -201.58382936 </i>
    <i name="e_wo_entrp">   -201.57523294 </i>
    <i name="e_0_energy">   -201.58168025 </i>
   </energy>
  </scstep>
  <scstep>
   <time name="diag">    0.90    0.90</time>
   <time name="diis">    4.02    4.02</time>
   <time name="orth">    0.10    0.10</time>
   <time name="total">    5.70    5.70</time>
   <energy>
    <i name="e_fr_energy">   -201.58400701 </i>
    <i name="e_wo_entrp">   -201.57532628 </i>
    <i name="e_0_energy">   -201.58183683 </i>
   </energy>
  </scstep>
  <scstep>
   <time name="diag">    0.91    0.91</time>
   <time name="diis">    2.35    2.35</time>
   <time name="orth">    0.09    0.09</time>
   <time name="total">    3.39    3.40</time>
   <energy>
    <i name="alphaZ">    140.93765575 </i>
    <i name="ewald">  -4240.74159649 </i>
    <i name="hartreedc">  -1289.02975326 </i>
    <i name="XCdc">    116.63679486 </i>
    <i name="pawpsdc">  17756.62785840 </i>
    <i name="pawaedc"> -17494.21376009 </i>
    <i name="eentropy">     -0.00859678 </i>
    <i name="bandstr">    -14.54453534 </i>
    <i name="atom">   4822.75196862 </i>
    <i name="e_fr_energy">   -201.58396433 </i>
    <i name="e_wo_entrp">   -201.57536754 </i>
    <i name="e_0_energy">   -201.58181513 </i>
   </energy>
  </scstep>
  <structure>
   <crystal>
    <varray name="basis" >
     <v>       4.27151656      -7.39848370       0.00000000 </v>
     <v>       4.27151656       7.39848370       0.00000000 </v>
     <v>       0.00000000       0.00000000       5.47394832 </v>
    </varray>
    <i name="volume">    345.98359300 </i>
    <varray name="rec_basis" >
     <v>       0.11705445      -0.06758142       0.00000000 </v>
     <v>       0.11705445       0.06758142       0.00000000 </v>
     <v>       0.00000000       0.00000000       0.18268349 </v>
    </varray>
   </crystal>
   <varray name="positions" >
    <v>       0.00839469       0.64724038       0.21315835 </v>
    <v>       0.63884570       0.99160531       0.21315835 </v>
    <v>       0.91418376       0.32169803       0.99202383 </v>
    <v>       0.64724038       0.00839469       0.71315835 </v>
    <v>       0.08581624       0.40751427       0.49202383 </v>
    <v>       0.32169803       0.91418376       0.49202383 </v>
    <v>       0.35275962       0.36115430       0.21315835 </v>
    <v>       0.59248573       0.67830197       0.49202383 </v>
    <v>       0.99160531       0.63884570       0.71315835 </v>
    <v>       0.36115430       0.35275962       0.71315835 </v>
    <v>       0.67830197       0.59248573       0.99202383 </v>
    <v>       0.40751427       0.08581624       0.99202383 </v>
    <v>       0.21326158       0.30043213       0.46673433 </v>
    <v>       0.08717055       0.78673842       0.46673433 </v>
    <v>       0.30043213       0.21326158       0.96673433 </v>
    <v>       0.69956787       0.91282945       0.46673433 </v>
    <v>      -0.00000000      -0.00000000       0.95700159 </v>
    <v>       0.06688829       0.48443436       0.78256167 </v>
    <v>      -0.00000000      -0.00000000       0.45700159 </v>
    <v>       0.66666667       0.33333333       0.47569153 </v>
    <v>       0.58245393       0.51556564       0.28256167 </v>
    <v>       0.78673842       0.08717055       0.96673433 </v>
    <v>       0.91282945       0.69956787       0.96673433 </v>
    <v>       0.33333333       0.66666667       0.97569153 </v>
    <v>       0.93311171       0.41754607       0.28256167 </v>
    <v>       0.41754607       0.93311171       0.78256167 </v>
    <v>       0.51556564       0.58245393       0.78256167 </v>
    <v>       0.48443436       0.06688829       0.28256167 </v>
   </varray>
  </structure>
  <varray name="forces" >
   <v>      -0.01589255       0.00250889       0.00630489 </v>
   <v>       0.01011903       0.01250890       0.00630489 </v>
   <v>      -0.01718302       0.00514481      -0.00295646 </v>
   <v>      -0.01589255      -0.00250889       0.00630489 </v>
   <v>       0.01304704      -0.01230853      -0.00295646 </v>
   <v>      -0.01718302      -0.00514481      -0.00295646 </v>
   <v>       0.00577351      -0.01501779       0.00630489 </v>
   <v>       0.00413598       0.01745333      -0.00295646 </v>
   <v>       0.01011903      -0.01250890       0.00630489 </v>
   <v>       0.00577351       0.01501779       0.00630489 </v>
   <v>       0.00413598      -0.01745333      -0.00295646 </v>
   <v>       0.01304704       0.01230853      -0.00295646 </v>
   <v>      -0.00851219       0.01271776      -0.01293698 </v>
   <v>       0.01527000       0.00101289      -0.01293698 </v>
   <v>      -0.00851219      -0.01271776      -0.01293698 </v>
   <v>      -0.00675781      -0.01373065      -0.01293698 </v>
   <v>      -0.00000000       0.00000000       0.01470039 </v>
   <v>       0.00296140       0.00878192       0.00861620 </v>
   <v>      -0.00000000       0.00000000       0.01470039 </v>
   <v>      -0.00000000       0.00000000      -0.01178337 </v>
   <v>      -0.00908607       0.00182631       0.00861620 </v>
   <v>       0.01527000      -0.00101289      -0.01293698 </v>
   <v>      -0.00675781       0.01373065      -0.01293698 </v>
   <v>      -0.00000000       0.00000000      -0.01178337 </v>
   <v>       0.00612466       0.00695561       0.00861620 </v>
   <v>       0.00612466      -0.00695561       0.00861620 </v>
   <v>      -0.00908607      -0.00182631       0.00861620 </v>
   <v>       0.00296140      -0.00878192       0.00861620 </v>
  </varray>
  <varray name="stress" >
   <v>      54.18290797       0.00000000       0.00000000 </v>
   <v>       0.00000000      54.18290797      -0.00000000 </v>
   <v>       0.00000000       0.00000000      13.06554659 </v>
  </varray>
  <energy>
   <i name="e_fr_energy">   -201.58396433 </i>
   <i name="e_wo_entrp">   -201.58181513 </i>
   <i name="e_0_energy">     -0.00859678 </i>
  </energy>
  <time name="totalsc">   50.65   50.67</time>
  <eigenvalues>
   <array>
    <dimension dim="1">band</dimension>
    <dimension dim="2">kpoint</dimension>
    <dimension dim="3">spin</dimension>
    <field>eigene</field>
    <field>occ</field>
    <set>
     <set comment="spin 1">
      <set comment="kpoint 1">
       <r>  -11.0857    1.0000 </r>
       <r>  -10.4104    1.0000 </r>
       <r>  -10.4104    1.0000 </r>
       <r>   -9.5778    1.0000 </r>
       <r>   -9.5778    1.0000 </r>
       <r>   -8.8866    1.0000 </r>
       <r>   -8.5035    1.0000 </r>
       <r>   -8.4693    1.0000 </r>
       <r>   -8.4693    1.0000 </r>
       <r>   -8.4243    1.0000 </r>
       <r>   -8.3553    1.0000 </r>
       <r>   -8.3553    1.0000 </r>
       <r>   -4.0100    1.0000 </r>
       <r>   -3.0755    1.0000 </r>
       <r>   -3.0755    1.0000 </r>
       <r>   -2.7620    1.0000 </r>
       <r>   -2.0896    1.0000 </r>
       <r>   -1.8522    1.0000 </r>
       <r>   -1.8522    1.0000 </r>
       <r>   -1.3188    1.0000 </r>
       <r>   -0.9229    1.0000 </r>
       <r>   -0.9229    1.0000 </r>
       <r>   -0.6211    1.0000 </r>
       <r>   -0.2594    1.0000 </r>
       <r>   -0.2594    1.0000 </r>
       <r>    0.0786    1.0000 </r>
       <r>    0.1285    1.0000 </r>
       <r>    0.7585    1.0000 </r>
       <r>    0.8591    1.0000 </r>
       <r>    0.8591    1.0000 </r>
       <r>    1.1360    1.0000 </r>
       <r>    1.6340    1.0000 </r>
       <r>    1.6340    1.0000 </r>
       <r>    1.6625    1.0000 </r>
       <r>    1.8608    1.0000 </r>
       <r>    1.8608    1.0000 </r>
       <r>    2.2117    1.0000 </r>
       <r>    2.2665    1.0000 </r>
       <r>    2.2665    1.0000 </r>
       <r>    2.5863    1.0000 </r>
       <r>    2.5863    1.0000 </r>
       <r>    3.3484    1.0000 </r>
       <r>    3.3484    1.0000 </r>
       <r>    3.3529    1.0000 </r>
       <r>    3.4701    1.0000 </r>
       <r>    3.4701    1.0000 </r>
       <r>    3.9954    1.0000 </r>
       <r>    4.1279    1.0000 </r>
       <r>    4.3619    1.0000 </r>
       <r>    4.4432    1.0000 </r>
       <r>    4.4432    1.0000 </r>
       <r>    4.8253    1.0000 </r>
       <r>    4.9940    1.0000 </r>
       <r>    5.1360    1.0000 </r>
       <r>    5.1360    1.0000 </r>
       <r>    5.5173    1.0000 </r>
       <r>    5.5173    1.0000 </r>
       <r>    6.1725    1.0000 </r>
       <r>    6.1725    1.0000 </r>
       <r>    6.6747    1.0000 </r>
       <r>    6.6747    1.0000 </r>
       <r>    7.2764    1.0000 </r>
       <r>    7.9148    0.0016 </r>
       <r>    9.3915    0.0000 </r>
       <r>    9.3915    0.0000 </r>
       <r>   10.2445    0.0000 </r>
       <r>   10.2445    0.0000 </r>
       <r>   10.6084    0.0000 </r>
       <r>   10.6499    0.0000 </r>
       <r>   10.6499    0.0000 </r>
       <r>   11.4283    0.0000 </r>
       <r>   11.5364    0.0000 </r>
       <r>   11.7459    0.0000 </r>
       <r>   11.7459    0.0000 </r>
       <r>   12.0092    0.0000 </r>
       <r>   12.3702    0.0000 </r>
       <r>   12.5055    0.0000 </r>
       <r>   12.5060    0.0000 </r>
       <r>   12.6613    0.0000 </r>
       <r>   12.7121    0.0000 </r>
      </set>
      <set comment="kpoint 2">
       <r>  -11.0541    1.0000 </r>
       <r>  -10.4751    1.0000 </r>
       <r>  -10.4349    1.0000 </r>
       <r>   -9.5452    1.0000 </r>
       <r>   -9.5081    1.0000 </r>
       <r>   -8.8567    1.0000 </r>
       <r>   -8.6296    1.0000 </r>
       <r>   -8.4874    1.0000 </r>
       <r>   -8.4554    1.0000 </r>
       <r>   -8.4159    1.0000 </r>
       <r>   -8.3550    1.0000 </r>
       <r>   -8.3194    1.0000 </r>
       <r>   -3.9278    1.0000 </r>
       <r>   -3.0850    1.0000 </r>
       <r>   -2.9943    1.0000 </r>
       <r>   -2.7108    1.0000 </r>
       <r>   -2.1617    1.0000 </r>
       <r>   -1.9249    1.0000 </r>
       <r>   -1.8545    1.0000 </r>
       <r>   -1.5523    1.0000 </r>
       <r>   -1.1557    1.0000 </r>
       <r>   -0.8540    1.0000 </r>
       <r>   -0.6422    1.0000 </r>
       <r>   -0.2937    1.0000 </r>
       <r>   -0.0902    1.0000 </r>
       <r>    0.2005    1.0000 </r>
       <r>    0.3040    1.0000 </r>
       <r>    0.7827    1.0000 </r>
       <r>    0.7949    1.0000 </r>
       <r>    0.8127    1.0000 </r>
       <r>    1.1823    1.0000 </r>
       <r>    1.4817    1.0000 </r>
       <r>    1.6504    1.0000 </r>
       <r>    1.7014    1.0000 </r>
       <r>    1.8726    1.0000 </r>
       <r>    1.9021    1.0000 </r>
       <r>    2.2142    1.0000 </r>
       <r>    2.2603    1.0000 </r>
       <r>    2.4449    1.0000 </r>
       <r>    2.6188    1.0000 </r>
       <r>    2.6426    1.0000 </r>
       <r>    3.2142    1.0000 </r>
       <r>    3.2726    1.0000 </r>
       <r>    3.3512    1.0000 </r>
       <r>    3.5147    1.0000 </r>
       <r>    3.5711    1.0000 </r>
       <r>    3.9647    1.0000 </r>
       <r>    3.9955    1.0000 </r>
       <r>    4.1387    1.0000 </r>
       <r>    4.5114    1.0000 </r>
       <r>    4.6813    1.0000 </r>
       <r>    4.8370    1.0000 </r>
       <r>    4.9717    1.0000 </r>
       <r>    5.1701    1.0000 </r>
       <r>    5.2416    1.0000 </r>
       <r>    5.4399    1.0000 </r>
       <r>    5.5107    1.0000 </r>
       <r>    6.0622    1.0000 </r>
       <r>    6.1068    1.0000 </r>
       <r>    6.5603    1.0000 </r>
       <r>    6.6643    1.0000 </r>
       <r>    7.3133    1.0000 </r>
       <r>    7.8483    0.0046 </r>
       <r>    9.5090    0.0000 </r>
       <r>    9.5760    0.0000 </r>
       <r>   10.1739    0.0000 </r>
       <r>   10.2160    0.0000 </r>
       <r>   10.6642    0.0000 </r>
       <r>   10.7782    0.0000 </r>
       <r>   10.8232    0.0000 </r>
       <r>   11.1957    0.0000 </r>
       <r>   11.5499    0.0000 </r>
       <r>   11.6210    0.0000 </r>
       <r>   11.9031    0.0000 </r>
       <r>   12.1120    0.0000 </r>
       <r>   12.2450    0.0000 </r>
       <r>   12.4293    0.0000 </r>
       <r>   12.5067    0.0000 </r>
       <r>   12.5745    0.0000 </r>
       <r>   12.6968    0.0000 </r>
      </set>
      <set comment="kpoint 3">
       <r>  -10.9653    1.0000 </r>
       <r>  -10.6221    1.0000 </r>
       <r>  -10.4771    1.0000 </r>
       <r>   -9.4942    1.0000 </r>
       <r>   -9.3271    1.0000 </r>
       <r>   -8.8447    1.0000 </r>
       <r>   -8.7752    1.0000 </r>
       <r>   -8.5439    1.0000 </r>
       <r>   -8.4605    1.0000 </r>
       <r>   -8.4013    1.0000 </r>
       <r>   -8.3535    1.0000 </r>
       <r>   -8.2928    1.0000 </r>
       <r>   -3.6939    1.0000 </r>
       <r>   -3.1171    1.0000 </r>
       <r>   -2.8225    1.0000 </r>
       <r>   -2.6454    1.0000 </r>
       <r>   -2.3457    1.0000 </r>
       <r>   -2.0359    1.0000 </r>
       <r>   -1.9035    1.0000 </r>
       <r>   -1.8037    1.0000 </r>
       <r>   -1.5153    1.0000 </r>
       <r>   -0.7260    1.0000 </r>
       <r>   -0.6805    1.0000 </r>
       <r>   -0.4489    1.0000 </r>
       <r>    0.0821    1.0000 </r>
       <r>    0.4293    1.0000 </r>
       <r>    0.5201    1.0000 </r>
       <r>    0.6422    1.0000 </r>
       <r>    0.8858    1.0000 </r>
       <r>    0.9455    1.0000 </r>
       <r>    1.3138    1.0000 </r>
       <r>    1.3704    1.0000 </r>
       <r>    1.5953    1.0000 </r>
       <r>    1.6494    1.0000 </r>
       <r>    1.7990    1.0000 </r>
       <r>    1.9782    1.0000 </r>
       <r>    2.1915    1.0000 </r>
       <r>    2.2873    1.0000 </r>
       <r>    2.6103    1.0000 </r>
       <r>    2.6989    1.0000 </r>
       <r>    2.7683    1.0000 </r>
       <r>    3.0958    1.0000 </r>
       <r>    3.1431    1.0000 </r>
       <r>    3.3582    1.0000 </r>
       <r>    3.5249    1.0000 </r>
       <r>    3.7390    1.0000 </r>
       <r>    3.9115    1.0000 </r>
       <r>    4.0473    1.0000 </r>
       <r>    4.1238    1.0000 </r>
       <r>    4.5142    1.0000 </r>
       <r>    4.6493    1.0000 </r>
       <r>    4.8722    1.0000 </r>
       <r>    4.8817    1.0000 </r>
       <r>    5.1148    1.0000 </r>
       <r>    5.2934    1.0000 </r>
       <r>    5.4290    1.0000 </r>
       <r>    5.5281    1.0000 </r>
       <r>    5.8606    1.0000 </r>
       <r>    6.0144    1.0000 </r>
       <r>    6.3521    1.0000 </r>
       <r>    6.7085    1.0000 </r>
       <r>    7.4045    0.9980 </r>
       <r>    7.7149    0.0186 </r>
       <r>    9.7469    0.0000 </r>
       <r>    9.9813    0.0000 </r>
       <r>   10.0487    0.0000 </r>
       <r>   10.2357    0.0000 </r>
       <r>   10.6380    0.0000 </r>
       <r>   10.9843    0.0000 </r>
       <r>   11.0489    0.0000 </r>
       <r>   11.1654    0.0000 </r>
       <r>   11.3548    0.0000 </r>
       <r>   11.6505    0.0000 </r>
       <r>   11.9695    0.0000 </r>
       <r>   12.0793    0.0000 </r>
       <r>   12.2060    0.0000 </r>
       <r>   12.2441    0.0000 </r>
       <r>   12.3899    0.0000 </r>
       <r>   12.4737    0.0000 </r>
       <r>   12.5707    0.0000 </r>
      </set>
      <set comment="kpoint 4">
       <r>  -10.8748    1.0000 </r>
       <r>  -10.7388    1.0000 </r>
       <r>  -10.4957    1.0000 </r>
       <r>   -9.4739    1.0000 </r>
       <r>   -9.0935    1.0000 </r>
       <r>   -9.0873    1.0000 </r>
       <r>   -8.7001    1.0000 </r>
       <r>   -8.6061    1.0000 </r>
       <r>   -8.4631    1.0000 </r>
       <r>   -8.3941    1.0000 </r>
       <r>   -8.3522    1.0000 </r>
       <r>   -8.2891    1.0000 </r>
       <r>   -3.4562    1.0000 </r>
       <r>   -3.2177    1.0000 </r>
       <r>   -2.8452    1.0000 </r>
       <r>   -2.6044    1.0000 </r>
       <r>   -2.2670    1.0000 </r>
       <r>   -2.1608    1.0000 </r>
       <r>   -2.0174    1.0000 </r>
       <r>   -1.8221    1.0000 </r>
       <r>   -1.6844    1.0000 </r>
       <r>   -0.7163    1.0000 </r>
       <r>   -0.6354    1.0000 </r>
       <r>   -0.5493    1.0000 </r>
       <r>    0.2034    1.0000 </r>
       <r>    0.3663    1.0000 </r>
       <r>    0.5561    1.0000 </r>
       <r>    0.7059    1.0000 </r>
       <r>    1.0038    1.0000 </r>
       <r>    1.0542    1.0000 </r>
       <r>    1.2154    1.0000 </r>
       <r>    1.4606    1.0000 </r>
       <r>    1.5877    1.0000 </r>
       <r>    1.6638    1.0000 </r>
       <r>    1.7245    1.0000 </r>
       <r>    2.0298    1.0000 </r>
       <r>    2.0486    1.0000 </r>
       <r>    2.3117    1.0000 </r>
       <r>    2.5797    1.0000 </r>
       <r>    2.7487    1.0000 </r>
       <r>    2.8853    1.0000 </r>
       <r>    3.0529    1.0000 </r>
       <r>    3.1500    1.0000 </r>
       <r>    3.2727    1.0000 </r>
       <r>    3.5374    1.0000 </r>
       <r>    3.8697    1.0000 </r>
       <r>    3.9377    1.0000 </r>
       <r>    4.1586    1.0000 </r>
       <r>    4.2624    1.0000 </r>
       <r>    4.4720    1.0000 </r>
       <r>    4.4875    1.0000 </r>
       <r>    4.7870    1.0000 </r>
       <r>    4.9179    1.0000 </r>
       <r>    5.0125    1.0000 </r>
       <r>    5.2700    1.0000 </r>
       <r>    5.4336    1.0000 </r>
       <r>    5.4428    1.0000 </r>
       <r>    5.7754    1.0000 </r>
       <r>    6.1525    1.0000 </r>
       <r>    6.1861    1.0000 </r>
       <r>    6.7512    1.0000 </r>
       <r>    7.4832    0.9990 </r>
       <r>    7.6218    0.8340 </r>
       <r>    9.9185    0.0000 </r>
       <r>    9.9373    0.0000 </r>
       <r>   10.1970    0.0000 </r>
       <r>   10.3908    0.0000 </r>
       <r>   10.4604    0.0000 </r>
       <r>   11.0413    0.0000 </r>
       <r>   11.1145    0.0000 </r>
       <r>   11.1164    0.0000 </r>
       <r>   11.4780    0.0000 </r>
       <r>   11.6385    0.0000 </r>
       <r>   11.9174    0.0000 </r>
       <r>   11.9950    0.0000 </r>
       <r>   12.1795    0.0000 </r>
       <r>   12.1989    0.0000 </r>
       <r>   12.2306    0.0000 </r>
       <r>   12.4322    0.0000 </r>
       <r>   12.4448    0.0000 </r>
      </set>
      <set comment="kpoint 5">
       <r>  -10.9935    1.0000 </r>
       <r>  -10.5685    1.0000 </r>
       <r>  -10.4812    1.0000 </r>
       <r>   -9.4718    1.0000 </r>
       <r>   -9.4154    1.0000 </r>
       <r>   -8.7997    1.0000 </r>
       <r>   -8.7849    1.0000 </r>
       <r>   -8.5110    1.0000 </r>
       <r>   -8.4699    1.0000 </r>
       <r>   -8.4047    1.0000 </r>
       <r>   -8.3525    1.0000 </r>
       <r>   -8.2991    1.0000 </r>
       <r>   -3.7675    1.0000 </r>
       <r>   -3.0795    1.0000 </r>
       <r>   -2.8911    1.0000 </r>
       <r>   -2.6568    1.0000 </r>
       <r>   -2.2667    1.0000 </r>
       <r>   -2.0805    1.0000 </r>
       <r>   -1.8503    1.0000 </r>
       <r>   -1.7764    1.0000 </r>
       <r>   -1.3677    1.0000 </r>
       <r>   -0.8338    1.0000 </r>
       <r>   -0.6568    1.0000 </r>
       <r>   -0.3770    1.0000 </r>
       <r>    0.0152    1.0000 </r>
       <r>    0.4204    1.0000 </r>
       <r>    0.4839    1.0000 </r>
       <r>    0.6769    1.0000 </r>
       <r>    0.8163    1.0000 </r>
       <r>    0.9075    1.0000 </r>
       <r>    1.2995    1.0000 </r>
       <r>    1.3841    1.0000 </r>
       <r>    1.5870    1.0000 </r>
       <r>    1.7579    1.0000 </r>
       <r>    1.7668    1.0000 </r>
       <r>    1.9443    1.0000 </r>
       <r>    2.2134    1.0000 </r>
       <r>    2.2926    1.0000 </r>
       <r>    2.6010    1.0000 </r>
       <r>    2.6659    1.0000 </r>
       <r>    2.6766    1.0000 </r>
       <r>    3.1308    1.0000 </r>
       <r>    3.1721    1.0000 </r>
       <r>    3.3747    1.0000 </r>
       <r>    3.5748    1.0000 </r>
       <r>    3.6307    1.0000 </r>
       <r>    3.9026    1.0000 </r>
       <r>    4.0284    1.0000 </r>
       <r>    4.1211    1.0000 </r>
       <r>    4.6104    1.0000 </r>
       <r>    4.6286    1.0000 </r>
       <r>    4.8482    1.0000 </r>
       <r>    4.9152    1.0000 </r>
       <r>    5.1858    1.0000 </r>
       <r>    5.2765    1.0000 </r>
       <r>    5.3531    1.0000 </r>
       <r>    5.5461    1.0000 </r>
       <r>    5.8700    1.0000 </r>
       <r>    6.0519    1.0000 </r>
       <r>    6.4346    1.0000 </r>
       <r>    6.6794    1.0000 </r>
       <r>    7.3761    0.9993 </r>
       <r>    7.7513   -0.0516 </r>
       <r>    9.7051    0.0000 </r>
       <r>    9.8464    0.0000 </r>
       <r>   10.1027    0.0000 </r>
       <r>   10.1687    0.0000 </r>
       <r>   10.7728    0.0000 </r>
       <r>   10.8373    0.0000 </r>
       <r>   11.0650    0.0000 </r>
       <r>   11.1104    0.0000 </r>
       <r>   11.4108    0.0000 </r>
       <r>   11.7447    0.0000 </r>
       <r>   11.9343    0.0000 </r>
       <r>   12.0192    0.0000 </r>
       <r>   12.2132    0.0000 </r>
       <r>   12.2499    0.0000 </r>
       <r>   12.3252    0.0000 </r>
       <r>   12.5809    0.0000 </r>
       <r>   12.5843    0.0000 </r>
      </set>
      <set comment="kpoint 6">
       <r>  -10.8881    1.0000 </r>
       <r>  -10.7022    1.0000 </r>
       <r>  -10.5259    1.0000 </r>
       <r>   -9.4093    1.0000 </r>
       <r>   -9.2387    1.0000 </r>
       <r>   -9.0069    1.0000 </r>
       <r>   -8.7093    1.0000 </r>
       <r>   -8.5645    1.0000 </r>
       <r>   -8.4849    1.0000 </r>
       <r>   -8.3941    1.0000 </r>
       <r>   -8.3459    1.0000 </r>
       <r>   -8.2988    1.0000 </r>
       <r>   -3.4879    1.0000 </r>
       <r>   -3.1044    1.0000 </r>
       <r>   -2.8738    1.0000 </r>
       <r>   -2.7158    1.0000 </r>
       <r>   -2.2888    1.0000 </r>
       <r>   -2.1311    1.0000 </r>
       <r>   -1.9633    1.0000 </r>
       <r>   -1.8338    1.0000 </r>
       <r>   -1.6377    1.0000 </r>
       <r>   -0.7627    1.0000 </r>
       <r>   -0.6599    1.0000 </r>
       <r>   -0.5360    1.0000 </r>
       <r>    0.1542    1.0000 </r>
       <r>    0.4500    1.0000 </r>
       <r>    0.5538    1.0000 </r>
       <r>    0.6885    1.0000 </r>
       <r>    1.0132    1.0000 </r>
       <r>    1.0519    1.0000 </r>
       <r>    1.2907    1.0000 </r>
       <r>    1.4521    1.0000 </r>
       <r>    1.5160    1.0000 </r>
       <r>    1.6866    1.0000 </r>
       <r>    1.7755    1.0000 </r>
       <r>    1.9387    1.0000 </r>
       <r>    2.0836    1.0000 </r>
       <r>    2.3808    1.0000 </r>
       <r>    2.5912    1.0000 </r>
       <r>    2.6507    1.0000 </r>
       <r>    2.7926    1.0000 </r>
       <r>    3.0264    1.0000 </r>
       <r>    3.0637    1.0000 </r>
       <r>    3.4241    1.0000 </r>
       <r>    3.5669    1.0000 </r>
       <r>    3.8619    1.0000 </r>
       <r>    4.0055    1.0000 </r>
       <r>    4.1595    1.0000 </r>
       <r>    4.1991    1.0000 </r>
       <r>    4.5079    1.0000 </r>
       <r>    4.6349    1.0000 </r>
       <r>    4.8055    1.0000 </r>
       <r>    4.8906    1.0000 </r>
       <r>    5.0445    1.0000 </r>
       <r>    5.2611    1.0000 </r>
       <r>    5.2779    1.0000 </r>
       <r>    5.4109    1.0000 </r>
       <r>    5.6362    1.0000 </r>
       <r>    6.1979    1.0000 </r>
       <r>    6.3478    1.0000 </r>
       <r>    6.7132    1.0000 </r>
       <r>    7.4704    0.9961 </r>
       <r>    7.6335    0.7323 </r>
       <r>    9.9085    0.0000 </r>
       <r>    9.9707    0.0000 </r>
       <r>   10.1468    0.0000 </r>
       <r>   10.3194    0.0000 </r>
       <r>   10.5779    0.0000 </r>
       <r>   10.8807    0.0000 </r>
       <r>   11.1751    0.0000 </r>
       <r>   11.2961    0.0000 </r>
       <r>   11.3995    0.0000 </r>
       <r>   11.7143    0.0000 </r>
       <r>   11.8191    0.0000 </r>
       <r>   11.9607    0.0000 </r>
       <r>   12.0725    0.0000 </r>
       <r>   12.2452    0.0000 </r>
       <r>   12.3076    0.0000 </r>
       <r>   12.4593    0.0000 </r>
       <r>   12.5024    0.0000 </r>
      </set>
      <set comment="kpoint 7">
       <r>  -10.7880    1.0000 </r>
       <r>  -10.7880    1.0000 </r>
       <r>  -10.5684    1.0000 </r>
       <r>   -9.2706    1.0000 </r>
       <r>   -9.1894    1.0000 </r>
       <r>   -9.1894    1.0000 </r>
       <r>   -8.6632    1.0000 </r>
       <r>   -8.5393    1.0000 </r>
       <r>   -8.5393    1.0000 </r>
       <r>   -8.3909    1.0000 </r>
       <r>   -8.3235    1.0000 </r>
       <r>   -8.3235    1.0000 </r>
       <r>   -3.2963    1.0000 </r>
       <r>   -2.9779    1.0000 </r>
       <r>   -2.9726    1.0000 </r>
       <r>   -2.9726    1.0000 </r>
       <r>   -2.1793    1.0000 </r>
       <r>   -2.1793    1.0000 </r>
       <r>   -1.8446    1.0000 </r>
       <r>   -1.8446    1.0000 </r>
       <r>   -1.8324    1.0000 </r>
       <r>   -0.7509    1.0000 </r>
       <r>   -0.6381    1.0000 </r>
       <r>   -0.6381    1.0000 </r>
       <r>    0.1833    1.0000 </r>
       <r>    0.4988    1.0000 </r>
       <r>    0.4988    1.0000 </r>
       <r>    0.7498    1.0000 </r>
       <r>    1.1270    1.0000 </r>
       <r>    1.1270    1.0000 </r>
       <r>    1.3795    1.0000 </r>
       <r>    1.3795    1.0000 </r>
       <r>    1.4070    1.0000 </r>
       <r>    1.8311    1.0000 </r>
       <r>    1.8684    1.0000 </r>
       <r>    1.8684    1.0000 </r>
       <r>    1.8890    1.0000 </r>
       <r>    2.5014    1.0000 </r>
       <r>    2.5014    1.0000 </r>
       <r>    2.5896    1.0000 </r>
       <r>    2.9030    1.0000 </r>
       <r>    2.9030    1.0000 </r>
       <r>    2.9279    1.0000 </r>
       <r>    3.5552    1.0000 </r>
       <r>    3.5552    1.0000 </r>
       <r>    3.9762    1.0000 </r>
       <r>    4.0888    1.0000 </r>
       <r>    4.2390    1.0000 </r>
       <r>    4.2390    1.0000 </r>
       <r>    4.5267    1.0000 </r>
       <r>    4.7513    1.0000 </r>
       <r>    4.7513    1.0000 </r>
       <r>    5.0074    1.0000 </r>
       <r>    5.0074    1.0000 </r>
       <r>    5.0201    1.0000 </r>
       <r>    5.2344    1.0000 </r>
       <r>    5.2344    1.0000 </r>
       <r>    5.4580    1.0000 </r>
       <r>    6.3822    1.0000 </r>
       <r>    6.3822    1.0000 </r>
       <r>    6.6718    1.0000 </r>
       <r>    7.5492    1.0479 </r>
       <r>    7.5492    1.0479 </r>
       <r>    9.9812    0.0000 </r>
       <r>    9.9812    0.0000 </r>
       <r>   10.2650    0.0000 </r>
       <r>   10.2650    0.0000 </r>
       <r>   10.5593    0.0000 </r>
       <r>   10.9781    0.0000 </r>
       <r>   10.9781    0.0000 </r>
       <r>   11.4482    0.0000 </r>
       <r>   11.4708    0.0000 </r>
       <r>   11.7770    0.0000 </r>
       <r>   11.7770    0.0000 </r>
       <r>   11.8156    0.0000 </r>
       <r>   11.9273    0.0000 </r>
       <r>   12.3234    0.0000 </r>
       <r>   12.3234    0.0000 </r>
       <r>   12.5335    0.0000 </r>
       <r>   12.5345    0.0000 </r>
      </set>
      <set comment="kpoint 8">
       <r>  -11.0352    1.0000 </r>
       <r>  -10.3642    1.0000 </r>
       <r>  -10.3642    1.0000 </r>
       <r>   -9.5550    1.0000 </r>
       <r>   -9.5550    1.0000 </r>
       <r>   -9.1104    1.0000 </r>
       <r>   -8.5749    1.0000 </r>
       <r>   -8.5749    1.0000 </r>
       <r>   -8.4789    1.0000 </r>
       <r>   -8.3877    1.0000 </r>
       <r>   -8.3877    1.0000 </r>
       <r>   -8.2995    1.0000 </r>
       <r>   -3.9563    1.0000 </r>
       <r>   -2.9246    1.0000 </r>
       <r>   -2.9246    1.0000 </r>
       <r>   -2.8050    1.0000 </r>
       <r>   -2.0082    1.0000 </r>
       <r>   -1.7969    1.0000 </r>
       <r>   -1.7969    1.0000 </r>
       <r>   -1.3842    1.0000 </r>
       <r>   -0.8904    1.0000 </r>
       <r>   -0.8904    1.0000 </r>
       <r>   -0.5398    1.0000 </r>
       <r>   -0.2894    1.0000 </r>
       <r>   -0.2894    1.0000 </r>
       <r>   -0.1550    1.0000 </r>
       <r>    0.1399    1.0000 </r>
       <r>    0.8708    1.0000 </r>
       <r>    0.8708    1.0000 </r>
       <r>    1.0643    1.0000 </r>
       <r>    1.1015    1.0000 </r>
       <r>    1.5747    1.0000 </r>
       <r>    1.5747    1.0000 </r>
       <r>    1.6332    1.0000 </r>
       <r>    1.8389    1.0000 </r>
       <r>    1.8389    1.0000 </r>
       <r>    2.2177    1.0000 </r>
       <r>    2.2177    1.0000 </r>
       <r>    2.2463    1.0000 </r>
       <r>    2.5004    1.0000 </r>
       <r>    2.5004    1.0000 </r>
       <r>    3.2677    1.0000 </r>
       <r>    3.3362    1.0000 </r>
       <r>    3.3362    1.0000 </r>
       <r>    3.4925    1.0000 </r>
       <r>    3.4925    1.0000 </r>
       <r>    3.9493    1.0000 </r>
       <r>    3.9597    1.0000 </r>
       <r>    4.3630    1.0000 </r>
       <r>    4.3630    1.0000 </r>
       <r>    4.5031    1.0000 </r>
       <r>    4.6729    1.0000 </r>
       <r>    5.1107    1.0000 </r>
       <r>    5.1107    1.0000 </r>
       <r>    5.1587    1.0000 </r>
       <r>    5.5765    1.0000 </r>
       <r>    5.5765    1.0000 </r>
       <r>    6.1757    1.0000 </r>
       <r>    6.1757    1.0000 </r>
       <r>    6.6333    1.0000 </r>
       <r>    6.6333    1.0000 </r>
       <r>    7.3515    0.9998 </r>
       <r>    7.8213   -0.0021 </r>
       <r>    9.4956    0.0000 </r>
       <r>    9.4956    0.0000 </r>
       <r>   10.2871    0.0000 </r>
       <r>   10.2871    0.0000 </r>
       <r>   10.6171    0.0000 </r>
       <r>   10.8177    0.0000 </r>
       <r>   10.8177    0.0000 </r>
       <r>   11.4528    0.0000 </r>
       <r>   11.6983    0.0000 </r>
       <r>   11.6983    0.0000 </r>
       <r>   11.7281    0.0000 </r>
       <r>   12.1165    0.0000 </r>
       <r>   12.2343    0.0000 </r>
       <r>   12.3117    0.0000 </r>
       <r>   12.3117    0.0000 </r>
       <r>   12.6142    0.0000 </r>
       <r>   12.6148    0.0000 </r>
      </set>
      <set comment="kpoint 9">
       <r>  -11.0040    1.0000 </r>
       <r>  -10.4292    1.0000 </r>
       <r>  -10.3883    1.0000 </r>
       <r>   -9.5241    1.0000 </r>
       <r>   -9.4873    1.0000 </r>
       <r>   -9.0762    1.0000 </r>
       <r>   -8.6482    1.0000 </r>
       <r>   -8.6024    1.0000 </r>
       <r>   -8.5420    1.0000 </r>
       <r>   -8.3906    1.0000 </r>
       <r>   -8.3171    1.0000 </r>
       <r>   -8.2870    1.0000 </r>
       <r>   -3.8716    1.0000 </r>
       <r>   -2.9533    1.0000 </r>
       <r>   -2.8510    1.0000 </r>
       <r>   -2.7390    1.0000 </r>
       <r>   -2.0749    1.0000 </r>
       <r>   -1.8889    1.0000 </r>
       <r>   -1.7993    1.0000 </r>
       <r>   -1.5595    1.0000 </r>
       <r>   -1.1235    1.0000 </r>
       <r>   -0.8461    1.0000 </r>
       <r>   -0.5477    1.0000 </r>
       <r>   -0.2928    1.0000 </r>
       <r>   -0.1754    1.0000 </r>
       <r>    0.0001    1.0000 </r>
       <r>    0.2803    1.0000 </r>
       <r>    0.7735    1.0000 </r>
       <r>    0.8174    1.0000 </r>
       <r>    1.0909    1.0000 </r>
       <r>    1.1435    1.0000 </r>
       <r>    1.3940    1.0000 </r>
       <r>    1.6081    1.0000 </r>
       <r>    1.6564    1.0000 </r>
       <r>    1.8109    1.0000 </r>
       <r>    1.9391    1.0000 </r>
       <r>    2.1874    1.0000 </r>
       <r>    2.2146    1.0000 </r>
       <r>    2.4281    1.0000 </r>
       <r>    2.5421    1.0000 </r>
       <r>    2.5831    1.0000 </r>
       <r>    3.1724    1.0000 </r>
       <r>    3.2492    1.0000 </r>
       <r>    3.3958    1.0000 </r>
       <r>    3.4954    1.0000 </r>
       <r>    3.6201    1.0000 </r>
       <r>    3.8280    1.0000 </r>
       <r>    3.9675    1.0000 </r>
       <r>    4.3017    1.0000 </r>
       <r>    4.4270    1.0000 </r>
       <r>    4.6069    1.0000 </r>
       <r>    4.6795    1.0000 </r>
       <r>    5.0360    1.0000 </r>
       <r>    5.1545    1.0000 </r>
       <r>    5.2503    1.0000 </r>
       <r>    5.4691    1.0000 </r>
       <r>    5.5533    1.0000 </r>
       <r>    6.0758    1.0000 </r>
       <r>    6.1066    1.0000 </r>
       <r>    6.5180    1.0000 </r>
       <r>    6.6295    1.0000 </r>
       <r>    7.3876    0.9989 </r>
       <r>    7.7863   -0.0283 </r>
       <r>    9.5993    0.0000 </r>
       <r>    9.6618    0.0000 </r>
       <r>   10.2414    0.0000 </r>
       <r>   10.2864    0.0000 </r>
       <r>   10.7066    0.0000 </r>
       <r>   10.7852    0.0000 </r>
       <r>   10.9463    0.0000 </r>
       <r>   11.2456    0.0000 </r>
       <r>   11.5861    0.0000 </r>
       <r>   11.7041    0.0000 </r>
       <r>   11.8900    0.0000 </r>
       <r>   12.0737    0.0000 </r>
       <r>   12.1356    0.0000 </r>
       <r>   12.3656    0.0000 </r>
       <r>   12.3916    0.0000 </r>
       <r>   12.5171    0.0000 </r>
       <r>   12.6879    0.0000 </r>
      </set>
      <set comment="kpoint 10">
       <r>  -10.9162    1.0000 </r>
       <r>  -10.5756    1.0000 </r>
       <r>  -10.4300    1.0000 </r>
       <r>   -9.4797    1.0000 </r>
       <r>   -9.3125    1.0000 </r>
       <r>   -8.9786    1.0000 </r>
       <r>   -8.8471    1.0000 </r>
       <r>   -8.6973    1.0000 </r>
       <r>   -8.5568    1.0000 </r>
       <r>   -8.3920    1.0000 </r>
       <r>   -8.2661    1.0000 </r>
       <r>   -8.2624    1.0000 </r>
       <r>   -3.6344    1.0000 </r>
       <r>   -3.0040    1.0000 </r>
       <r>   -2.7070    1.0000 </r>
       <r>   -2.6456    1.0000 </r>
       <r>   -2.2793    1.0000 </r>
       <r>   -2.0185    1.0000 </r>
       <r>   -1.8485    1.0000 </r>
       <r>   -1.7576    1.0000 </r>
       <r>   -1.4684    1.0000 </r>
       <r>   -0.7152    1.0000 </r>
       <r>   -0.5439    1.0000 </r>
       <r>   -0.3933    1.0000 </r>
       <r>   -0.0901    1.0000 </r>
       <r>    0.2875    1.0000 </r>
       <r>    0.4454    1.0000 </r>
       <r>    0.5890    1.0000 </r>
       <r>    0.8066    1.0000 </r>
       <r>    1.0584    1.0000 </r>
       <r>    1.3105    1.0000 </r>
       <r>    1.3523    1.0000 </r>
       <r>    1.5553    1.0000 </r>
       <r>    1.6497    1.0000 </r>
       <r>    1.7739    1.0000 </r>
       <r>    1.9869    1.0000 </r>
       <r>    2.1817    1.0000 </r>
       <r>    2.2425    1.0000 </r>
       <r>    2.4988    1.0000 </r>
       <r>    2.6839    1.0000 </r>
       <r>    2.7813    1.0000 </r>
       <r>    3.0578    1.0000 </r>
       <r>    3.1825    1.0000 </r>
       <r>    3.3680    1.0000 </r>
       <r>    3.5448    1.0000 </r>
       <r>    3.7458    1.0000 </r>
       <r>    3.9175    1.0000 </r>
       <r>    4.0537    1.0000 </r>
       <r>    4.2346    1.0000 </r>
       <r>    4.5263    1.0000 </r>
       <r>    4.6170    1.0000 </r>
       <r>    4.7192    1.0000 </r>
       <r>    4.8706    1.0000 </r>
       <r>    5.0200    1.0000 </r>
       <r>    5.3120    1.0000 </r>
       <r>    5.4249    1.0000 </r>
       <r>    5.5432    1.0000 </r>
       <r>    5.8656    1.0000 </r>
       <r>    5.9795    1.0000 </r>
       <r>    6.2974    1.0000 </r>
       <r>    6.6692    1.0000 </r>
       <r>    7.4757    0.9970 </r>
       <r>    7.7062    0.0619 </r>
       <r>    9.8156    0.0000 </r>
       <r>   10.0055    0.0000 </r>
       <r>   10.1171    0.0000 </r>
       <r>   10.3029    0.0000 </r>
       <r>   10.6991    0.0000 </r>
       <r>   10.9216    0.0000 </r>
       <r>   11.0435    0.0000 </r>
       <r>   11.2367    0.0000 </r>
       <r>   11.3501    0.0000 </r>
       <r>   11.6780    0.0000 </r>
       <r>   11.9240    0.0000 </r>
       <r>   12.0400    0.0000 </r>
       <r>   12.1764    0.0000 </r>
       <r>   12.2791    0.0000 </r>
       <r>   12.3542    0.0000 </r>
       <r>   12.4528    0.0000 </r>
       <r>   12.5245    0.0000 </r>
      </set>
      <set comment="kpoint 11">
       <r>  -10.8269    1.0000 </r>
       <r>  -10.6912    1.0000 </r>
       <r>  -10.4484    1.0000 </r>
       <r>   -9.4635    1.0000 </r>
       <r>   -9.1030    1.0000 </r>
       <r>   -9.0642    1.0000 </r>
       <r>   -8.8744    1.0000 </r>
       <r>   -8.7966    1.0000 </r>
       <r>   -8.5601    1.0000 </r>
       <r>   -8.3922    1.0000 </r>
       <r>   -8.2522    1.0000 </r>
       <r>   -8.2503    1.0000 </r>
       <r>   -3.3996    1.0000 </r>
       <r>   -3.1163    1.0000 </r>
       <r>   -2.7626    1.0000 </r>
       <r>   -2.5631    1.0000 </r>
       <r>   -2.2033    1.0000 </r>
       <r>   -2.1380    1.0000 </r>
       <r>   -1.9971    1.0000 </r>
       <r>   -1.6884    1.0000 </r>
       <r>   -1.6868    1.0000 </r>
       <r>   -0.6369    1.0000 </r>
       <r>   -0.5444    1.0000 </r>
       <r>   -0.4757    1.0000 </r>
[...]
       <r>   -2.1644    1.0000 </r>
       <r>   -1.3204    1.0000 </r>
       <r>   -1.2769    1.0000 </r>
       <r>   -0.9849    1.0000 </r>
       <r>   -0.9849    1.0000 </r>
       <r>   -0.1196    1.0000 </r>
       <r>   -0.1196    1.0000 </r>
       <r>    0.1707    1.0000 </r>
       <r>    0.1707    1.0000 </r>
       <r>    0.2169    1.0000 </r>
       <r>    0.2615    1.0000 </r>
       <r>    0.6509    1.0000 </r>
       <r>    0.6509    1.0000 </r>
       <r>    1.0909    1.0000 </r>
       <r>    1.0909    1.0000 </r>
       <r>    1.1784    1.0000 </r>
       <r>    1.4539    1.0000 </r>
       <r>    1.4539    1.0000 </r>
       <r>    1.4715    1.0000 </r>
       <r>    1.6554    1.0000 </r>
       <r>    2.3453    1.0000 </r>
       <r>    2.3453    1.0000 </r>
       <r>    2.6059    1.0000 </r>
       <r>    2.8817    1.0000 </r>
       <r>    2.8817    1.0000 </r>
       <r>    3.0699    1.0000 </r>
       <r>    3.3810    1.0000 </r>
       <r>    3.3810    1.0000 </r>
       <r>    3.4045    1.0000 </r>
       <r>    4.2166    1.0000 </r>
       <r>    4.2166    1.0000 </r>
       <r>    4.3702    1.0000 </r>
       <r>    4.5202    1.0000 </r>
       <r>    4.5202    1.0000 </r>
       <r>    4.6442    1.0000 </r>
       <r>    4.9473    1.0000 </r>
       <r>    4.9473    1.0000 </r>
       <r>    5.4064    1.0000 </r>
       <r>    5.4064    1.0000 </r>
       <r>    5.8014    1.0000 </r>
       <r>    5.8014    1.0000 </r>
       <r>    6.0220    1.0000 </r>
       <r>    6.0681    1.0000 </r>
       <r>    7.6788    0.2714 </r>
       <r>    7.6828    0.2347 </r>
       <r>    7.7700   -0.0433 </r>
       <r>    7.7700   -0.0433 </r>
       <r>   10.1367    0.0000 </r>
       <r>   10.1367    0.0000 </r>
       <r>   10.4628    0.0000 </r>
       <r>   10.4628    0.0000 </r>
       <r>   10.7318    0.0000 </r>
       <r>   11.0889    0.0000 </r>
       <r>   11.4558    0.0000 </r>
       <r>   11.4558    0.0000 </r>
       <r>   11.9411    0.0000 </r>
       <r>   12.1736    0.0000 </r>
       <r>   12.1737    0.0000 </r>
       <r>   12.3058    0.0000 </r>
       <r>   12.3633    0.0000 </r>
       <r>   12.3649    0.0000 </r>
       <r>   12.4781    0.0000 </r>
       <r>   12.5733    0.0000 </r>
      </set>
     </set>
    </set>
   </array>
  </eigenvalues>
  <separator name="orbital magnetization" >
   <v name="MAGDIPOLOUT">      0.00000000      0.00000000      0.00000000</v>
  </separator>
  <dos>
   <i name="efermi">      7.65634268 </i>
   <total>
    <array>
     <dimension dim="1">gridpoints</dimension>
     <dimension dim="2">spin</dimension>
     <field>energy</field>
     <field>total</field>
     <field>integrated</field>
     <set>
      <set comment="spin 1">
       <r>   -12.2857     0.0000     0.0000 </r>
       <r>   -12.1977     0.0000     0.0000 </r>
       <r>   -12.1097     0.0000     0.0000 </r>
       <r>   -12.0217     0.0000     0.0000 </r>
       <r>   -11.9337     0.0000     0.0000 </r>
       <r>   -11.8457     0.0000     0.0000 </r>
       <r>   -11.7577     0.0000     0.0000 </r>
       <r>   -11.6697     0.0000     0.0000 </r>
       <r>   -11.5817     0.0000     0.0000 </r>
       <r>   -11.4937     0.0000     0.0000 </r>
       <r>   -11.4057     0.0000     0.0000 </r>
       <r>   -11.3177     0.0012     0.0001 </r>
       <r>   -11.2297     0.0056     0.0006 </r>
       <r>   -11.1417    -0.0482    -0.0037 </r>
       <r>   -11.0537     0.3876     0.0305 </r>
       <r>   -10.9657     1.9819     0.2049 </r>
       <r>   -10.8777     3.3612     0.5006 </r>
       <r>   -10.7897     4.2304     0.8729 </r>
       <r>   -10.7017     4.0562     1.2298 </r>
       <r>   -10.6137     4.9572     1.6660 </r>
       <r>   -10.5257     6.6047     2.2472 </r>
       <r>   -10.4377    10.2715     3.1511 </r>
       <r>   -10.3497     7.3511     3.7980 </r>
       <r>   -10.2617     9.2439     4.6114 </r>
       <r>   -10.1738     6.0959     5.1478 </r>
       <r>   -10.0858     3.6037     5.4649 </r>
       <r>    -9.9978     3.1135     5.7389 </r>
       <r>    -9.9098     0.5014     5.7830 </r>
       <r>    -9.8218     6.5204     6.3568 </r>
       <r>    -9.7338     8.5133     7.1059 </r>
       <r>    -9.6458     1.6566     7.2517 </r>
       <r>    -9.5578     4.5405     7.6513 </r>
       <r>    -9.4698    14.5981     8.9358 </r>
       <r>    -9.3818    11.2038     9.9217 </r>
       <r>    -9.2938     5.8447    10.4361 </r>
       <r>    -9.2058     5.9876    10.9629 </r>
       <r>    -9.1178     3.4450    11.2661 </r>
       <r>    -9.0298     5.2832    11.7310 </r>
       <r>    -8.9418    10.5588    12.6601 </r>
       <r>    -8.8538    15.0156    13.9815 </r>
       <r>    -8.7658    16.2534    15.4117 </r>
       <r>    -8.6778    13.9302    16.6375 </r>
       <r>    -8.5898    13.1825    17.7975 </r>
       <r>    -8.5018     9.1837    18.6057 </r>
       <r>    -8.4138     9.1070    19.4071 </r>
       <r>    -8.3258    12.6569    20.5208 </r>
       <r>    -8.2378    24.3460    22.6632 </r>
       <r>    -8.1498    14.7597    23.9620 </r>
       <r>    -8.0618     0.6177    24.0163 </r>
       <r>    -7.9738    -0.2429    23.9950 </r>
       <r>    -7.8858     0.0540    23.9997 </r>
       <r>    -7.7978     0.0031    24.0000 </r>
       <r>    -7.7098     0.0000    24.0000 </r>
       <r>    -7.6218     0.0000    24.0000 </r>
       <r>    -7.5338     0.0000    24.0000 </r>
       <r>    -7.4458     0.0000    24.0000 </r>
       <r>    -7.3579     0.0000    24.0000 </r>
       <r>    -7.2699     0.0000    24.0000 </r>
       <r>    -7.1819     0.0000    24.0000 </r>
       <r>    -7.0939     0.0000    24.0000 </r>
       <r>    -7.0059     0.0000    24.0000 </r>
       <r>    -6.9179     0.0000    24.0000 </r>
       <r>    -6.8299     0.0000    24.0000 </r>
       <r>    -6.7419     0.0000    24.0000 </r>
       <r>    -6.6539     0.0000    24.0000 </r>
       <r>    -6.5659     0.0000    24.0000 </r>
       <r>    -6.4779     0.0000    24.0000 </r>
       <r>    -6.3899     0.0000    24.0000 </r>
       <r>    -6.3019     0.0000    24.0000 </r>
       <r>    -6.2139     0.0000    24.0000 </r>
       <r>    -6.1259     0.0000    24.0000 </r>
       <r>    -6.0379     0.0000    24.0000 </r>
       <r>    -5.9499     0.0000    24.0000 </r>
       <r>    -5.8619     0.0000    24.0000 </r>
       <r>    -5.7739     0.0000    24.0000 </r>
       <r>    -5.6859     0.0000    24.0000 </r>
       <r>    -5.5979     0.0000    24.0000 </r>
       <r>    -5.5099     0.0000    24.0000 </r>
       <r>    -5.4219     0.0000    24.0000 </r>
       <r>    -5.3339     0.0000    24.0000 </r>
       <r>    -5.2459     0.0000    24.0000 </r>
       <r>    -5.1579     0.0000    24.0000 </r>
       <r>    -5.0699     0.0000    24.0000 </r>
       <r>    -4.9819     0.0000    24.0000 </r>
       <r>    -4.8939     0.0000    24.0000 </r>
       <r>    -4.8059     0.0000    24.0000 </r>
       <r>    -4.7179     0.0000    24.0000 </r>
       <r>    -4.6300     0.0000    24.0000 </r>
       <r>    -4.5420     0.0000    24.0000 </r>
       <r>    -4.4540     0.0000    24.0000 </r>
       <r>    -4.3660     0.0000    24.0000 </r>
       <r>    -4.2780     0.0001    24.0000 </r>
       <r>    -4.1900     0.0014    24.0001 </r>
       <r>    -4.1020    -0.0038    23.9998 </r>
       <r>    -4.0140     0.0055    24.0003 </r>
       <r>    -3.9260     0.4899    24.0434 </r>
       <r>    -3.8380     0.9816    24.1298 </r>
       <r>    -3.7500     0.9120    24.2100 </r>
       <r>    -3.6620     2.2517    24.4082 </r>
       <r>    -3.5740     1.0967    24.5047 </r>
       <r>    -3.4860     2.2197    24.7000 </r>
       <r>    -3.3980     3.5958    25.0164 </r>
       <r>    -3.3100     1.3402    25.1344 </r>
       <r>    -3.2220     3.7732    25.4664 </r>
       <r>    -3.1340     2.1007    25.6512 </r>
       <r>    -3.0460     4.2649    26.0265 </r>
       <r>    -2.9580     7.8815    26.7201 </r>
       <r>    -2.8700     5.7943    27.2300 </r>
       <r>    -2.7820     9.2961    28.0480 </r>
       <r>    -2.6940     9.3851    28.8738 </r>
       <r>    -2.6060     8.1700    29.5928 </r>
       <r>    -2.5180     6.7195    30.1841 </r>
       <r>    -2.4300     6.2922    30.7378 </r>
       <r>    -2.3420     5.5551    31.2266 </r>
       <r>    -2.2540     5.4611    31.7072 </r>
       <r>    -2.1660     8.0403    32.4147 </r>
       <r>    -2.0780    11.5230    33.4287 </r>
       <r>    -1.9900    11.6847    34.4569 </r>
       <r>    -1.9021     9.8547    35.3241 </r>
       <r>    -1.8141    11.7908    36.3616 </r>
       <r>    -1.7261    12.5704    37.4678 </r>
       <r>    -1.6381     8.8132    38.2433 </r>
       <r>    -1.5501    11.2727    39.2353 </r>
       <r>    -1.4621     9.4473    40.0666 </r>
       <r>    -1.3741     5.2302    40.5269 </r>
       <r>    -1.2861     3.5091    40.8356 </r>
       <r>    -1.1981     0.8484    40.9103 </r>
       <r>    -1.1101     2.9109    41.1665 </r>
       <r>    -1.0221     4.1692    41.5333 </r>
       <r>    -0.9341     2.1954    41.7265 </r>
       <r>    -0.8461     5.2527    42.1887 </r>
       <r>    -0.7581     9.0545    42.9855 </r>
       <r>    -0.6701     9.6343    43.8333 </r>
       <r>    -0.5821     8.0830    44.5446 </r>
       <r>    -0.4941     9.9005    45.4158 </r>
       <r>    -0.4061     7.0377    46.0351 </r>
       <r>    -0.3181    10.0953    46.9234 </r>
       <r>    -0.2301    10.6811    47.8633 </r>
       <r>    -0.1421     6.0396    48.3948 </r>
       <r>    -0.0541     8.6351    49.1547 </r>
       <r>     0.0339     5.7223    49.6582 </r>
       <r>     0.1219     6.8147    50.2579 </r>
       <r>     0.2099     9.0512    51.0544 </r>
       <r>     0.2979    10.9629    52.0191 </r>
       <r>     0.3859    10.8933    52.9776 </r>
       <r>     0.4739     8.5320    53.7284 </r>
       <r>     0.5619    10.8374    54.6821 </r>
       <r>     0.6499    12.7876    55.8073 </r>
       <r>     0.7379    10.8246    56.7599 </r>
       <r>     0.8258    11.8878    57.8060 </r>
       <r>     0.9138     9.2870    58.6232 </r>
       <r>     1.0018    11.6128    59.6451 </r>
       <r>     1.0898    16.3309    61.0822 </r>
       <r>     1.1778    11.4438    62.0892 </r>
       <r>     1.2658     9.7111    62.9437 </r>
       <r>     1.3538    12.7545    64.0661 </r>
       <r>     1.4418    11.6360    65.0900 </r>
       <r>     1.5298    10.4599    66.0104 </r>
       <r>     1.6178    12.6368    67.1224 </r>
       <r>     1.7058    15.8087    68.5135 </r>
       <r>     1.7938    16.7966    69.9916 </r>
       <r>     1.8818    10.9961    70.9592 </r>
       <r>     1.9698    11.8202    71.9994 </r>
       <r>     2.0578     9.9332    72.8734 </r>
       <r>     2.1458    12.9215    74.0105 </r>
       <r>     2.2338    11.6713    75.0375 </r>
       <r>     2.3218    11.2995    76.0319 </r>
       <r>     2.4098    12.5763    77.1385 </r>
       <r>     2.4978    11.8443    78.1808 </r>
       <r>     2.5858    11.8037    79.2195 </r>
       <r>     2.6738    12.3807    80.3089 </r>
       <r>     2.7618    11.0857    81.2844 </r>
       <r>     2.8498    11.4088    82.2884 </r>
       <r>     2.9378    11.2622    83.2794 </r>
       <r>     3.0258    10.7617    84.2264 </r>
       <r>     3.1138     9.0235    85.0205 </r>
       <r>     3.2018    10.5053    85.9449 </r>
       <r>     3.2898     8.5303    86.6955 </r>
       <r>     3.3778    10.2398    87.5966 </r>
       <r>     3.4658    10.1953    88.4937 </r>
       <r>     3.5537    10.6245    89.4287 </r>
       <r>     3.6417    14.6798    90.7204 </r>
       <r>     3.7297     9.4124    91.5487 </r>
       <r>     3.8177     6.9738    92.1624 </r>
       <r>     3.9057     9.3677    92.9867 </r>
       <r>     3.9937    13.1043    94.1398 </r>
       <r>     4.0817    12.9255    95.2772 </r>
       <r>     4.1697    11.9323    96.3272 </r>
       <r>     4.2577    13.3484    97.5019 </r>
       <r>     4.3457     8.9329    98.2879 </r>
       <r>     4.4337     7.9801    98.9901 </r>
       <r>     4.5217    11.8390   100.0319 </r>
       <r>     4.6097    15.2954   101.3779 </r>
       <r>     4.6977    20.4055   103.1735 </r>
       <r>     4.7857     8.7510   103.9436 </r>
       <r>     4.8737     7.7643   104.6268 </r>
       <r>     4.9617     8.5151   105.3761 </r>
       <r>     5.0497     7.1433   106.0047 </r>
       <r>     5.1377     5.2700   106.4684 </r>
       <r>     5.2257    12.3667   107.5567 </r>
       <r>     5.3137    17.0397   109.0561 </r>
       <r>     5.4017    14.6862   110.3484 </r>
       <r>     5.4897    16.4450   111.7955 </r>
       <r>     5.5777    11.4932   112.8069 </r>
       <r>     5.6657     6.5351   113.3820 </r>
       <r>     5.7537     4.6988   113.7955 </r>
       <r>     5.8417     6.8974   114.4024 </r>
       <r>     5.9297     7.8676   115.0947 </r>
       <r>     6.0177     9.2148   115.9056 </r>
       <r>     6.1057    11.5222   116.9195 </r>
       <r>     6.1937    12.5807   118.0266 </r>
       <r>     6.2816     9.9109   118.8987 </r>
       <r>     6.3696     6.6487   119.4838 </r>
       <r>     6.4576     3.4041   119.7833 </r>
       <r>     6.5456     3.5782   120.0982 </r>
       <r>     6.6336    10.0061   120.9787 </r>
       <r>     6.7216     7.9581   121.6790 </r>
       <r>     6.8096     0.9534   121.7629 </r>
       <r>     6.8976    -0.1752   121.7475 </r>
       <r>     6.9856     0.0259   121.7497 </r>
       <r>     7.0736     0.0052   121.7502 </r>
       <r>     7.1616    -0.0009   121.7501 </r>
       <r>     7.2496    -0.0106   121.7492 </r>
       <r>     7.3376     0.5265   121.7955 </r>
       <r>     7.4256     2.2912   121.9971 </r>
       <r>     7.5136     4.5133   122.3943 </r>
       <r>     7.6016     7.9128   123.0906 </r>
       <r>     7.6896    17.6696   124.6454 </r>
       <r>     7.7776    12.7260   125.7653 </r>
       <r>     7.8656     4.5440   126.1651 </r>
       <r>     7.9536     1.0135   126.2543 </r>
       <r>     8.0416    -0.0585   126.2492 </r>
       <r>     8.1296     0.0055   126.2497 </r>
       <r>     8.2176     0.0037   126.2500 </r>
       <r>     8.3056     0.0001   126.2500 </r>
       <r>     8.3936     0.0000   126.2500 </r>
       <r>     8.4816     0.0000   126.2500 </r>
       <r>     8.5696     0.0000   126.2500 </r>
       <r>     8.6576     0.0000   126.2500 </r>
       <r>     8.7456     0.0031   126.2503 </r>
       <r>     8.8336     0.0225   126.2523 </r>
       <r>     8.9216    -0.2672   126.2287 </r>
       <r>     9.0095     1.7191   126.3800 </r>
       <r>     9.0975     4.1451   126.7448 </r>
       <r>     9.1855     0.1232   126.7556 </r>
       <r>     9.2735    -0.0831   126.7483 </r>
       <r>     9.3615     0.0424   126.7520 </r>
       <r>     9.4495     0.1452   126.7648 </r>
       <r>     9.5375     0.6881   126.8254 </r>
       <r>     9.6255     1.3907   126.9477 </r>
       <r>     9.7135     1.3592   127.0674 </r>
       <r>     9.8015     2.2247   127.2631 </r>
       <r>     9.8895     3.1237   127.5380 </r>
       <r>     9.9775     6.2039   128.0839 </r>
       <r>    10.0655    11.8516   129.1268 </r>
       <r>    10.1535    16.2086   130.5531 </r>
       <r>    10.2415    15.6951   131.9342 </r>
       <r>    10.3295     9.4003   132.7614 </r>
       <r>    10.4175     9.1651   133.5679 </r>
       <r>    10.5055    10.2423   134.4692 </r>
       <r>    10.5935     8.1273   135.1844 </r>
       <r>    10.6815     4.9160   135.6170 </r>
       <r>    10.7695     6.0700   136.1511 </r>
       <r>    10.8575     4.8095   136.5744 </r>
       <r>    10.9455     7.1601   137.2044 </r>
       <r>    11.0335     7.5503   137.8688 </r>
       <r>    11.1215    13.1610   139.0269 </r>
       <r>    11.2095    11.7637   140.0621 </r>
       <r>    11.2975     7.2724   140.7021 </r>
       <r>    11.3855    10.9543   141.6660 </r>
       <r>    11.4735    11.3445   142.6643 </r>
       <r>    11.5615    10.1920   143.5612 </r>
       <r>    11.6495     9.1016   144.3621 </r>
       <r>    11.7375     9.7681   145.2216 </r>
       <r>    11.8254    13.3589   146.3972 </r>
       <r>    11.9134    14.0457   147.6331 </r>
       <r>    12.0014    12.4805   148.7314 </r>
       <r>    12.0894    13.6034   149.9284 </r>
       <r>    12.1774    17.1841   151.4406 </r>
       <r>    12.2654    18.5074   153.0692 </r>
       <r>    12.3534    18.3211   154.6814 </r>
       <r>    12.4414    16.1929   156.1063 </r>
       <r>    12.5294    18.2075   157.7085 </r>
       <r>    12.6174    13.8810   158.9300 </r>
       <r>    12.7054     7.9163   159.6266 </r>
       <r>    12.7934     3.5153   159.9359 </r>
       <r>    12.8814     0.5370   159.9832 </r>
       <r>    12.9694     0.1871   159.9997 </r>
       <r>    13.0574     0.0040   160.0000 </r>
       <r>    13.1454    -0.0009   159.9999 </r>
       <r>    13.2334     0.0008   160.0000 </r>
       <r>    13.3214     0.0000   160.0000 </r>
       <r>    13.4094     0.0000   160.0000 </r>
       <r>    13.4974     0.0000   160.0000 </r>
       <r>    13.5854     0.0000   160.0000 </r>
       <r>    13.6734     0.0000   160.0000 </r>
       <r>    13.7614     0.0000   160.0000 </r>
       <r>    13.8494     0.0000   160.0000 </r>
       <r>    13.9374     0.0000   160.0000 </r>
       <r>    14.0254     0.0000   160.0000 </r>
       <r>    14.1134     0.0000   160.0000 </r>
      </set>
     </set>
    </array>
   </total>
  </dos>
 </calculation>
 <structure name="finalpos" >
  <crystal>
   <varray name="basis" >
    <v>       4.27151656      -7.39848370       0.00000000 </v>
    <v>       4.27151656       7.39848370       0.00000000 </v>
    <v>       0.00000000       0.00000000       5.47394832 </v>
   </varray>
   <i name="volume">    345.98359300 </i>
   <varray name="rec_basis" >
    <v>       0.11705445      -0.06758142       0.00000000 </v>
    <v>       0.11705445       0.06758142       0.00000000 </v>
    <v>       0.00000000       0.00000000       0.18268349 </v>
   </varray>
  </crystal>
  <varray name="positions" >
   <v>       0.00839469       0.64724038       0.21315835 </v>
   <v>       0.63884570       0.99160531       0.21315835 </v>
   <v>       0.91418376       0.32169803       0.99202383 </v>
   <v>       0.64724038       0.00839469       0.71315835 </v>
   <v>       0.08581624       0.40751427       0.49202383 </v>
   <v>       0.32169803       0.91418376       0.49202383 </v>
   <v>       0.35275962       0.36115430       0.21315835 </v>
   <v>       0.59248573       0.67830197       0.49202383 </v>
   <v>       0.99160531       0.63884570       0.71315835 </v>
   <v>       0.36115430       0.35275962       0.71315835 </v>
   <v>       0.67830197       0.59248573       0.99202383 </v>
   <v>       0.40751427       0.08581624       0.99202383 </v>
   <v>       0.21326158       0.30043213       0.46673433 </v>
   <v>       0.08717055       0.78673842       0.46673433 </v>
   <v>       0.30043213       0.21326158       0.96673433 </v>
   <v>       0.69956787       0.91282945       0.46673433 </v>
   <v>      -0.00000000      -0.00000000       0.95700159 </v>
   <v>       0.06688829       0.48443436       0.78256167 </v>
   <v>      -0.00000000      -0.00000000       0.45700159 </v>
   <v>       0.66666667       0.33333333       0.47569153 </v>
   <v>       0.58245393       0.51556564       0.28256167 </v>
   <v>       0.78673842       0.08717055       0.96673433 </v>
   <v>       0.91282945       0.69956787       0.96673433 </v>
   <v>       0.33333333       0.66666667       0.97569153 </v>
   <v>       0.93311171       0.41754607       0.28256167 </v>
   <v>       0.41754607       0.93311171       0.78256167 </v>
   <v>       0.51556564       0.58245393       0.78256167 </v>
   <v>       0.48443436       0.06688829       0.28256167 </v>
  </varray>
 </structure>
</modeling>
