unknown system                          
           1
     4.271517   -7.398484    0.000000
     4.271517    7.398484    0.000000
     0.000000    0.000000    5.473948
   Si   N 
  12  16
Direct configuration=     1
   0.00847736  0.64712623  0.21326215
   0.63864887  0.99152264  0.21326215
   0.91417805  0.32157747  0.99187268
   0.64712623  0.00847736  0.71326215
   0.08582195  0.40739942  0.49187268
   0.32157747  0.91417805  0.49187268
   0.35287377  0.36135113  0.21326215
   0.59260058  0.67842253  0.49187268
   0.99152264  0.63864887  0.71326215
   0.36135113  0.35287377  0.71326215
   0.67842253  0.59260058  0.99187268
   0.40739942  0.08582195  0.99187268
   0.21311138  0.30040483  0.46674092
   0.08729345  0.78688862  0.46674092
   0.30040483  0.21311138  0.96674092
   0.69959517  0.91270655  0.46674092
   0.00000000  0.00000000  0.95692726
   0.06686359  0.48449764  0.78259872
   0.00000000  0.00000000  0.45692726
   0.66666667  0.33333333  0.47577702
   0.58236595  0.51550236  0.28259872
   0.78688862  0.08729345  0.96674092
   0.91270655  0.69959517  0.96674092
   0.33333333  0.66666667  0.97577702
   0.93313641  0.41763405  0.28259872
   0.41763405  0.93313641  0.78259872
   0.51550236  0.58236595  0.78259872
   0.48449764  0.06686359  0.28259872
Direct configuration=     2
   0.00832537  0.64733609  0.21307132
   0.63901072  0.99167463  0.21307132
   0.91418855  0.32179912  0.99215057
   0.64733609  0.00832537  0.71307132
   0.08581145  0.40761057  0.49215057
   0.32179912  0.91418855  0.49215057
   0.35266391  0.36098928  0.21307132
   0.59238943  0.67820088  0.49215057
   0.99167463  0.63901072  0.71307132
   0.36098928  0.35266391  0.71307132
   0.67820088  0.59238943  0.99215057
   0.40761057  0.08581145  0.99215057
   0.21338752  0.30045503  0.46672881
   0.08706751  0.78661248  0.46672881
   0.30045503  0.21338752  0.96672881
   0.69954497  0.91293249  0.46672881
  -0.00000000 -0.00000000  0.95706390
   0.06690899  0.48438131  0.78253061
  -0.00000000 -0.00000000  0.45706390
   0.66666667  0.33333333  0.47561985
   0.58252769  0.51561869  0.28253061
   0.78661248  0.08706751  0.96672881
   0.91293249  0.69954497  0.96672881
   0.33333333  0.66666667  0.97561985
   0.93309101  0.41747231  0.28253061
   0.41747231  0.93309101  0.78253061
   0.51561869  0.58252769  0.78253061
   0.48438131  0.06690899  0.28253061
Direct configuration=     3
   0.00839469  0.64724038  0.21315835
   0.63884570  0.99160531  0.21315835
   0.91418376  0.32169803  0.99202383
   0.64724038  0.00839469  0.71315835
   0.08581624  0.40751427  0.49202383
   0.32169803  0.91418376  0.49202383
   0.35275962  0.36115430  0.21315835
   0.59248573  0.67830197  0.49202383
   0.99160531  0.63884570  0.71315835
   0.36115430  0.35275962  0.71315835
   0.67830197  0.59248573  0.99202383
   0.40751427  0.08581624  0.99202383
   0.21326158  0.30043213  0.46673433
   0.08717055  0.78673842  0.46673433
   0.30043213  0.21326158  0.96673433
   0.69956787  0.91282945  0.46673433
  -0.00000000 -0.00000000  0.95700159
   0.06688829  0.48443436  0.78256167
  -0.00000000 -0.00000000  0.45700159
   0.66666667  0.33333333  0.47569153
   0.58245393  0.51556564  0.28256167
   0.78673842  0.08717055  0.96673433
   0.91282945  0.69956787  0.96673433
   0.33333333  0.66666667  0.97569153
   0.93311171  0.41754607  0.28256167
   0.41754607  0.93311171  0.78256167
   0.51556564  0.58245393  0.78256167
   0.48443436  0.06688829  0.28256167
