  56  56   0   0
  0.1094660E+02  0.8494852E-09  0.8494852E-09  0.8494852E-09  0.5000000E-15
  1.000000000000000E-004
  CAR 
 unknown system                          
     15.19887510    -10.49658375  301     10.09592087      1.00000000
    -10.497  0.0000E+00  0.0000E+00
    -10.411  0.0000E+00  0.0000E+00
    -10.325  0.0000E+00  0.0000E+00
    -10.240  0.0000E+00  0.0000E+00
    -10.154  0.3654E-30  0.3129E-31
    -10.068  0.1725E-24  0.1477E-25
     -9.983  0.1797E-19  0.1540E-20
     -9.897  0.4095E-15  0.3507E-16
     -9.811  0.2004E-11  0.1717E-12
     -9.726  0.2070E-08  0.1775E-09
     -9.640  0.4392E-06  0.3779E-07
     -9.554  0.1767E-04  0.1551E-05
     -9.469  0.6445E-04  0.7072E-05
     -9.383 -0.6171E-03 -0.4578E-04
     -9.297  0.4613E-02  0.3493E-03
     -9.212  0.2508E-01  0.2497E-02
     -9.126  0.3013E-01  0.5078E-02
     -9.041  0.6064E-01  0.1027E-01
     -8.955  0.4202E-01  0.1387E-01
     -8.869  0.7253E-01  0.2008E-01
     -8.784  0.8395E-01  0.2727E-01
     -8.698  0.9280E-01  0.3522E-01
     -8.612  0.9397E-01  0.4327E-01
     -8.527  0.1659E+00  0.5748E-01
     -8.441  0.1378E+00  0.6928E-01
     -8.355  0.1019E+00  0.7801E-01
     -8.270  0.2398E+00  0.9855E-01
     -8.184  0.2988E+00  0.1241E+00
     -8.098  0.2240E+00  0.1433E+00
     -8.013  0.1521E+00  0.1564E+00
     -7.927  0.3277E-01  0.1592E+00
     -7.841  0.7640E-01  0.1657E+00
     -7.756  0.3481E+00  0.1955E+00
     -7.670  0.2770E+00  0.2193E+00
     -7.584  0.2009E+00  0.2365E+00
     -7.499  0.9015E-01  0.2442E+00
     -7.413  0.3368E-01  0.2471E+00
     -7.327  0.8451E-01  0.2543E+00
     -7.242  0.1458E+00  0.2668E+00
     -7.156  0.6571E-01  0.2724E+00
     -7.071  0.4549E-01  0.2763E+00
     -6.985  0.1345E+00  0.2878E+00
     -6.899  0.1255E+00  0.2986E+00
     -6.814  0.5472E-01  0.3033E+00
     -6.728  0.5416E-01  0.3079E+00
     -6.642  0.6686E-01  0.3136E+00
     -6.557  0.3107E-01  0.3163E+00
     -6.471 -0.2839E-01  0.3139E+00
     -6.385  0.3144E+00  0.3408E+00
     -6.300  0.1263E+01  0.4490E+00
     -6.214  0.4200E+00  0.4850E+00
     -6.128 -0.6383E-01  0.4795E+00
     -6.043  0.4652E-02  0.4799E+00
     -5.957  0.1160E-02  0.4800E+00
     -5.871  0.1774E-04  0.4800E+00
     -5.786  0.4725E-07  0.4800E+00
     -5.700  0.2556E-10  0.4800E+00
     -5.614  0.2956E-14  0.4800E+00
     -5.529  0.0000E+00  0.4800E+00
     -5.443  0.0000E+00  0.4800E+00
     -5.357  0.0000E+00  0.4800E+00
     -5.272  0.0000E+00  0.4800E+00
     -5.186  0.0000E+00  0.4800E+00
     -5.101  0.0000E+00  0.4800E+00
     -5.015  0.0000E+00  0.4800E+00
     -4.929  0.0000E+00  0.4800E+00
     -4.844  0.0000E+00  0.4800E+00
     -4.758  0.0000E+00  0.4800E+00
     -4.672  0.0000E+00  0.4800E+00
     -4.587  0.0000E+00  0.4800E+00
     -4.501  0.0000E+00  0.4800E+00
     -4.415  0.0000E+00  0.4800E+00
     -4.330  0.0000E+00  0.4800E+00
     -4.244  0.0000E+00  0.4800E+00
     -4.158  0.0000E+00  0.4800E+00
     -4.073  0.0000E+00  0.4800E+00
     -3.987  0.0000E+00  0.4800E+00
     -3.901  0.0000E+00  0.4800E+00
     -3.816  0.0000E+00  0.4800E+00
     -3.730  0.0000E+00  0.4800E+00
     -3.644  0.0000E+00  0.4800E+00
     -3.559  0.0000E+00  0.4800E+00
     -3.473  0.0000E+00  0.4800E+00
     -3.388  0.0000E+00  0.4800E+00
     -3.302  0.0000E+00  0.4800E+00
     -3.216  0.0000E+00  0.4800E+00
     -3.131  0.0000E+00  0.4800E+00
     -3.045  0.0000E+00  0.4800E+00
     -2.959  0.0000E+00  0.4800E+00
     -2.874  0.0000E+00  0.4800E+00
     -2.788  0.0000E+00  0.4800E+00
     -2.702  0.0000E+00  0.4800E+00
     -2.617  0.0000E+00  0.4800E+00
     -2.531  0.0000E+00  0.4800E+00
     -2.445  0.0000E+00  0.4800E+00
     -2.360  0.0000E+00  0.4800E+00
     -2.274  0.0000E+00  0.4800E+00
     -2.188  0.0000E+00  0.4800E+00
     -2.103  0.0000E+00  0.4800E+00
     -2.017  0.0000E+00  0.4800E+00
     -1.931  0.0000E+00  0.4800E+00
     -1.846  0.0000E+00  0.4800E+00
     -1.760  0.0000E+00  0.4800E+00
     -1.674  0.7980E-29  0.4800E+00
     -1.589  0.3723E-23  0.4800E+00
     -1.503  0.3860E-18  0.4800E+00
     -1.418  0.8811E-14  0.4800E+00
     -1.332  0.4340E-10  0.4800E+00
     -1.246  0.4475E-07  0.4800E+00
     -1.161  0.9005E-05  0.4800E+00
     -1.075  0.2814E-03  0.4800E+00
     -0.989 -0.4053E-03  0.4800E+00
     -0.904 -0.2676E-02  0.4798E+00
     -0.818  0.6703E-01  0.4855E+00
     -0.732  0.1767E+00  0.5006E+00
     -0.647  0.3371E+00  0.5295E+00
     -0.561  0.3031E+00  0.5555E+00
     -0.475  0.4086E+00  0.5905E+00
     -0.390  0.3768E+00  0.6227E+00
     -0.304  0.3311E+00  0.6511E+00
     -0.218  0.2834E+00  0.6754E+00
     -0.133  0.2516E+00  0.6969E+00
     -0.047  0.2046E+00  0.7144E+00
      0.039  0.1124E+00  0.7241E+00
      0.124  0.2309E+00  0.7438E+00
      0.210  0.1908E+00  0.7602E+00
      0.296  0.2652E+00  0.7829E+00
      0.381  0.1940E+00  0.7995E+00
      0.467  0.1257E+00  0.8103E+00
      0.552  0.1857E+00  0.8262E+00
      0.638  0.1372E+00  0.8380E+00
      0.724  0.4618E-01  0.8419E+00
      0.809  0.1584E+00  0.8555E+00
      0.895  0.2075E+00  0.8732E+00
      0.981  0.2907E+00  0.8981E+00
      1.066  0.2671E+00  0.9210E+00
      1.152  0.2796E+00  0.9450E+00
      1.238  0.2028E+00  0.9623E+00
      1.323  0.1989E+00  0.9794E+00
      1.409  0.1506E+00  0.9923E+00
      1.495  0.2103E+00  0.1010E+01
      1.580  0.1545E+00  0.1024E+01
      1.666  0.1925E+00  0.1040E+01
      1.752  0.1358E+00  0.1052E+01
      1.837  0.9271E-01  0.1060E+01
      1.923  0.6805E-01  0.1065E+01
      2.009  0.3256E-01  0.1068E+01
      2.094  0.1708E+00  0.1083E+01
      2.180  0.2497E+00  0.1104E+01
      2.265  0.1040E+00  0.1113E+01
      2.351  0.3833E-01  0.1116E+01
      2.437  0.1521E+00  0.1129E+01
      2.522  0.3907E+00  0.1163E+01
      2.608  0.2370E+00  0.1183E+01
      2.694  0.2456E+00  0.1204E+01
      2.779  0.2851E+00  0.1229E+01
      2.865  0.3138E+00  0.1256E+01
      2.951  0.4143E+00  0.1291E+01
      3.036  0.3394E+00  0.1320E+01
      3.122  0.2118E+00  0.1338E+01
      3.208  0.3700E+00  0.1370E+01
      3.293  0.3629E+00  0.1401E+01
      3.379  0.2983E+00  0.1427E+01
      3.465  0.2579E+00  0.1449E+01
      3.550  0.2225E+00  0.1468E+01
      3.636  0.2356E+00  0.1488E+01
      3.722  0.2535E+00  0.1510E+01
      3.807  0.4802E+00  0.1551E+01
      3.893  0.4257E+00  0.1587E+01
      3.979  0.2418E+00  0.1608E+01
      4.064  0.2319E+00  0.1628E+01
      4.150  0.2886E+00  0.1652E+01
      4.235  0.1423E+00  0.1665E+01
      4.321  0.6420E-01  0.1670E+01
      4.407  0.1717E+00  0.1685E+01
      4.492  0.9996E-01  0.1693E+01
      4.578  0.1476E+00  0.1706E+01
      4.664  0.1434E+00  0.1718E+01
      4.749  0.1231E+00  0.1729E+01
      4.835  0.6493E-01  0.1734E+01
      4.921  0.1286E+00  0.1745E+01
      5.006  0.1575E+00  0.1759E+01
      5.092  0.4254E-01  0.1763E+01
      5.178  0.1510E+00  0.1776E+01
      5.263  0.1375E+00  0.1787E+01
      5.349  0.8960E-01  0.1795E+01
      5.435  0.3973E-01  0.1798E+01
      5.520  0.1975E+00  0.1815E+01
      5.606  0.2259E+00  0.1835E+01
      5.692  0.2371E+00  0.1855E+01
      5.777  0.3275E+00  0.1883E+01
      5.863  0.1762E+00  0.1898E+01
      5.949  0.1578E+00  0.1912E+01
      6.034  0.5321E-01  0.1916E+01
      6.120  0.4215E-01  0.1920E+01
      6.205  0.4818E-02  0.1920E+01
      6.291 -0.1044E-02  0.1920E+01
      6.377  0.6671E-02  0.1921E+01
      6.462  0.5329E-02  0.1921E+01
      6.548  0.7949E-03  0.1921E+01
      6.634  0.1596E-01  0.1923E+01
      6.719  0.3251E-01  0.1925E+01
      6.805  0.3638E-01  0.1928E+01
      6.891  0.1143E-01  0.1929E+01
      6.976  0.1548E-02  0.1930E+01
      7.062  0.6737E-01  0.1935E+01
      7.148  0.8462E-01  0.1943E+01
      7.233  0.6772E-01  0.1948E+01
      7.319  0.8369E-01  0.1956E+01
      7.405  0.9546E-01  0.1964E+01
      7.490  0.9637E-01  0.1972E+01
      7.576  0.5404E-01  0.1977E+01
      7.662  0.8009E-01  0.1983E+01
      7.747  0.1304E+00  0.1995E+01
      7.833  0.1143E+00  0.2004E+01
      7.918  0.1017E+00  0.2013E+01
      8.004  0.4093E-01  0.2017E+01
      8.090  0.1081E+00  0.2026E+01
      8.175  0.2017E+00  0.2043E+01
      8.261  0.1657E+00  0.2057E+01
      8.347  0.1756E+00  0.2072E+01
      8.432  0.1544E+00  0.2086E+01
      8.518  0.1010E+00  0.2094E+01
      8.604  0.2772E+00  0.2118E+01
      8.689  0.3475E+00  0.2148E+01
      8.775  0.2249E+00  0.2167E+01
      8.861  0.2286E+00  0.2187E+01
      8.946  0.2572E+00  0.2209E+01
      9.032  0.2253E+00  0.2228E+01
      9.118  0.2179E+00  0.2247E+01
      9.203  0.1902E+00  0.2263E+01
      9.289  0.1947E+00  0.2280E+01
      9.375  0.1470E+00  0.2292E+01
      9.460  0.1740E+00  0.2307E+01
      9.546  0.2694E+00  0.2330E+01
      9.632  0.3083E+00  0.2357E+01
      9.717  0.2133E+00  0.2375E+01
      9.803  0.2200E+00  0.2394E+01
      9.888  0.1667E+00  0.2408E+01
      9.974  0.4037E+00  0.2443E+01
     10.060  0.3829E+00  0.2475E+01
     10.145  0.6903E-01  0.2481E+01
     10.231  0.4688E-01  0.2485E+01
     10.317  0.6806E-01  0.2491E+01
     10.402  0.6427E-01  0.2497E+01
     10.488  0.1520E+00  0.2510E+01
     10.574  0.9920E-01  0.2518E+01
     10.659  0.2193E-01  0.2520E+01
     10.745  0.1504E+00  0.2533E+01
     10.831  0.2877E+00  0.2558E+01
     10.916  0.2953E+00  0.2583E+01
     11.002  0.2741E+00  0.2606E+01
     11.088  0.1604E+00  0.2620E+01
     11.173  0.1564E+00  0.2633E+01
     11.259  0.2121E+00  0.2652E+01
     11.345  0.2845E+00  0.2676E+01
     11.430  0.2994E+00  0.2702E+01
     11.516  0.2156E+00  0.2720E+01
     11.602  0.2874E+00  0.2745E+01
     11.687  0.3295E+00  0.2773E+01
     11.773  0.3380E+00  0.2802E+01
     11.858  0.2852E+00  0.2826E+01
     11.944  0.1789E+00  0.2842E+01
     12.030  0.2006E+00  0.2859E+01
     12.115  0.3559E+00  0.2889E+01
     12.201  0.3765E+00  0.2922E+01
     12.287  0.2908E+00  0.2946E+01
     12.372  0.1367E+00  0.2958E+01
     12.458  0.1681E+00  0.2973E+01
     12.544  0.2365E+00  0.2993E+01
     12.629  0.1469E+00  0.3005E+01
     12.715  0.1931E+00  0.3022E+01
     12.801  0.3100E+00  0.3048E+01
     12.886  0.7932E-01  0.3055E+01
     12.972  0.1219E+00  0.3066E+01
     13.058  0.1594E+00  0.3079E+01
     13.143  0.1251E+00  0.3090E+01
     13.229  0.1181E+00  0.3100E+01
     13.315  0.8382E-01  0.3107E+01
     13.400  0.4127E-01  0.3111E+01
     13.486  0.3241E-01  0.3114E+01
     13.571  0.2837E-01  0.3116E+01
     13.657  0.1581E-01  0.3117E+01
     13.743  0.1141E-01  0.3118E+01
     13.828  0.1413E-01  0.3120E+01
     13.914  0.2879E-06  0.3120E+01
     14.000  0.9829E-03  0.3120E+01
     14.085  0.2711E-02  0.3120E+01
     14.171  0.5843E-04  0.3120E+01
     14.257 -0.5546E-04  0.3120E+01
     14.342  0.1111E-04  0.3120E+01
     14.428  0.4346E-06  0.3120E+01
     14.514  0.2274E-08  0.3120E+01
     14.599  0.2226E-11  0.3120E+01
     14.685  0.4478E-15  0.3120E+01
     14.771  0.0000E+00  0.3120E+01
     14.856  0.0000E+00  0.3120E+01
     14.942  0.0000E+00  0.3120E+01
     15.028  0.0000E+00  0.3120E+01
     15.113  0.0000E+00  0.3120E+01
     15.199  0.0000E+00  0.3120E+01
