   56   56  100    1
  0.1094660E+02  0.8494852E-09  0.8494852E-09  0.8494852E-09  0.5000000E-15
  1.000000000000000E-004
  CAR 
 unknown system                          
    248     10    156
 
  0.3742002E-15  0.3742002E-15  0.3742002E-15  0.8000000E-02
    1       -9.328608   1.000000
    2       -8.355976   1.000000
    3       -8.355976   1.000000
    4       -8.355976   1.000000
    5       -8.355976   1.000000
    6       -8.355976   1.000000
    7       -8.355976   1.000000
    8       -7.962883   1.000000
    9       -7.533985   1.000000
   10       -7.533985   1.000000
   11       -7.533985   1.000000
   12       -7.533985   1.000000
   13       -7.533985   1.000000
   14       -7.533985   1.000000
   15       -7.505893   1.000000
   16       -6.419738   1.000000
   17       -6.419738   1.000000
   18       -6.419738   1.000000
   19       -6.419738   1.000000
   20       -6.419738   1.000000
   21       -6.419738   1.000000
   22       -6.286821   1.000000
   23       -6.286821   1.000000
   24       -6.286821   1.000000
   25       -0.823132   1.000000
   26       -0.823132   1.000000
   27       -0.823132   1.000000
   28       -0.719980   1.000000
   29       -0.388065   1.000000
   30       -0.388065   1.000000
   31       -0.388065   1.000000
   32       -0.388065   1.000000
   33       -0.388065   1.000000
   34       -0.388065   1.000000
   35        0.350624   1.000000
   36        0.350624   1.000000
   37        0.350624   1.000000
   38        0.350624   1.000000
   39        0.350624   1.000000
   40        0.350624   1.000000
   41        0.816935   1.000000
   42        0.816935   1.000000
   43        0.816935   1.000000
   44        1.150683   1.000000
   45        1.150683   1.000000
   46        1.150683   1.000000
   47        1.150683   1.000000
   48        1.150683   1.000000
   49        1.150683   1.000000
   50        1.582817   1.000000
   51        1.582817   1.000000
   52        1.584354   1.000000
   53        1.584354   1.000000
   54        1.584354   1.000000
   55        1.584354   1.000000
   56        1.584354   1.000000
   57        1.584354   1.000000
   58        2.971274   1.000000
   59        2.971274   1.000000
   60        2.971274   1.000000
   61        2.971274   1.000000
   62        2.971274   1.000000
   63        2.971274   1.000000
   64        3.111049   1.000000
   65        3.111049   1.000000
   66        3.111049   1.000000
   67        3.111049   1.000000
   68        3.111049   1.000000
   69        3.111049   1.000000
   70        3.112573   1.000000
   71        3.112573   1.000000
   72        3.112573   1.000000
   73        3.112573   1.000000
   74        3.112573   1.000000
   75        3.112573   1.000000
   76        3.338924   1.000000
   77        3.338924   1.000000
   78        3.338924   1.000000
   79        3.753133   1.000000
   80        3.753133   1.000000
   81        3.753133   1.000000
   82        3.753133   1.000000
   83        3.753133   1.000000
   84        3.753133   1.000000
   85        5.005617   1.000000
   86        5.005617   1.000000
   87        5.005617   1.000000
   88        5.467813   1.000000
   89        5.674507   1.000000
   90        5.674507   1.000000
   91        5.674507   1.000000
   92        5.674507   1.000000
   93        5.674507   1.000000
   94        5.674507   1.000000
   95        6.144799   1.000000
   96        6.144799   1.000000
   97        6.144799   1.000000
   98        8.252572   1.000000
   99        8.252572   1.000000
  100        8.252572   1.000000
  101        8.393500   1.000000
  102        8.393500   1.000000
  103        8.393500   1.000000
  104        8.393500   1.000000
  105        8.393500   1.000000
  106        8.393500   1.000000
  107        9.072069   1.000000
  108        9.072069   1.000000
  109        9.072069   1.000000
  110        9.072069   1.000000
  111        9.072069   1.000000
  112        9.072069   1.000000
  113        9.208507   1.000000
  114        9.208507   1.000000
  115        9.208507   1.000000
  116        9.208507   1.000000
  117        9.208507   1.000000
  118        9.208507   1.000000
  119        9.360999   1.000000
  120        9.360999   1.000000
  121        9.360999   1.000000
  122        9.595553   1.000000
  123        9.595553   1.000000
  124        9.595553   1.000000
  125        9.595553   1.000000
  126        9.595553   1.000000
  127        9.595553   1.000000
  128       11.121270   0.000000
  129       11.306190   0.000000
  130       11.306190   0.000000
  131       11.306190   0.000000
  132       11.306190   0.000000
  133       11.306190   0.000000
  134       11.306190   0.000000
  135       11.485727   0.000000
  136       11.485727   0.000000
  137       11.645210   0.000000
  138       11.645210   0.000000
  139       11.645210   0.000000
  140       11.645210   0.000000
  141       11.645210   0.000000
  142       11.645210   0.000000
  143       11.693797   0.000000
  144       11.693797   0.000000
  145       11.693797   0.000000
  146       11.693797   0.000000
  147       11.693797   0.000000
  148       11.693797   0.000000
  149       12.604460   0.000000
  150       12.644473   0.000000
  151       12.644473   0.000000
  152       12.644473   0.000000
  153       13.224624   0.000000
  154       13.224629   0.000000
  155       14.011240   0.000000
  156       14.030900   0.000000
 
  0.2000000E+00  0.3742002E-15  0.3742002E-15  0.4800000E-01
    1       -9.277876   1.000000
    2       -8.617645   1.000000
    3       -8.341749   1.000000
    4       -8.341749   1.000000
    5       -8.341749   1.000000
    6       -8.341749   1.000000
    7       -8.185877   1.000000
    8       -7.978988   1.000000
    9       -7.637669   1.000000
   10       -7.571613   1.000000
   11       -7.571613   1.000000
   12       -7.571613   1.000000
   13       -7.571613   1.000000
   14       -7.527228   1.000000
   15       -7.273694   1.000000
   16       -6.407400   1.000000
   17       -6.407400   1.000000
   18       -6.389495   1.000000
   19       -6.389495   1.000000
   20       -6.389495   1.000000
   21       -6.389495   1.000000
   22       -6.367567   1.000000
   23       -6.299971   1.000000
   24       -6.299971   1.000000
   25       -0.802614   1.000000
   26       -0.802614   1.000000
   27       -0.704549   1.000000
   28       -0.613164   1.000000
   29       -0.457620   1.000000
   30       -0.457620   1.000000
   31       -0.355414   1.000000
   32       -0.355414   1.000000
   33       -0.355414   1.000000
   34       -0.355414   1.000000
   35        0.107941   1.000000
   36        0.254376   1.000000
   37        0.254376   1.000000
   38        0.254376   1.000000
   39        0.254376   1.000000
   40        0.455266   1.000000
   41        0.476897   1.000000
   42        0.720530   1.000000
   43        0.929317   1.000000
   44        0.929317   1.000000
   45        1.133902   1.000000
   46        1.133902   1.000000
   47        1.133902   1.000000
   48        1.133902   1.000000
   49        1.346254   1.000000
   50        1.614226   1.000000
   51        1.614226   1.000000
   52        1.614226   1.000000
   53        1.614226   1.000000
   54        1.621252   1.000000
   55        1.621252   1.000000
   56        1.642118   1.000000
   57        2.090605   1.000000
   58        2.497442   1.000000
   59        2.705650   1.000000
   60        2.705650   1.000000
   61        2.705650   1.000000
   62        2.705650   1.000000
   63        2.943624   1.000000
   64        2.943624   1.000000
   65        3.043585   1.000000
   66        3.129837   1.000000
   67        3.129837   1.000000
   68        3.129837   1.000000
   69        3.129837   1.000000
   70        3.279992   1.000000
   71        3.279992   1.000000
   72        3.335547   1.000000
   73        3.368424   1.000000
   74        3.500313   1.000000
   75        3.536816   1.000000
   76        3.536816   1.000000
   77        3.536816   1.000000
   78        3.536816   1.000000
   79        3.783620   1.000000
   80        3.783620   1.000000
   81        3.783620   1.000000
   82        3.783620   1.000000
   83        3.937767   1.000000
   84        3.937767   1.000000
   85        4.837829   1.000000
   86        4.837829   1.000000
   87        4.877584   1.000000
   88        5.317350   1.000000
   89        5.505696   1.000000
   90        5.505696   1.000000
   91        5.505696   1.000000
   92        5.505696   1.000000
   93        5.699590   1.000000
   94        5.699590   1.000000
   95        6.056002   1.000000
   96        6.056002   1.000000
   97        6.373393   1.000000
   98        7.790782   1.000000
   99        8.289058   1.000000
  100        8.301004   1.000000
  101        8.424315   1.000000
  102        8.424315   1.000000
  103        8.424315   1.000000
  104        8.424315   1.000000
  105        8.592274   1.000000
  106        8.592274   1.000000
  107        8.712926   1.000000
  108        8.712926   1.000000
  109        8.712926   1.000000
  110        8.712926   1.000000
  111        8.895973   1.000000
  112        9.035270   1.000000
  113        9.036497   1.000000
  114        9.036497   1.000000
  115        9.210349   1.000000
  116        9.210349   1.000000
  117        9.210349   1.000000
  118        9.210349   1.000000
  119        9.336050   1.000000
  120        9.336050   1.000000
  121        9.840864   0.998228
  122        9.840864   0.998228
  123        9.906276   0.995633
  124       10.057915   0.860219
  125       10.057915   0.860219
  126       10.057915   0.860219
  127       10.057915   0.860219
  128       10.948227   0.000000
  129       10.948227   0.000000
  130       10.948227   0.000000
  131       10.948227   0.000000
  132       11.243898   0.000000
  133       11.301795   0.000000
  134       11.400104   0.000000
  135       11.445831   0.000000
  136       11.481141   0.000000
  137       11.483881   0.000000
  138       11.483881   0.000000
  139       11.553837   0.000000
  140       11.684389   0.000000
  141       11.684389   0.000000
  142       11.684389   0.000000
  143       11.684389   0.000000
  144       12.027792   0.000000
  145       12.027792   0.000000
  146       12.027792   0.000000
  147       12.027792   0.000000
  148       12.259015   0.000000
  149       12.506699   0.000000
  150       12.593986   0.000000
  151       12.593987   0.000000
  152       12.806519   0.000000
  153       12.977306   0.000000
  154       13.367323   0.000000
  155       13.743086   0.000000
  156       13.773842   0.000000
 
  0.4000000E+00  0.3742002E-15  0.3742002E-15  0.4800000E-01
    1       -9.129631   1.000000
    2       -8.898526   1.000000
    3       -8.316420   1.000000
    4       -8.316420   1.000000
    5       -8.316420   1.000000
    6       -8.316420   1.000000
    7       -8.089066   1.000000
    8       -8.023147   1.000000
    9       -7.631822   1.000000
   10       -7.631822   1.000000
   11       -7.631822   1.000000
   12       -7.631822   1.000000
   13       -7.631081   1.000000
   14       -7.579295   1.000000
   15       -6.923902   1.000000
   16       -6.595195   1.000000
   17       -6.374946   1.000000
   18       -6.374946   1.000000
   19       -6.343308   1.000000
   20       -6.343308   1.000000
   21       -6.343308   1.000000
   22       -6.343308   1.000000
   23       -6.333855   1.000000
   24       -6.333855   1.000000
   25       -0.730815   1.000000
   26       -0.730815   1.000000
   27       -0.602455   1.000000
   28       -0.602455   1.000000
   29       -0.371373   1.000000
   30       -0.306203   1.000000
   31       -0.275004   1.000000
   32       -0.275004   1.000000
   33       -0.275004   1.000000
   34       -0.275004   1.000000
   35        0.002088   1.000000
   36        0.079913   1.000000
   37        0.079913   1.000000
   38        0.079913   1.000000
   39        0.079913   1.000000
   40        0.093774   1.000000
   41        0.134805   1.000000
   42        0.179155   1.000000
   43        1.107783   1.000000
   44        1.107783   1.000000
   45        1.107783   1.000000
   46        1.107783   1.000000
   47        1.217857   1.000000
   48        1.217857   1.000000
   49        1.528654   1.000000
   50        1.528654   1.000000
   51        1.676537   1.000000
   52        1.676537   1.000000
   53        1.676537   1.000000
   54        1.676537   1.000000
   55        1.794797   1.000000
   56        1.818618   1.000000
   57        2.106854   1.000000
   58        2.429532   1.000000
   59        2.448566   1.000000
   60        2.448566   1.000000
   61        2.448566   1.000000
   62        2.448566   1.000000
   63        2.859444   1.000000
   64        2.889539   1.000000
   65        2.889539   1.000000
   66        3.097547   1.000000
   67        3.097547   1.000000
   68        3.374310   1.000000
   69        3.392108   1.000000
   70        3.392108   1.000000
   71        3.392108   1.000000
   72        3.392108   1.000000
   73        3.680331   1.000000
   74        3.680331   1.000000
   75        3.680331   1.000000
   76        3.680331   1.000000
   77        4.016406   1.000000
   78        4.016406   1.000000
   79        4.016406   1.000000
   80        4.016406   1.000000
   81        4.036935   1.000000
   82        4.041135   1.000000
   83        4.213372   1.000000
   84        4.213372   1.000000
   85        4.507288   1.000000
   86        4.507288   1.000000
   87        4.529278   1.000000
   88        4.769261   1.000000
   89        5.175768   1.000000
   90        5.175768   1.000000
   91        5.175768   1.000000
   92        5.175768   1.000000
   93        5.782298   1.000000
   94        5.782298   1.000000
   95        5.909707   1.000000
   96        5.909707   1.000000
   97        6.997805   1.000000
   98        7.540049   1.000000
   99        7.703793   1.000000
  100        7.998898   1.000000
  101        8.237834   1.000000
  102        8.237834   1.000000
  103        8.237834   1.000000
  104        8.237834   1.000000
  105        8.557889   1.000000
  106        8.722190   1.000000
  107        8.722190   1.000000
  108        8.722190   1.000000
  109        8.722190   1.000000
  110        8.800688   1.000000
  111        9.056223   1.000000
  112        9.056223   1.000000
  113        9.083389   1.000000
  114        9.083389   1.000000
  115        9.178068   1.000000
  116        9.178068   1.000000
  117        9.178068   1.000000
  118        9.178068   1.000000
  119        9.499475   1.000000
  120        9.499475   1.000000
  121       10.028375   1.014022
  122       10.028375   1.014022
  123       10.247237  -0.009988
  124       10.247237  -0.009988
  125       10.247237  -0.009988
  126       10.247237  -0.009988
  127       10.803988   0.000000
  128       10.890488   0.000000
  129       10.890488   0.000000
  130       10.890488   0.000000
  131       10.890488   0.000000
  132       11.270954   0.000000
  133       11.355213   0.000000
  134       11.405185   0.000000
  135       11.405185   0.000000
  136       11.409702   0.000000
  137       11.423705   0.000000
  138       11.516000   0.000000
  139       11.751933   0.000000
  140       11.751933   0.000000
  141       11.751933   0.000000
  142       11.751933   0.000000
  143       11.786420   0.000000
  144       12.079173   0.000000
  145       12.079173   0.000000
  146       12.233596   0.000000
  147       12.339228   0.000000
  148       12.339228   0.000000
  149       12.339228   0.000000
  150       12.339228   0.000000
  151       12.395465   0.000000
  152       12.625859   0.000000
  153       13.295599   0.000000
  154       13.301105   0.000000
  155       13.493402   0.000000
  156       13.520018   0.000000
 
  0.2000000E+00  0.2000000E+00  0.3742002E-15  0.9600000E-01
    1       -9.227737   1.000000
    2       -8.584115   1.000000
    3       -8.584115   1.000000
    4       -8.355504   1.000000
    5       -8.313394   1.000000
    6       -8.192110   1.000000
    7       -8.192110   1.000000
    8       -7.995327   1.000000
    9       -7.727888   1.000000
   10       -7.682527   1.000000
   11       -7.682527   1.000000
   12       -7.552528   1.000000
   13       -7.448687   1.000000
   14       -7.305527   1.000000
   15       -7.305527   1.000000
   16       -6.455361   1.000000
   17       -6.402373   1.000000
   18       -6.382829   1.000000
   19       -6.382829   1.000000
   20       -6.376627   1.000000
   21       -6.376627   1.000000
   22       -6.338481   1.000000
   23       -6.306289   1.000000
   24       -6.294497   1.000000
   25       -0.851753   1.000000
   26       -0.690662   1.000000
   27       -0.683861   1.000000
   28       -0.483723   1.000000
   29       -0.483723   1.000000
   30       -0.438782   1.000000
   31       -0.409097   1.000000
   32       -0.377603   1.000000
   33       -0.377603   1.000000
   34       -0.206220   1.000000
   35       -0.071178   1.000000
   36        0.030644   1.000000
   37        0.030644   1.000000
   38        0.320366   1.000000
   39        0.391185   1.000000
   40        0.391185   1.000000
   41        0.443535   1.000000
   42        0.774725   1.000000
   43        0.774725   1.000000
   44        0.889227   1.000000
   45        1.042177   1.000000
   46        1.085232   1.000000
   47        1.116306   1.000000
   48        1.224641   1.000000
   49        1.224641   1.000000
   50        1.241739   1.000000
   51        1.585998   1.000000
   52        1.585998   1.000000
   53        1.721220   1.000000
   54        1.721220   1.000000
   55        1.985627   1.000000
   56        2.051397   1.000000
   57        2.262657   1.000000
   58        2.414415   1.000000
   59        2.684114   1.000000
   60        2.684114   1.000000
   61        2.729943   1.000000
   62        2.748050   1.000000
   63        2.748050   1.000000
   64        2.906558   1.000000
   65        2.906558   1.000000
   66        2.977862   1.000000
   67        3.015080   1.000000
   68        3.112878   1.000000
   69        3.243312   1.000000
   70        3.313277   1.000000
   71        3.315016   1.000000
   72        3.315016   1.000000
   73        3.444991   1.000000
   74        3.444991   1.000000
   75        3.663034   1.000000
   76        3.711320   1.000000
   77        3.711320   1.000000
   78        3.796957   1.000000
   79        3.804458   1.000000
   80        3.814567   1.000000
   81        3.896334   1.000000
   82        3.896334   1.000000
   83        4.128964   1.000000
   84        4.128964   1.000000
   85        4.466061   1.000000
   86        4.685109   1.000000
   87        4.953630   1.000000
   88        5.137080   1.000000
   89        5.142448   1.000000
   90        5.521404   1.000000
   91        5.521404   1.000000
   92        5.567650   1.000000
   93        5.567650   1.000000
   94        5.671643   1.000000
   95        5.948727   1.000000
   96        6.066747   1.000000
   97        6.600097   1.000000
   98        7.869269   1.000000
   99        7.869269   1.000000
  100        8.088220   1.000000
  101        8.276504   1.000000
  102        8.283823   1.000000
  103        8.283823   1.000000
  104        8.452259   1.000000
  105        8.452259   1.000000
  106        8.510238   1.000000
  107        8.668405   1.000000
  108        8.690015   1.000000
  109        8.704951   1.000000
  110        8.773055   1.000000
  111        8.787619   1.000000
  112        8.936424   1.000000
  113        8.936424   1.000000
  114        9.155307   1.000000
  115        9.180345   1.000000
  116        9.333841   1.000000
  117        9.602181   1.000000
  118        9.602181   1.000000
  119        9.705956   0.999998
  120        9.705956   0.999998
  121        9.711132   0.999998
  122        9.800084   0.999639
  123        9.800084   0.999639
  124        9.966288   1.028596
  125       10.376065   0.000708
  126       10.381031   0.000577
  127       10.381031   0.000577
  128       10.384572   0.000496
  129       10.814855   0.000000
  130       10.814855   0.000000
  131       11.078243   0.000000
  132       11.078243   0.000000
  133       11.184064   0.000000
  134       11.429943   0.000000
  135       11.429943   0.000000
  136       11.446794   0.000000
  137       11.491372   0.000000
  138       11.568663   0.000000
  139       11.608596   0.000000
  140       11.679304   0.000000
  141       11.679304   0.000000
  142       11.940930   0.000000
  143       11.961436   0.000000
  144       11.961436   0.000000
  145       12.115702   0.000000
  146       12.126562   0.000000
  147       12.439270   0.000000
  148       12.441995   0.000000
  149       12.443530   0.000000
  150       12.443531   0.000000
  151       12.516421   0.000000
  152       12.621291   0.000000
  153       13.000433   0.000000
  154       13.294798   0.000000
  155       13.299614   0.000000
  156       13.613553   0.000000
 
  0.4000000E+00  0.2000000E+00  0.3742002E-15  0.1920000E+00
    1       -9.081804   1.000000
    2       -8.855264   1.000000
    3       -8.496313   1.000000
    4       -8.400465   1.000000
    5       -8.264593   1.000000
    6       -8.217477   1.000000
    7       -8.104188   1.000000
    8       -8.039875   1.000000
    9       -7.811269   1.000000
   10       -7.771950   1.000000
   11       -7.673599   1.000000
   12       -7.613558   1.000000
   13       -7.394929   1.000000
   14       -7.359252   1.000000
   15       -6.968108   1.000000
   16       -6.665047   1.000000
   17       -6.370006   1.000000
   18       -6.356181   1.000000
   19       -6.353904   1.000000
   20       -6.351486   1.000000
   21       -6.324957   1.000000
   22       -6.322615   1.000000
   23       -6.318968   1.000000
   24       -6.304563   1.000000
   25       -0.816756   1.000000
   26       -0.668872   1.000000
   27       -0.622706   1.000000
   28       -0.503966   1.000000
   29       -0.500071   1.000000
   30       -0.433017   1.000000
   31       -0.362672   1.000000
   32       -0.241683   1.000000
   33       -0.142574   1.000000
   34       -0.134108   1.000000
   35       -0.111399   1.000000
   36       -0.078917   1.000000
   37        0.010973   1.000000
   38        0.041150   1.000000
   39        0.088672   1.000000
   40        0.216198   1.000000
   41        0.233321   1.000000
   42        0.321610   1.000000
   43        0.902640   1.000000
   44        0.905072   1.000000
   45        1.014060   1.000000
   46        1.037693   1.000000
   47        1.117268   1.000000
   48        1.319762   1.000000
   49        1.427285   1.000000
   50        1.436022   1.000000
   51        1.523593   1.000000
   52        1.656173   1.000000
   53        1.766829   1.000000
   54        1.811621   1.000000
   55        1.879909   1.000000
   56        2.174805   1.000000
   57        2.222096   1.000000
   58        2.467258   1.000000
   59        2.505247   1.000000
   60        2.540414   1.000000
   61        2.685340   1.000000
   62        2.708109   1.000000
   63        2.816669   1.000000
   64        2.916525   1.000000
   65        2.943171   1.000000
   66        3.114547   1.000000
   67        3.160837   1.000000
   68        3.161999   1.000000
   69        3.237139   1.000000
   70        3.330080   1.000000
   71        3.394403   1.000000
   72        3.404080   1.000000
   73        3.615084   1.000000
   74        3.674121   1.000000
   75        3.724172   1.000000
   76        3.743799   1.000000
   77        3.828370   1.000000
   78        3.843110   1.000000
   79        3.894644   1.000000
   80        3.968543   1.000000
   81        4.106515   1.000000
   82        4.120333   1.000000
   83        4.148046   1.000000
   84        4.372305   1.000000
   85        4.395152   1.000000
   86        4.558214   1.000000
   87        4.639837   1.000000
   88        4.889579   1.000000
   89        4.944179   1.000000
   90        5.163883   1.000000
   91        5.373437   1.000000
   92        5.528007   1.000000
   93        5.617519   1.000000
   94        5.706378   1.000000
   95        5.768490   1.000000
   96        5.907115   1.000000
   97        7.174591   1.000000
   98        7.539625   1.000000
   99        7.651667   1.000000
  100        7.667455   1.000000
  101        7.807835   1.000000
  102        7.925754   1.000000
  103        8.332014   1.000000
  104        8.372077   1.000000
  105        8.507776   1.000000
  106        8.591157   1.000000
  107        8.615212   1.000000
  108        8.616845   1.000000
  109        8.656728   1.000000
  110        8.932753   1.000000
  111        8.940736   1.000000
  112        8.975248   1.000000
  113        9.226493   1.000000
  114        9.240910   1.000000
  115        9.384607   1.000000
  116        9.475933   1.000000
  117        9.500872   1.000000
  118        9.565893   1.000000
  119        9.574472   1.000000
  120        9.598597   1.000000
  121        9.902363   0.995315
  122        9.934344   1.003737
  123        9.991075   1.049193
  124       10.005228   1.050652
  125       10.493785   0.000001
  126       10.739259   0.000000
  127       10.805150   0.000000
  128       10.849874   0.000000
  129       10.899346   0.000000
  130       10.906553   0.000000
  131       10.929555   0.000000
  132       11.007665   0.000000
  133       11.246237   0.000000
  134       11.322862   0.000000
  135       11.363120   0.000000
  136       11.425803   0.000000
  137       11.536165   0.000000
  138       11.597381   0.000000
  139       11.688378   0.000000
  140       11.692896   0.000000
  141       11.742190   0.000000
  142       11.759139   0.000000
  143       11.860179   0.000000
  144       12.046994   0.000000
  145       12.065568   0.000000
  146       12.242981   0.000000
  147       12.284259   0.000000
  148       12.296829   0.000000
  149       12.482520   0.000000
  150       12.520045   0.000000
  151       12.773545   0.000000
  152       12.774159   0.000000
  153       12.951182   0.000000
  154       13.020169   0.000000
  155       13.161188   0.000000
  156       13.195748   0.000000
 
  0.4000000E+00  0.4000000E+00  0.3742002E-15  0.9600000E-01
    1       -8.943267   1.000000
    2       -8.732765   1.000000
    3       -8.732765   1.000000
    4       -8.558930   1.000000
    5       -8.206705   1.000000
    6       -8.147175   1.000000
    7       -8.147175   1.000000
    8       -8.085229   1.000000
    9       -7.842031   1.000000
   10       -7.767699   1.000000
   11       -7.767699   1.000000
   12       -7.693448   1.000000
   13       -7.199926   1.000000
   14       -7.066142   1.000000
   15       -7.066142   1.000000
   16       -6.829285   1.000000
   17       -6.361006   1.000000
   18       -6.342594   1.000000
   19       -6.342594   1.000000
   20       -6.319622   1.000000
   21       -6.310188   1.000000
   22       -6.308145   1.000000
   23       -6.308145   1.000000
   24       -6.287452   1.000000
   25       -0.841202   1.000000
   26       -0.708495   1.000000
   27       -0.708495   1.000000
   28       -0.584926   1.000000
   29       -0.383710   1.000000
   30       -0.331667   1.000000
   31       -0.299431   1.000000
   32       -0.257338   1.000000
   33       -0.257338   1.000000
   34       -0.221723   1.000000
   35       -0.221723   1.000000
   36       -0.163920   1.000000
   37        0.077817   1.000000
   38        0.112179   1.000000
   39        0.112179   1.000000
   40        0.242674   1.000000
   41        0.321564   1.000000
   42        0.525419   1.000000
   43        0.601089   1.000000
   44        0.601089   1.000000
   45        0.869864   1.000000
   46        1.008679   1.000000
   47        1.008679   1.000000
   48        1.230299   1.000000
   49        1.393082   1.000000
   50        1.477131   1.000000
   51        1.477131   1.000000
   52        1.673045   1.000000
   53        1.873200   1.000000
   54        1.984015   1.000000
   55        2.066564   1.000000
   56        2.066564   1.000000
   57        2.563067   1.000000
   58        2.594215   1.000000
   59        2.594215   1.000000
   60        2.727395   1.000000
   61        2.876215   1.000000
   62        2.886671   1.000000
   63        2.886671   1.000000
   64        3.094389   1.000000
   65        3.145418   1.000000
   66        3.172953   1.000000
   67        3.178634   1.000000
   68        3.178634   1.000000
   69        3.227064   1.000000
   70        3.233221   1.000000
   71        3.233221   1.000000
   72        3.246782   1.000000
   73        3.498555   1.000000
   74        3.528336   1.000000
   75        3.528336   1.000000
   76        3.577956   1.000000
   77        3.724759   1.000000
   78        3.826685   1.000000
   79        3.826685   1.000000
   80        4.057206   1.000000
   81        4.069813   1.000000
   82        4.169970   1.000000
   83        4.169970   1.000000
   84        4.383128   1.000000
   85        4.545572   1.000000
   86        4.647720   1.000000
   87        4.647720   1.000000
   88        4.789257   1.000000
   89        5.031234   1.000000
   90        5.298354   1.000000
   91        5.298354   1.000000
   92        5.513746   1.000000
   93        5.670651   1.000000
   94        5.670651   1.000000
   95        5.709451   1.000000
   96        5.872381   1.000000
   97        7.222730   1.000000
   98        7.293671   1.000000
   99        7.293671   1.000000
  100        7.502503   1.000000
  101        7.614409   1.000000
  102        8.097199   1.000000
  103        8.097199   1.000000
  104        8.331419   1.000000
  105        8.492295   1.000000
  106        8.648497   1.000000
  107        8.648497   1.000000
  108        8.672081   1.000000
  109        8.672081   1.000000
  110        8.778075   1.000000
  111        8.806867   1.000000