 running on   16 total cores
 distrk:  each k-point on   16 cores,    1 groups
 distr:  one band on    4 cores,    4 groups
 using from now: INCAR     
 vasp.5.4.4.18Apr17-6-g9f103f2a35 (build Nov 01 2019 12:17:22) complex          
  
 POSCAR found type information on POSCAR  Si N 
 POSCAR found :  2 types and      56 ions
 WARNING: type information on POSCAR and POTCAR are incompatible
 POTCAR overwrites the type information in POSCAR
 typ   1 type information:  Si N 
 WARNING: type information on POSCAR and POTCAR are incompatible
 POTCAR overwrites the type information in POSCAR
 typ   2 type information:  N  Si
 LDA part: xc-table for Pade appr. of Perdew
 generate k-points for:    5    5    5
 POSCAR, INCAR and KPOINTS ok, starting setup
 FFT: planning ...
 WAVECAR not read
 entering main loop
       N       E                     dE             d eps       ncg     rms          rms(c)
DAV:   1     0.874959384036E+03    0.87496E+03   -0.99340E+04  3120   0.117E+03
DAV:   2    -0.250128288415E+03   -0.11251E+04   -0.10805E+04  3920   0.241E+02
DAV:   3    -0.353115165421E+03   -0.10299E+03   -0.98778E+02  3896   0.689E+01
DAV:   4    -0.356740858736E+03   -0.36257E+01   -0.35160E+01  3984   0.119E+01
DAV:   5    -0.356841961088E+03   -0.10110E+00   -0.99975E-01  3824   0.174E+00    0.374E+01
RMM:   6    -0.330223205080E+03    0.26619E+02   -0.14955E+02  3122   0.207E+01    0.169E+01
RMM:   7    -0.329675768949E+03    0.54744E+00   -0.41970E+00  3306   0.301E+00    0.969E+00
RMM:   8    -0.329580493640E+03    0.95275E-01   -0.24731E+00  3120   0.320E+00    0.220E+00
RMM:   9    -0.329425271238E+03    0.15522E+00   -0.23728E-01  3158   0.842E-01    0.844E-01
RMM:  10    -0.329416250240E+03    0.90210E-02   -0.12480E-01  3307   0.532E-01    0.258E-01
RMM:  11    -0.329417371114E+03   -0.11209E-02   -0.55067E-03  3281   0.133E-01    0.105E-01
RMM:  12    -0.329417228650E+03    0.14246E-03   -0.37394E-03  3320   0.866E-02    0.500E-02
RMM:  13    -0.329417168281E+03    0.60369E-04   -0.19234E-04  2019   0.204E-02
   1 F= -.32941717E+03 E0= -.32942132E+03  d E =-.329417E+03
 curvature:   0.00 expect dE= 0.000E+00 dE for cont linesearch  0.000E+00
 trial: gam= 0.00000 g(F)=  0.835E-03 g(S)=  0.000E+00 ort = 0.000E+00 (trialstep = 0.100E+01)
 search vector abs. value=  0.835E-03
 bond charge predicted
       N       E                     dE             d eps       ncg     rms          rms(c)
DAV:   1    -0.329417167802E+03    0.60848E-04   -0.93820E-03  3472   0.264E-01    0.455E-02
RMM:   2    -0.329417279778E+03   -0.11198E-03   -0.14564E-03  2985   0.898E-02    0.487E-02
RMM:   3    -0.329417264478E+03    0.15300E-04   -0.49892E-05  1816   0.147E-02
   2 F= -.32941726E+03 E0= -.32942140E+03  d E =-.961971E-04
 trial-energy change:   -0.000096  1 .order   -0.000111   -0.000835    0.000614
 step:   0.5765(harm=  0.5765)  dis= 0.00037  next Energy=  -329.417409 (dE=-0.241E-03)
 bond charge predicted
       N       E                     dE             d eps       ncg     rms          rms(c)
DAV:   1    -0.329417378048E+03   -0.98269E-04   -0.15977E-03  3496   0.118E-01    0.150E-02
RMM:   2    -0.329417400495E+03   -0.22448E-04   -0.27057E-04  1895   0.426E-02
   3 F= -.32941740E+03 E0= -.32942154E+03  d E =-.232214E-03
 curvature:  -0.29 expect dE=-0.854E-07 dE for cont linesearch -0.854E-07
 trial: gam= 0.00000 g(F)=  0.296E-06 g(S)=  0.000E+00 ort =-0.157E-04 (trialstep = 0.915E+00)
 search vector abs. value=  0.297E-06
 reached required accuracy - stopping structural energy minimisation
