 vasp.5.4.4.18Apr17-6-g9f103f2a35 (build Nov 01 2019 12:17:22) complex          
  
 executed on             LinuxIFC date 2023.05.19  18:22:09
 running on   16 total cores
 distrk:  each k-point on   16 cores,    1 groups
 distr:  one band on NCORES_PER_BAND=   4 cores,    4 groups


--------------------------------------------------------------------------------------------------------


 INCAR:
 POTCAR:    PAW_PBE N 08Apr2002                   
 POTCAR:    PAW_PBE Si 05Jan2001                  
 POTCAR:    PAW_PBE N 08Apr2002                   
   VRHFIN =N: s2p3                                                              
   LEXCH  = PE                                                                  
   EATOM  =   264.5486 eV,   19.4438 Ry                                         
                                                                                
   TITEL  = PAW_PBE N 08Apr2002                                                 
   LULTRA =        F    use ultrasoft PP ?                                      
   IUNSCR =        1    unscreen: 0-lin 1-nonlin 2-no                           
   RPACOR =    1.200    partial core radius                                     
   POMASS =   14.001; ZVAL   =    5.000    mass and valenz                      
   RCORE  =    1.500    outmost cutoff radius                                   
   RWIGS  =    1.400; RWIGS  =    0.741    wigner-seitz radius (au A)           
   ENMAX  =  400.000; ENMIN  =  300.000 eV                                      
   ICORE  =        2    local potential                                         
   LCOR   =        T    correct aug charges                                     
   LPAW   =        T    paw PP                                                  
   EAUG   =  627.112                                                            
   DEXC   =    0.000                                                            
   RMAX   =    1.529    core radius for proj-oper                               
   RAUG   =    1.300    factor for augmentation sphere                          
   RDEP   =    1.514    radius for radial grids                                 
   RDEPT  =    1.338    core radius for aug-charge                              
                                                                                
   Atomic configuration                                                         
    4 entries                                                                   
     n  l   j            E        occ.                                          
     1  0  0.50      -384.7179   2.0000                                         
     2  0  0.50       -18.5828   2.0000                                         
     2  1  0.50        -7.0898   3.0000                                         
     3  2  1.50        -6.8029   0.0000                                         
   Description                                                                  
     l       E           TYP  RCUT    TYP  RCUT                                 
     0    -18.5828119     23  1.200                                             
     0    -13.5018863     23  1.200                                             
     1     -7.0897853     23  1.500                                             
     1      9.5240782     23  1.500                                             
     2     -6.8029130      7  1.500                                             
  local pseudopotential read in
  partial core-charges read in
  partial kinetic energy density read in
  atomic valenz-charges read in
  non local Contribution for L=           0  read in
    real space projection operators read in
  non local Contribution for L=           0  read in
    real space projection operators read in
  non local Contribution for L=           1  read in
    real space projection operators read in
  non local Contribution for L=           1  read in
    real space projection operators read in
    PAW grid and wavefunctions read in
 
   number of l-projection  operators is LMAX  =           4
   number of lm-projection operators is LMMAX =           8
 
 POTCAR:    PAW_PBE Si 05Jan2001                  
   VRHFIN =Si: s2p2                                                             
   LEXCH  = PE                                                                  
   EATOM  =   103.0669 eV,    7.5752 Ry                                         
                                                                                
   TITEL  = PAW_PBE Si 05Jan2001                                                
   LULTRA =        F    use ultrasoft PP ?                                      
   IUNSCR =        1    unscreen: 0-lin 1-nonlin 2-no                           
   RPACOR =    1.500    partial core radius                                     
   POMASS =   28.085; ZVAL   =    4.000    mass and valenz                      
   RCORE  =    1.900    outmost cutoff radius                                   
   RWIGS  =    2.480; RWIGS  =    1.312    wigner-seitz radius (au A)           
   ENMAX  =  245.345; ENMIN  =  184.009 eV                                      
   ICORE  =        2    local potential                                         
   LCOR   =        T    correct aug charges                                     
   LPAW   =        T    paw PP                                                  
   EAUG   =  322.069                                                            
   DEXC   =    0.000                                                            
   RMAX   =    1.950    core radius for proj-oper                               
   RAUG   =    1.300    factor for augmentation sphere                          
   RDEP   =    1.993    radius for radial grids                                 
   RDEPT  =    1.837    core radius for aug-charge                              
                                                                                
   Atomic configuration                                                         
    6 entries                                                                   
     n  l   j            E        occ.                                          
     1  0  0.50     -1785.8828   2.0000                                         
     2  0  0.50      -139.4969   2.0000                                         
     2  1  1.50       -95.5546   6.0000                                         
     3  0  0.50       -10.8127   2.0000                                         
     3  1  0.50        -4.0811   2.0000                                         
     3  2  1.50        -4.0817   0.0000                                         
   Description                                                                  
     l       E           TYP  RCUT    TYP  RCUT                                 
     0    -10.8127223     23  1.900                                             
     0     -7.6451159     23  1.900                                             
     1     -4.0811372     23  1.900                                             
     1      2.4879257     23  1.900                                             
     2     -4.0817478      7  1.900                                             
  local pseudopotential read in
  partial core-charges read in
  partial kinetic energy density read in
  atomic valenz-charges read in
  non local Contribution for L=           0  read in
    real space projection operators read in
  non local Contribution for L=           0  read in
    real space projection operators read in
  non local Contribution for L=           1  read in
    real space projection operators read in
  non local Contribution for L=           1  read in
    real space projection operators read in
    PAW grid and wavefunctions read in
 
   number of l-projection  operators is LMAX  =           4
   number of lm-projection operators is LMMAX =           8
 
 Optimization of the real space projectors (new method)

 maximal supplied QI-value         = 25.13
 optimisation between [QCUT,QGAM] = [ 10.05, 20.36] = [ 28.30,116.06] Ry 
 Optimized for a Real-space Cutoff    1.70 Angstroem

   l    n(q)    QCUT    max X(q) W(low)/X(q) W(high)/X(q)  e(spline) 
   0     10    10.053    79.467    0.61E-04    0.98E-04    0.61E-06
   0     10    10.053    66.151    0.60E-04    0.98E-04    0.61E-06
   1     10    10.053     8.350    0.17E-03    0.71E-03    0.45E-05
   1     10    10.053     5.531    0.18E-03    0.77E-03    0.49E-05
 Optimization of the real space projectors (new method)

 maximal supplied QI-value         = 19.84
 optimisation between [QCUT,QGAM] = [ 10.12, 20.44] = [ 28.68,116.96] Ry 
 Optimized for a Real-space Cutoff    1.38 Angstroem

   l    n(q)    QCUT    max X(q) W(low)/X(q) W(high)/X(q)  e(spline) 
   0      8    10.119   159.560    0.58E-04    0.11E-03    0.54E-07
   0      8    10.119   115.863    0.56E-04    0.11E-03    0.54E-07
   1      8    10.119    88.339    0.22E-03    0.17E-03    0.19E-06
   1      8    10.119    48.592    0.22E-03    0.17E-03    0.18E-06
  PAW_PBE N 08Apr2002                   :
 energy of atom  1       EATOM= -264.5486
 kinetic energy error for atom=    0.0736 (will be added to EATOM!!)
  PAW_PBE Si 05Jan2001                  :
 energy of atom  2       EATOM= -103.0669
 kinetic energy error for atom=    0.0012 (will be added to EATOM!!)
 
 
 POSCAR: Si24 N32                                
  positions in direct lattice
  No initial velocities read in
 exchange correlation table for  LEXCH =        8
   RHO(1)=    0.500       N(1)  =     2000
   RHO(2)=  100.500       N(2)  =     4000
 


--------------------------------------------------------------------------------------------------------


 ion  position               nearest neighbor table
   1  0.875  0.875  0.125-  26 2.13  28 2.13  47 2.13  49 2.13  54 2.13  56 2.13
   2  0.375  0.125  0.375-  25 2.13  27 2.13  29 2.13  31 2.13  32 2.13  42 2.13
   3  0.625  0.875  0.375-  27 2.13  31 2.13  44 2.13  49 2.13  53 2.13  54 2.13
   4  0.125  0.125  0.125-  26 2.13  28 2.13  29 2.13  30 2.13  32 2.13  43 2.13
   5  0.250  0.750  0.250-  28 1.82  50 1.82  51 1.82  31 1.82
   6  0.000  0.000  0.500-  29 1.82  38 1.82  48 1.82  49 1.82
   7  0.875  0.375  0.625-  34 2.13  36 2.13  41 2.13  46 2.13  48 2.13  55 2.13
   8  0.375  0.625  0.875-  33 2.13  35 2.13  37 2.13  39 2.13  40 2.13  50 2.13
   9  0.625  0.375  0.875-  35 2.13  39 2.13  41 2.13  45 2.13  46 2.13  52 2.13
  10  0.125  0.625  0.625-  34 2.13  36 2.13  37 2.13  38 2.13  40 2.13  51 2.13
  11  0.250  0.250  0.750-  36 1.82  42 1.82  43 1.82  39 1.82
  12  0.000  0.500  0.000-  30 1.82  37 1.82  56 1.82  41 1.82
  13  0.375  0.875  0.625-  31 2.13  33 2.13  38 2.13  40 2.13  42 2.13  44 2.13
  14  0.875  0.125  0.875-  26 2.13  41 2.13  43 2.13  45 2.13  47 2.13  48 2.13
  15  0.125  0.875  0.875-  28 2.13  33 2.13  37 2.13  38 2.13  43 2.13  47 2.13
  16  0.625  0.125  0.625-  27 2.13  42 2.13  44 2.13  45 2.13  46 2.13  48 2.13
  17  0.750  0.750  0.750-  34 1.82  35 1.82  44 1.82  47 1.82
  18  0.500  0.000  0.000-  32 1.82  45 1.82  54 1.82  33 1.82
  19  0.375  0.375  0.125-  25 2.13  30 2.13  32 2.13  39 2.13  50 2.13  52 2.13
  20  0.875  0.625  0.375-  34 2.13  49 2.13  51 2.13  53 2.13  55 2.13  56 2.13
  21  0.125  0.375  0.375-  25 2.13  29 2.13  30 2.13  36 2.13  51 2.13  55 2.13
  22  0.625  0.625  0.125-  35 2.13  50 2.13  52 2.13  53 2.13  54 2.13  56 2.13
  23  0.750  0.250  0.250-  26 1.82  27 1.82  52 1.82  55 1.82
  24  0.500  0.500  0.500-  40 1.82  46 1.82  53 1.82  25 1.82
  25  0.376  0.376  0.376-  24 1.82  19 2.13  21 2.13   2 2.13  40 2.97  46 2.97  53 2.97  36 3.00
                            51 3.00  52 3.00  27 3.00  50 3.00  42 3.00  30 3.03  32 3.03  29 3.03
  26  0.874  0.126  0.126-  23 1.82   4 2.13  14 2.13   1 2.13  52 2.97  27 2.97  55 2.97  29 3.00
                            45 3.00  49 3.00  41 3.00  54 3.00  30 3.00  28 3.03  43 3.03  47 3.03
  27  0.626  0.126  0.374-  23 1.82   3 2.13  16 2.13   2 2.13  26 2.97  52 2.97  55 2.97  48 3.00
                            49 3.00  25 3.00  32 3.00  54 3.00  46 3.00  42 3.03  44 3.03  31 3.03
  28  0.126  0.874  0.126-   5 1.82   4 2.13   1 2.13  15 2.13  50 2.97  31 2.97  51 2.97  33 3.00
                            49 3.00  32 3.00  29 3.00  37 3.00  56 3.00  26 3.03  43 3.03  47 3.03
  29  0.124  0.124  0.376-   6 1.82   4 2.13   2 2.13  21 2.13  38 2.97  48 2.97  49 2.97  42 3.00
                            31 3.00  26 3.00  55 3.00  36 3.00  28 3.00  30 3.03  32 3.03  25 3.03
  30  0.124  0.376  0.124-  12 1.82   4 2.13  19 2.13  21 2.13  56 2.97  41 2.97  37 2.97  55 3.00
                            39 3.00  50 3.00  51 3.00  26 3.00  43 3.00  32 3.03  29 3.03  25 3.03
  31  0.374  0.874  0.374-   5 1.82   3 2.13   2 2.13  13 2.13  28 2.97  50 2.97  51 2.97  29 3.00
                            38 3.00  53 3.00  54 3.00  32 3.00  40 3.00  42 3.03  44 3.03  27 3.03
  32  0.376  0.124  0.124-  18 1.82   4 2.13   2 2.13  19 2.13  54 2.97  45 2.97  33 2.97  27 3.00
                            43 3.00  31 3.00  28 3.00  52 3.00  39 3.00  30 3.03  25 3.03  29 3.03
  33  0.376  0.876  0.876-  18 1.82  13 2.13  15 2.13   8 2.13  32 2.97  45 2.97  54 2.97  43 3.00
                            44 3.00  28 3.00  35 3.00  50 3.00  42 3.00  38 3.03  40 3.03  37 3.03
  34  0.874  0.626  0.626-  17 1.82  10 2.13   7 2.13  20 2.13  44 2.97  35 2.97  47 2.97  37 3.00
                            53 3.00  46 3.00  41 3.00  49 3.00  38 3.00  36 3.03  51 3.03  55 3.03
  35  0.626  0.626  0.874-  17 1.82   9 2.13   8 2.13  22 2.13  34 2.97  44 2.97  47 2.97  41 3.00
                            33 3.00  40 3.00  56 3.00  54 3.00  46 3.00  50 3.03  52 3.03  39 3.03
  36  0.126  0.374  0.626-  11 1.82  10 2.13   7 2.13  21 2.13  42 2.97  39 2.97  43 2.97  25 3.00
                            41 3.00  37 3.00  29 3.00  40 3.00  48 3.00  34 3.03  51 3.03  55 3.03
  37  0.124  0.624  0.876-  12 1.82  10 2.13   8 2.13  15 2.13  30 2.97  41 2.97  56 2.97  34 3.00
                            47 3.00  50 3.00  39 3.00  36 3.00  28 3.00  38 3.03  40 3.03  33 3.03
  38  0.124  0.876  0.624-   6 1.82  10 2.13  13 2.13  15 2.13  48 2.97  29 2.97  49 2.97  31 3.00
                            47 3.00  34 3.00  42 3.00  43 3.00  51 3.00  40 3.03  37 3.03  33 3.03
  39  0.374  0.374  0.874-  11 1.82   9 2.13   8 2.13  19 2.13  36 2.97  42 2.97  43 2.97  30 3.00
                            37 3.00  45 3.00  46 3.00  32 3.00  40 3.00  50 3.03  52 3.03  35 3.03
  40  0.376  0.624  0.624-  24 1.82  10 2.13  13 2.13   8 2.13  46 2.97  25 2.97  53 2.97  51 3.00
                            35 3.00  44 3.00  31 3.00  36 3.00  39 3.00  38 3.03  33 3.03  37 3.03
  41  0.876  0.376  0.876-  12 1.82   9 2.13   7 2.13  14 2.13  30 2.97  37 2.97  56 2.97  35 3.00
                            43 3.00  52 3.00  36 3.00  26 3.00  34 3.00  46 3.03  48 3.03  45 3.03
  42  0.374  0.126  0.626-  11 1.82   2 2.13  13 2.13  16 2.13  36 2.97  39 2.97  43 2.97  29 3.00
                            45 3.00  33 3.00  25 3.00  38 3.00  46 3.00  44 3.03  27 3.03  31 3.03
  43  0.126  0.126  0.874-  11 1.82   4 2.13  14 2.13  15 2.13  36 2.97  39 2.97  42 2.97  33 3.00
                            41 3.00  32 3.00  48 3.00  30 3.00  38 3.00  28 3.03  26 3.03  47 3.03
  44  0.626  0.874  0.626-  17 1.82  13 2.13  16 2.13   3 2.13  34 2.97  35 2.97  47 2.97  33 3.00
                            49 3.00  40 3.00  48 3.00  45 3.00  53 3.00  42 3.03  27 3.03  31 3.03
  45  0.624  0.124  0.876-  18 1.82  14 2.13  16 2.13   9 2.13  32 2.97  33 2.97  54 2.97  39 3.00
                            42 3.00  47 3.00  26 3.00  52 3.00  44 3.00  46 3.03  48 3.03  41 3.03
  46  0.624  0.376  0.624-  24 1.82   9 2.13  16 2.13   7 2.13  40 2.97  25 2.97  53 2.97  39 3.00
                            55 3.00  34 3.00  42 3.00  35 3.00  27 3.00  48 3.03  45 3.03  41 3.03
  47  0.874  0.874  0.874-  17 1.82  14 2.13  15 2.13   1 2.13  34 2.97  35 2.97  44 2.97  38 3.00
                            37 3.00  45 3.00  54 3.00  48 3.00  56 3.00  28 3.03  26 3.03  43 3.03
  48  0.876  0.124  0.624-   6 1.82   7 2.13  14 2.13  16 2.13  38 2.97  29 2.97  49 2.97  43 3.00
                            27 3.00  44 3.00  47 3.00  36 3.00  55 3.00  46 3.03  41 3.03  45 3.03
  49  0.876  0.876  0.376-   6 1.82   3 2.13   1 2.13  20 2.13  29 2.97  38 2.97  48 2.97  28 3.00
                            44 3.00  27 3.00  51 3.00  26 3.00  34 3.00  54 3.03  56 3.03  53 3.03
  50  0.374  0.626  0.126-   5 1.82   8 2.13  19 2.13  22 2.13  28 2.97  31 2.97  51 2.97  37 3.00
                            53 3.00  30 3.00  25 3.00  33 3.00  54 3.00  52 3.03  35 3.03  39 3.03
  51  0.126  0.626  0.374-   5 1.82  10 2.13  20 2.13  21 2.13  28 2.97  31 2.97  50 2.97  40 3.00
                            49 3.00  25 3.00  56 3.00  30 3.00  38 3.00  36 3.03  34 3.03  55 3.03
  52  0.626  0.374  0.126-  23 1.82  19 2.13  22 2.13   9 2.13  26 2.97  27 2.97  55 2.97  41 3.00
                            25 3.00  45 3.00  53 3.00  32 3.00  56 3.00  50 3.03  35 3.03  39 3.03
  53  0.624  0.624  0.376-  24 1.82  20 2.13  22 2.13   3 2.13  25 2.97  40 2.97  46 2.97  31 3.00
                            34 3.00  50 3.00  55 3.00  52 3.00  44 3.00  54 3.03  56 3.03  49 3.03
  54  0.624  0.876  0.124-  18 1.82   3 2.13   1 2.13  22 2.13  32 2.97  33 2.97  45 2.97  31 3.00
                            47 3.00  35 3.00  27 3.00  26 3.00  50 3.00  56 3.03  53 3.03  49 3.03
  55  0.874  0.374  0.374-  23 1.82  20 2.13  21 2.13   7 2.13  26 2.97  27 2.97  52 2.97  30 3.00
                            46 3.00  29 3.00  53 3.00  48 3.00  56 3.00  36 3.03  34 3.03  51 3.03
  56  0.876  0.624  0.124-  12 1.82   1 2.13  20 2.13  22 2.13  30 2.97  37 2.97  41 2.97  35 3.00
                            51 3.00  47 3.00  28 3.00  52 3.00  55 3.00  54 3.03  49 3.03  53 3.03
 
  LATTYP: Found a simple cubic cell.
 ALAT       =     8.4948518024
  
  Lattice vectors:
  
 A1 = (   8.4948518024,   0.0000000000,   0.0000000000)
 A2 = (   0.0000000000,   8.4948518024,   0.0000000000)
 A3 = (   0.0000000000,   0.0000000000,   8.4948518024)


Analysis of symmetry for initial positions (statically):
=====================================================================
 Subroutine PRICEL returns following result:
 
  LATTYP: Found a face centered cubic cell.
 ALAT       =     8.4948518024
  
  Lattice vectors:
  
 A1 = (   4.2474259012,   4.2474259012,   0.0000000000)
 A2 = (   4.2474259012,   0.0000000000,  -4.2474259012)
 A3 = (   0.0000000000,   4.2474259012,  -4.2474259012)
 
   4 primitive cells build up your supercell.
 

 Routine SETGRP: Setting up the symmetry group for a 
 simple cubic supercell.


 Subroutine GETGRP returns: Found 48 space group operations
 (whereof 24 operations were pure point group operations)
 out of a pool of 48 trial point group operations.


The static configuration has the point symmetry T_d .
 The point group associated with its full space group is O_h .


Analysis of symmetry for dynamics (positions and initial velocities):
=====================================================================
 Subroutine PRICEL returns following result:
 
  LATTYP: Found a face centered cubic cell.
 ALAT       =     8.4948518024
  
  Lattice vectors:
  
 A1 = (   4.2474259012,   4.2474259012,   0.0000000000)
 A2 = (   4.2474259012,   0.0000000000,  -4.2474259012)
 A3 = (   0.0000000000,   4.2474259012,  -4.2474259012)
 
   4 primitive cells build up your supercell.
 

 Routine SETGRP: Setting up the symmetry group for a 
 simple cubic supercell.


 Subroutine GETGRP returns: Found 48 space group operations
 (whereof 24 operations were pure point group operations)
 out of a pool of 48 trial point group operations.


The dynamic configuration has the point symmetry T_d .
 The point group associated with its full space group is O_h .


 Subroutine INISYM returns: Found 48 space group operations
 (whereof 24 operations are pure point group operations),
 and found     4 'primitive' translations

 
 
 KPOINTS: Automatic mesh                          

Automatic generation of k-mesh.
 generate k-points for:    5    5    5
Space group operators:
 irot       det(A)        alpha          n_x          n_y          n_z        tau_x        tau_y        tau_z
    1     1.000000     0.000000     1.000000     0.000000     0.000000     0.000000     0.000000    -0.000000
    2     1.000000   120.000000    -0.577350    -0.577350    -0.577350     0.000000     0.000000    -0.000000
    3     1.000000   120.000000     0.577350     0.577350     0.577350     0.000000     0.000000    -0.000000
    4    -1.000000    90.000000     0.000000     0.000000    -1.000000     0.000000     0.000000    -0.000000
    5    -1.000000   180.000000     0.000000    -0.707107    -0.707107     0.000000     0.000000    -0.000000
    6    -1.000000    90.000000     0.000000     1.000000     0.000000     0.000000     0.000000    -0.000000
    7     1.000000   180.000000    -0.000000    -0.000000     1.000000     0.000000     0.000000    -0.000000
    8     1.000000   120.000000    -0.577350     0.577350     0.577350     0.000000     0.000000    -0.000000
    9     1.000000   120.000000    -0.577350     0.577350    -0.577350     0.000000     0.000000    -0.000000
   10    -1.000000    90.000000    -0.000000    -0.000000     1.000000     0.000000     0.000000    -0.000000
   11    -1.000000    90.000000    -1.000000     0.000000    -0.000000     0.000000     0.000000    -0.000000
   12    -1.000000   180.000000    -0.707107     0.000000    -0.707107     0.000000     0.000000    -0.000000
   13     1.000000   120.000000     0.577350    -0.577350     0.577350     0.000000     0.000000    -0.000000
   14     1.000000   120.000000    -0.577350    -0.577350     0.577350     0.000000     0.000000    -0.000000
   15     1.000000   180.000000     1.000000     0.000000     0.000000     0.000000     0.000000    -0.000000
   16    -1.000000    90.000000    -0.000000    -1.000000     0.000000     0.000000     0.000000    -0.000000
   17    -1.000000   180.000000     0.707107     0.707107     0.000000     0.000000     0.000000    -0.000000
   18    -1.000000    90.000000     1.000000    -0.000000    -0.000000     0.000000     0.000000    -0.000000
   19     1.000000   120.000000     0.577350    -0.577350    -0.577350     0.000000     0.000000    -0.000000
   20     1.000000   180.000000    -0.000000     1.000000     0.000000     0.000000     0.000000    -0.000000
   21     1.000000   120.000000     0.577350     0.577350    -0.577350     0.000000     0.000000    -0.000000
   22    -1.000000   180.000000    -0.000000    -0.707107     0.707107     0.000000     0.000000    -0.000000
   23    -1.000000   180.000000     0.707107    -0.707107     0.000000     0.000000     0.000000    -0.000000
   24    -1.000000   180.000000     0.707107     0.000000    -0.707107     0.000000     0.000000    -0.000000
   25    -1.000000     0.000000     1.000000     0.000000     0.000000     0.750000     0.750000    -0.750000
   26    -1.000000   120.000000    -0.577350    -0.577350    -0.577350     0.750000     0.750000    -0.750000
   27    -1.000000   120.000000     0.577350     0.577350     0.577350     0.750000     0.750000    -0.750000
   28     1.000000    90.000000     0.000000     0.000000    -1.000000     0.750000     0.750000    -0.750000
   29     1.000000   180.000000     0.000000    -0.707107    -0.707107     0.750000     0.750000    -0.750000
   30     1.000000    90.000000     0.000000     1.000000     0.000000     0.750000     0.750000    -0.750000
   31    -1.000000   180.000000    -0.000000    -0.000000     1.000000     0.750000     0.750000    -0.750000
   32    -1.000000   120.000000    -0.577350     0.577350     0.577350     0.750000     0.750000    -0.750000
   33    -1.000000   120.000000    -0.577350     0.577350    -0.577350     0.750000     0.750000    -0.750000
   34     1.000000    90.000000    -0.000000    -0.000000     1.000000     0.750000     0.750000    -0.750000
   35     1.000000    90.000000    -1.000000     0.000000    -0.000000     0.750000     0.750000    -0.750000
   36     1.000000   180.000000    -0.707107     0.000000    -0.707107     0.750000     0.750000    -0.750000
   37    -1.000000   120.000000     0.577350    -0.577350     0.577350     0.750000     0.750000    -0.750000
   38    -1.000000   120.000000    -0.577350    -0.577350     0.577350     0.750000     0.750000    -0.750000
   39    -1.000000   180.000000     1.000000     0.000000     0.000000     0.750000     0.750000    -0.750000
   40     1.000000    90.000000    -0.000000    -1.000000     0.000000     0.750000     0.750000    -0.750000
   41     1.000000   180.000000     0.707107     0.707107     0.000000     0.750000     0.750000    -0.750000
   42     1.000000    90.000000     1.000000    -0.000000    -0.000000     0.750000     0.750000    -0.750000
   43    -1.000000   120.000000     0.577350    -0.577350    -0.577350     0.750000     0.750000    -0.750000
   44    -1.000000   180.000000    -0.000000     1.000000     0.000000     0.750000     0.750000    -0.750000
   45    -1.000000   120.000000     0.577350     0.577350    -0.577350     0.750000     0.750000    -0.750000
   46     1.000000   180.000000    -0.000000    -0.707107     0.707107     0.750000     0.750000    -0.750000
   47     1.000000   180.000000     0.707107    -0.707107     0.000000     0.750000     0.750000    -0.750000
   48     1.000000   180.000000     0.707107     0.000000    -0.707107     0.750000     0.750000    -0.750000
 
 Subroutine IBZKPT returns following result:
 ===========================================
 
 Found     10 irreducible k-points:
 
 Following reciprocal coordinates:
            Coordinates               Weight
  0.000000  0.000000  0.000000      1.000000
  0.200000  0.000000  0.000000      6.000000
  0.400000  0.000000  0.000000      6.000000
  0.200000  0.200000  0.000000     12.000000
  0.400000  0.200000  0.000000     24.000000
  0.400000  0.400000  0.000000     12.000000
  0.200000  0.200000  0.200000      8.000000
  0.400000  0.200000  0.200000     24.000000
  0.400000  0.400000  0.200000     24.000000
  0.400000  0.400000  0.400000      8.000000
 
 Following cartesian coordinates:
            Coordinates               Weight
  0.000000  0.000000  0.000000      1.000000
  0.023544  0.000000  0.000000      6.000000
  0.047087  0.000000  0.000000      6.000000
  0.023544  0.023544  0.000000     12.000000
  0.047087  0.023544  0.000000     24.000000
  0.047087  0.047087  0.000000     12.000000
  0.023544  0.023544  0.023544      8.000000
  0.047087  0.023544  0.023544     24.000000
  0.047087  0.047087  0.023544     24.000000
  0.047087  0.047087  0.047087      8.000000
 


--------------------------------------------------------------------------------------------------------




 Dimension of arrays:
   k-points           NKPTS =     10   k-points in BZ     NKDIM =     10   number of bands    NBANDS=    156
   number of dos      NEDOS =    301   number of ions     NIONS =     56
   non local maximal  LDIM  =      4   non local SUM 2l+1 LMDIM =      8
   total plane-waves  NPLWV = 175616
   max r-space proj   IRMAX =   5923   max aug-charges    IRDMAX=   9777
   dimension x,y,z NGX =    56 NGY =   56 NGZ =   56
   dimension x,y,z NGXF=   112 NGYF=  112 NGZF=  112
   support grid    NGXF=   112 NGYF=  112 NGZF=  112
   ions per type =              24  32
   NGX,Y,Z   is equivalent  to a cutoff of  10.96, 10.96, 10.96 a.u.
   NGXF,Y,Z  is equivalent  to a cutoff of  21.92, 21.92, 21.92 a.u.

 SYSTEM =  unknown system                          
 POSCAR =  Si24 N32                                

 Startparameter for this run:
   NWRITE =      2    write-flag & timer
   PREC   = accura    normal or accurate (medium, high low for compatibility)
   ISTART =      0    job   : 0-new  1-cont  2-samecut
   ICHARG =      2    charge: 1-file 2-atom 10-const
   ISPIN  =      1    spin polarized calculation?
   LNONCOLLINEAR =      F non collinear calculations
   LSORBIT =      F    spin-orbit coupling
   INIWAV =      1    electr: 0-lowe 1-rand  2-diag
   LASPH  =      F    aspherical Exc in radial PAW
   METAGGA=      F    non-selfconsistent MetaGGA calc.

 Electronic Relaxation 1
   ENCUT  =  400.0 eV  29.40 Ry    5.42 a.u.  13.85 13.85 13.85*2*pi/ulx,y,z
   ENINI  =  400.0     initial cutoff
   ENAUG  =  627.1 eV  augmentation charge cutoff
   NELM   =     60;   NELMIN=  2; NELMDL= -5     # of ELM steps 
   EDIFF  = 0.1E-03   stopping-criterion for ELM
   LREAL  =      T    real-space projection
   NLSPLINE    = F    spline interpolate recip. space projectors
   LCOMPAT=      F    compatible to vasp.4.4
   GGA_COMPAT  = T    GGA compatible to vasp.4.4-vasp.4.6
   LMAXPAW     = -100 max onsite density
   LMAXMIX     =    2 max onsite mixed and CHGCAR
   VOSKOWN=      0    Vosko Wilk Nusair interpolation
   ROPT   =   -0.00025  -0.00025
 Ionic relaxation
   EDIFFG = 0.1E-02   stopping-criterion for IOM
   NSW    =    100    number of steps for IOM
   NBLOCK =      1;   KBLOCK =    100    inner block; outer block 
   IBRION =      2    ionic relax: 0-MD 1-quasi-New 2-CG
   NFREE  =      1    steps in history (QN), initial steepest desc. (CG)
   ISIF   =      2    stress and relaxation
   IWAVPR =     11    prediction:  0-non 1-charg 2-wave 3-comb
   ISYM   =      2    0-nonsym 1-usesym 2-fastsym
   LCORR  =      T    Harris-Foulkes like correction to forces

   POTIM  = 0.5000    time-step for ionic-motion
   TEIN   =    0.0    initial temperature
   TEBEG  =    0.0;   TEEND  =   0.0 temperature during run
   SMASS  =  -3.00    Nose mass-parameter (am)
   estimated Nose-frequenzy (Omega)   =  0.10E-29 period in steps =****** mass=  -0.165E-26a.u.
   SCALEE = 1.0000    scale energy and forces
   NPACO  =    256;   APACO  = 16.0  distance and # of slots for P.C.
   PSTRESS=    0.0 pullay stress

  Mass of Ions in am
   POMASS =  14.00 28.09
  Ionic Valenz
   ZVAL   =   5.00  4.00
  Atomic Wigner-Seitz radii
   RWIGS  =  -1.00 -1.00
  virtual crystal weights 
   VCA    =   1.00  1.00
   NELECT =     248.0000    total number of electrons
   NUPDOWN=      -1.0000    fix difference up-down

 DOS related values:
   EMIN   =  10.00;   EMAX   =-10.00  energy-range for DOS
   EFERMI =   0.00
   ISMEAR =     2;   SIGMA  =   0.10  broadening in eV -4-tet -1-fermi 0-gaus

 Electronic relaxation 2 (details)
   IALGO  =     68    algorithm
   LDIAG  =      T    sub-space diagonalisation (order eigenvalues)
   LSUBROT=      F    optimize rotation matrix (better conditioning)
   TURBO    =      0    0=normal 1=particle mesh
   IRESTART =      0    0=no restart 2=restart with 2 vectors
   NREBOOT  =      0    no. of reboots
   NMIN     =      0    reboot dimension
   EREF     =   0.00    reference energy to select bands
   IMIX   =      4    mixing-type and parameters
     AMIX     =   0.40;   BMIX     =  1.00
     AMIX_MAG =   1.60;   BMIX_MAG =  1.00
     AMIN     =   0.10
     WC   =   100.;   INIMIX=   1;  MIXPRE=   1;  MAXMIX= -45

 Intra band minimization:
   WEIMIN = 0.0010     energy-eigenvalue tresh-hold
   EBREAK =  0.16E-06  absolut break condition
   DEPER  =   0.30     relativ break condition  

   TIME   =   0.40     timestep for ELM

  volume/ion in A,a.u.               =      10.95        73.87
  Fermi-wavevector in a.u.,A,eV,Ry     =   1.210792  2.288065 19.946380  1.466018
  Thomas-Fermi vector in A             =   2.346328
 
 Write flags
   LWAVE        =      F    write WAVECAR
   LDOWNSAMPLE  =      F    k-point downsampling of WAVECAR
   LCHARG       =      F    write CHGCAR
   LVTOT        =      F    write LOCPOT, total local potential
   LVHAR        =      F    write LOCPOT, Hartree potential only
   LELF         =      F    write electronic localiz. function (ELF)
   LORBIT       =      0    0 simple, 1 ext, 2 COOP (PROOUT), +10 PAW based schemes


 Dipole corrections
   LMONO  =      F    monopole corrections only (constant potential shift)
   LDIPOL =      F    correct potential (dipole corrections)
   IDIPOL =      0    1-x, 2-y, 3-z, 4-all directions 
   EPSILON=  1.0000000 bulk dielectric constant

 Exchange correlation treatment:
   GGA     =    --    GGA type
   LEXCH   =     8    internal setting for exchange type
   VOSKOWN=      0    Vosko Wilk Nusair interpolation
   LHFCALC =     F    Hartree Fock is set to
   LHFONE  =     F    Hartree Fock one center treatment
   AEXX    =    0.0000 exact exchange contribution

 Linear response parameters
   LEPSILON=     F    determine dielectric tensor
   LRPA    =     F    only Hartree local field effects (RPA)
   LNABLA  =     F    use nabla operator in PAW spheres
   LVEL    =     F    velocity operator in full k-point grid
   LINTERFAST=   F  fast interpolation
   KINTER  =     0    interpolate to denser k-point grid
   CSHIFT  =0.1000    complex shift for real part using Kramers Kronig
   OMEGAMAX=  -1.0    maximum frequency
   DEG_THRESHOLD= 0.2000000E-02 threshold for treating states as degnerate
   RTIME   =   -0.100 relaxation time in fs
  (WPLASMAI=    0.000 imaginary part of plasma frequency in eV, 0.658/RTIME)
   DFIELD  = 0.0000000 0.0000000 0.0000000 field for delta impulse in time
 
 Orbital magnetization related:
   ORBITALMAG=     F  switch on orbital magnetization
   LCHIMAG   =     F  perturbation theory with respect to B field
   DQ        =  0.001000  dq finite difference perturbation B field
   LLRAUG    =     F  two centre corrections for induced B field



--------------------------------------------------------------------------------------------------------


 conjugate gradient relaxation of ions
 charge density and potential will be updated during run
 non-spin polarized calculation
 RMM-DIIS sequential band-by-band and
  variant of blocked Davidson during initial phase
 perform sub-space diagonalisation
    before iterative eigenvector-optimisation
 modified Broyden-mixing scheme, WC =      100.0
 initial mixing is a Kerker type mixing with AMIX =  0.4000 and BMIX =      1.0000
 Hartree-type preconditioning will be used
 using additional bands           32
 real space projection scheme for non local part
 use partial core corrections
 calculate Harris-corrections to forces 
   (improved forces if not selfconsistent)
 use gradient corrections 
 use of overlap-Matrix (Vanderbilt PP)
 Methfessel and Paxton  Order N= 2 SIGMA  =   0.10


--------------------------------------------------------------------------------------------------------


  energy-cutoff  :      400.00
  volume of cell :      613.01
      direct lattice vectors                 reciprocal lattice vectors
     8.494851802  0.000000000  0.000000000     0.117718357 -0.000000000  0.000000000
     0.000000000  8.494851802  0.000000000    -0.000000000  0.117718357  0.000000000
     0.000000000  0.000000000  8.494851802    -0.000000000 -0.000000000  0.117718357

  length of vectors
     8.494851802  8.494851802  8.494851802     0.117718357  0.117718357  0.117718357


 
 k-points in units of 2pi/SCALE and weight: Automatic mesh                          
   0.00000000  0.00000000  0.00000000       0.008
   0.02354367  0.00000000  0.00000000       0.048
   0.04708734  0.00000000  0.00000000       0.048
   0.02354367  0.02354367  0.00000000       0.096
   0.04708734  0.02354367  0.00000000       0.192
   0.04708734  0.04708734  0.00000000       0.096
   0.02354367  0.02354367  0.02354367       0.064
   0.04708734  0.02354367  0.02354367       0.192
   0.04708734  0.04708734  0.02354367       0.192
   0.04708734  0.04708734  0.04708734       0.064
 
 k-points in reciprocal lattice and weights: Automatic mesh                          
   0.00000000  0.00000000  0.00000000       0.008
   0.20000000  0.00000000  0.00000000       0.048
   0.40000000  0.00000000  0.00000000       0.048
   0.20000000  0.20000000  0.00000000       0.096
   0.40000000  0.20000000  0.00000000       0.192
   0.40000000  0.40000000  0.00000000       0.096
   0.20000000  0.20000000  0.20000000       0.064
   0.40000000  0.20000000  0.20000000       0.192
   0.40000000  0.40000000  0.20000000       0.192
   0.40000000  0.40000000  0.40000000       0.064
 
 position of ions in fractional coordinates (direct lattice) 
   0.87500000  0.87500000  0.12500000
   0.37500000  0.12500000  0.37500000
   0.62500000  0.87500000  0.37500000
   0.12500000  0.12500000  0.12500000
   0.25000000  0.75000000  0.25000000
   0.00000000  0.00000000  0.50000000
   0.87500000  0.37500000  0.62500000
   0.37500000  0.62500000  0.87500000
   0.62500000  0.37500000  0.87500000
   0.12500000  0.62500000  0.62500000
   0.25000000  0.25000000  0.75000000
   0.00000000  0.50000000  0.00000000
   0.37500000  0.87500000  0.62500000
   0.87500000  0.12500000  0.87500000
   0.12500000  0.87500000  0.87500000
   0.62500000  0.12500000  0.62500000
   0.75000000  0.75000000  0.75000000
   0.50000000  0.00000000  0.00000000
   0.37500000  0.37500000  0.12500000
   0.87500000  0.62500000  0.37500000
   0.12500000  0.37500000  0.37500000
   0.62500000  0.62500000  0.12500000
   0.75000000  0.25000000  0.25000000
   0.50000000  0.50000000  0.50000000
   0.37630293  0.37630293  0.37630293
   0.87369707  0.12630293  0.12630293
   0.62630293  0.12630293  0.37369707
   0.12630293  0.87369707  0.12630293
   0.12369707  0.12369707  0.37630293
   0.12369707  0.37630293  0.12369707
   0.37369707  0.87369707  0.37369707
   0.37630293  0.12369707  0.12369707
   0.37630293  0.87630293  0.87630293
   0.87369707  0.62630293  0.62630293
   0.62630293  0.62630293  0.87369707
   0.12630293  0.37369707  0.62630293
   0.12369707  0.62369707  0.87630293
   0.12369707  0.87630293  0.62369707
   0.37369707  0.37369707  0.87369707
   0.37630293  0.62369707  0.62369707
   0.87630293  0.37630293  0.87630293
   0.37369707  0.12630293  0.62630293
   0.12630293  0.12630293  0.87369707
   0.62630293  0.87369707  0.62630293
   0.62369707  0.12369707  0.87630293
   0.62369707  0.37630293  0.62369707
   0.87369707  0.87369707  0.87369707
   0.87630293  0.12369707  0.62369707
   0.87630293  0.87630293  0.37630293
   0.37369707  0.62630293  0.12630293
   0.12630293  0.62630293  0.37369707
   0.62630293  0.37369707  0.12630293
   0.62369707  0.62369707  0.37630293
   0.62369707  0.87630293  0.12369707
   0.87369707  0.37369707  0.37369707
   0.87630293  0.62369707  0.12369707
 
 position of ions in cartesian coordinates  (Angst):
   7.43299533  7.43299533  1.06185648
   3.18556943  1.06185648  3.18556943
   5.30928238  7.43299533  3.18556943
   1.06185648  1.06185648  1.06185648
   2.12371295  6.37113885  2.12371295
   0.00000000  0.00000000  4.24742590
   7.43299533  3.18556943  5.30928238
   3.18556943  5.30928238  7.43299533
   5.30928238  3.18556943  7.43299533
   1.06185648  5.30928238  5.30928238
   2.12371295  2.12371295  6.37113885
   0.00000000  4.24742590  0.00000000
   3.18556943  7.43299533  5.30928238
   7.43299533  1.06185648  7.43299533
   1.06185648  7.43299533  7.43299533
   5.30928238  1.06185648  5.30928238
   6.37113885  6.37113885  6.37113885
   4.24742590  0.00000000  0.00000000
   3.18556943  3.18556943  1.06185648
   7.43299533  5.30928238  3.18556943
   1.06185648  3.18556943  3.18556943
   5.30928238  5.30928238  1.06185648
   6.37113885  2.12371295  2.12371295
   4.24742590  4.24742590  4.24742590
   3.19663765  3.19663765  3.19663765
   7.42192710  1.07292470  1.07292470
   5.32035060  1.07292470  3.17450120
   1.07292470  7.42192710  1.07292470
   1.05078825  1.05078825  3.19663765
   1.05078825  3.19663765  1.05078825
   3.17450120  7.42192710  3.17450120
   3.19663765  1.05078825  1.05078825
   3.19663765  7.44406355  7.44406355
   7.42192710  5.32035060  5.32035060
   5.32035060  5.32035060  7.42192710
   1.07292470  3.17450120  5.32035060
   1.05078825  5.29821415  7.44406355
   1.05078825  7.44406355  5.29821415
   3.17450120  3.17450120  7.42192710
   3.19663765  5.29821415  5.29821415
   7.44406355  3.19663765  7.44406355
   3.17450120  1.07292470  5.32035060
   1.07292470  1.07292470  7.42192710
   5.32035060  7.42192710  5.32035060
   5.29821415  1.05078825  7.44406355
   5.29821415  3.19663765  5.29821415
   7.42192710  7.42192710  7.42192710
   7.44406355  1.05078825  5.29821415
   7.44406355  7.44406355  3.19663765
   3.17450120  5.32035060  1.07292470
   1.07292470  5.32035060  3.17450120
   5.32035060  3.17450120  1.07292470
   5.29821415  5.29821415  3.19663765
   5.29821415  7.44406355  1.05078825
   7.42192710  3.17450120  3.17450120
   7.44406355  5.29821415  1.05078825
 


--------------------------------------------------------------------------------------------------------


 k-point  1 :   0.0000 0.0000 0.0000  plane waves:   11067
 k-point  2 :   0.2000 0.0000 0.0000  plane waves:   11124
 k-point  3 :   0.4000 0.0000 0.0000  plane waves:   11136
 k-point  4 :   0.2000 0.2000 0.0000  plane waves:   11141
 k-point  5 :   0.4000 0.2000 0.0000  plane waves:   11141
 k-point  6 :   0.4000 0.4000 0.0000  plane waves:   11134
 k-point  7 :   0.2000 0.2000 0.2000  plane waves:   11134
 k-point  8 :   0.4000 0.2000 0.2000  plane waves:   11107
 k-point  9 :   0.4000 0.4000 0.2000  plane waves:   11135
 k-point 10 :   0.4000 0.4000 0.4000  plane waves:   11173

 maximum and minimum number of plane-waves per node :      2801     2753

 maximum number of plane-waves:     11173
 maximum index in each direction: 
   IXMAX=   13   IYMAX=   13   IZMAX=   13
   IXMIN=  -14   IYMIN=  -14   IZMIN=  -14


 real space projection operators:
  total allocation   :      14630.50 KBytes
  max/ min on nodes  :       3676.50       3638.75


 parallel 3D FFT for wavefunctions:
    minimum data exchange during FFTs selected (reduces bandwidth)
 parallel 3D FFT for charge:
    minimum data exchange during FFTs selected (reduces bandwidth)


 total amount of memory used by VASP MPI-rank0    69322. kBytes
=======================================================================

   base      :      30000. kBytes
   nonlr-proj:      10083. kBytes
   fftplans  :       4303. kBytes
   grid      :       6748. kBytes
   one-center:         43. kBytes
   wavefun   :      18145. kBytes
 
     INWAV:  cpu time    0.0000: real time    0.0001
 Broyden mixing: mesh for mixing (old mesh)
   NGX = 27   NGY = 27   NGZ = 27
  (NGX  =112   NGY  =112   NGZ  =112)
  gives a total of  19683 points

 initial charge density was supplied:
 charge density of overlapping atoms calculated
 number of electron     248.0000000 magnetization 
 keeping initial charge density in first step


--------------------------------------------------------------------------------------------------------


 Maximum index for non-local projection operator         1438
 Maximum index for augmentation-charges          646 (set IRDMAX)


--------------------------------------------------------------------------------------------------------


 First call to EWALD:  gamma=   0.209
 Maximum number of real-space cells 3x 3x 3
 Maximum number of reciprocal cells 3x 3x 3

    FEWALD:  cpu time    0.0027: real time    0.0027


--------------------------------------- Iteration      1(   1)  ---------------------------------------


    POTLOK:  cpu time    0.0819: real time    0.0830
    SETDIJ:  cpu time    0.0079: real time    0.0079
     EDDAV:  cpu time    8.6477: real time    8.6590
       DOS:  cpu time    0.0017: real time    0.0017
    --------------------------------------------
      LOOP:  cpu time    8.7392: real time    8.7517

 eigenvalue-minimisations  :  3120
 total energy-change (2. order) : 0.8749594E+03  (-0.9934037E+04)
 number of electron     248.0000000 magnetization 
 augmentation part      248.0000000 magnetization 

 Free energy of the ion-electron system (eV)
  ---------------------------------------------------
  alpha Z        PSCENC =       318.18164223
  Ewald energy   TEWEN  =     -9791.89671902
  -Hartree energ DENC   =     -1495.74313510
  -exchange      EXHF   =         0.00000000
  -V(xc)+E(xc)   XCENC  =       199.65051593
  PAW double counting   =      7738.34714636    -7203.94574617
  entropy T*S    EENTRO =        -0.00578718
  eigenvalues    EBANDS =      1464.86752974
  atomic energy  EATOM  =      9645.50393724
  Solvation  Ediel_sol  =         0.00000000
  ---------------------------------------------------
  free energy    TOTEN  =       874.95938404 eV

  energy without entropy =      874.96517122  energy(sigma->0) =      874.96083083


--------------------------------------------------------------------------------------------------------




--------------------------------------- Iteration      1(   2)  ---------------------------------------


     EDDAV:  cpu time    7.3147: real time    7.3240
       DOS:  cpu time    0.0018: real time    0.0018
    --------------------------------------------
      LOOP:  cpu time    7.3165: real time    7.3258

 eigenvalue-minimisations  :  3920
 total energy-change (2. order) :-0.1125088E+04  (-0.1080508E+04)
 number of electron     248.0000000 magnetization 
 augmentation part      248.0000000 magnetization 

 Free energy of the ion-electron system (eV)
  ---------------------------------------------------
  alpha Z        PSCENC =       318.18164223
  Ewald energy   TEWEN  =     -9791.89671902
  -Hartree energ DENC   =     -1495.74313510
  -exchange      EXHF   =         0.00000000
  -V(xc)+E(xc)   XCENC  =       199.65051593
  PAW double counting   =      7738.34714636    -7203.94574617
  entropy T*S    EENTRO =        -0.00203750
  eigenvalues    EBANDS =       339.77610760
  atomic energy  EATOM  =      9645.50393724
  Solvation  Ediel_sol  =         0.00000000
  ---------------------------------------------------
  free energy    TOTEN  =      -250.12828842 eV

  energy without entropy =     -250.12625091  energy(sigma->0) =     -250.12777904


--------------------------------------------------------------------------------------------------------




--------------------------------------- Iteration      1(   3)  ---------------------------------------


     EDDAV:  cpu time    7.1246: real time    7.1330
       DOS:  cpu time    0.0018: real time    0.0018
    --------------------------------------------
      LOOP:  cpu time    7.1263: real time    7.1348

 eigenvalue-minimisations  :  3896
 total energy-change (2. order) :-0.1029869E+03  (-0.9877806E+02)
 number of electron     248.0000000 magnetization 
 augmentation part      248.0000000 magnetization 

 Free energy of the ion-electron system (eV)
  ---------------------------------------------------
  alpha Z        PSCENC =       318.18164223
  Ewald energy   TEWEN  =     -9791.89671902
  -Hartree energ DENC   =     -1495.74313510
  -exchange      EXHF   =         0.00000000
  -V(xc)+E(xc)   XCENC  =       199.65051593
  PAW double counting   =      7738.34714636    -7203.94574617
  entropy T*S    EENTRO =         0.00613384
  eigenvalues    EBANDS =       236.78105925
  atomic energy  EATOM  =      9645.50393724
  Solvation  Ediel_sol  =         0.00000000
  ---------------------------------------------------
  free energy    TOTEN  =      -353.11516542 eV

  energy without entropy =     -353.12129926  energy(sigma->0) =     -353.11669888


--------------------------------------------------------------------------------------------------------




--------------------------------------- Iteration      1(   4)  ---------------------------------------


     EDDAV:  cpu time    7.1463: real time    7.1680
       DOS:  cpu time    0.0017: real time    0.0017
    --------------------------------------------
      LOOP:  cpu time    7.1479: real time    7.1696

 eigenvalue-minimisations  :  3984
 total energy-change (2. order) :-0.3625693E+01  (-0.3515978E+01)
 number of electron     248.0000000 magnetization 
 augmentation part      248.0000000 magnetization 

 Free energy of the ion-electron system (eV)
  ---------------------------------------------------
  alpha Z        PSCENC =       318.18164223
  Ewald energy   TEWEN  =     -9791.89671902
  -Hartree energ DENC   =     -1495.74313510
  -exchange      EXHF   =         0.00000000
  -V(xc)+E(xc)   XCENC  =       199.65051593
  PAW double counting   =      7738.34714636    -7203.94574617
  entropy T*S    EENTRO =         0.00189343
  eigenvalues    EBANDS =       233.15960635
  atomic energy  EATOM  =      9645.50393724
  Solvation  Ediel_sol  =         0.00000000
  ---------------------------------------------------
  free energy    TOTEN  =      -356.74085874 eV

  energy without entropy =     -356.74275217  energy(sigma->0) =     -356.74133209


--------------------------------------------------------------------------------------------------------




--------------------------------------- Iteration      1(   5)  ---------------------------------------


     EDDAV:  cpu time    6.9505: real time    6.9744
       DOS:  cpu time    0.0018: real time    0.0018
    CHARGE:  cpu time    0.2741: real time    0.2746
    MIXING:  cpu time    0.0026: real time    0.0026
    --------------------------------------------
      LOOP:  cpu time    7.2291: real time    7.2536

 eigenvalue-minimisations  :  3824
 total energy-change (2. order) :-0.1011024E+00  (-0.9997481E-01)
 number of electron     248.0000217 magnetization 
 augmentation part       -1.1140792 magnetization 

 Broyden mixing:
  rms(total) = 0.37412E+01    rms(broyden)= 0.37404E+01
  rms(prec ) = 0.50926E+01
  weight for this iteration     100.00

 Free energy of the ion-electron system (eV)
  ---------------------------------------------------
  alpha Z        PSCENC =       318.18164223
  Ewald energy   TEWEN  =     -9791.89671902
  -Hartree energ DENC   =     -1495.74313510
  -exchange      EXHF   =         0.00000000
  -V(xc)+E(xc)   XCENC  =       199.65051593
  PAW double counting   =      7738.34714636    -7203.94574617
  entropy T*S    EENTRO =         0.00194341
  eigenvalues    EBANDS =       233.05845402
  atomic energy  EATOM  =      9645.50393724
  Solvation  Ediel_sol  =         0.00000000
  ---------------------------------------------------
  free energy    TOTEN  =      -356.84196109 eV

  energy without entropy =     -356.84390449  energy(sigma->0) =     -356.84244694


--------------------------------------------------------------------------------------------------------




--------------------------------------- Iteration      1(   6)  ---------------------------------------


    POTLOK:  cpu time    0.0710: real time    0.0730
    SETDIJ:  cpu time    0.0078: real time    0.0078
    EDDIAG:  cpu time    0.7099: real time    0.7116
  RMM-DIIS:  cpu time    3.8224: real time    3.8322
    ORTHCH:  cpu time    0.1057: real time    0.1059
       DOS:  cpu time    0.0015: real time    0.0015
    CHARGE:  cpu time    0.2716: real time    0.2721
    MIXING:  cpu time    0.0023: real time    0.0023
    --------------------------------------------
      LOOP:  cpu time    4.9922: real time    5.0065

 eigenvalue-minimisations  :  3122
 total energy-change (2. order) : 0.2661876E+02  (-0.1495504E+02)
 number of electron     248.0000142 magnetization 
 augmentation part       -3.7822342 magnetization 

 Broyden mixing:
  rms(total) = 0.16917E+01    rms(broyden)= 0.16906E+01
  rms(prec ) = 0.17856E+01
  weight for this iteration     100.00

 eigenvalues of (default mixing * dielectric matrix)
  average eigenvalue GAMMA=   0.9876
  0.9876

 Free energy of the ion-electron system (eV)
  ---------------------------------------------------
  alpha Z        PSCENC =       318.18164223
  Ewald energy   TEWEN  =     -9791.89671902
  -Hartree energ DENC   =     -1760.05365378
  -exchange      EXHF   =         0.00000000
  -V(xc)+E(xc)   XCENC  =       217.30236271
  PAW double counting   =     13104.45770808   -12571.65771408
  entropy T*S    EENTRO =         0.01633258
  eigenvalues    EBANDS =       507.92289895
  atomic energy  EATOM  =      9645.50393724
  Solvation  Ediel_sol  =         0.00000000
  ---------------------------------------------------
  free energy    TOTEN  =      -330.22320508 eV

  energy without entropy =     -330.23953766  energy(sigma->0) =     -330.22728822


--------------------------------------------------------------------------------------------------------




--------------------------------------- Iteration      1(   7)  ---------------------------------------


    POTLOK:  cpu time    0.0670: real time    0.0689
    SETDIJ:  cpu time    0.0077: real time    0.0081
    EDDIAG:  cpu time    0.7068: real time    0.7087
  RMM-DIIS:  cpu time    3.9298: real time    3.9399
    ORTHCH:  cpu time    0.1049: real time    0.1052
       DOS:  cpu time    0.0018: real time    0.0018
    CHARGE:  cpu time    0.2801: real time    0.2806
    MIXING:  cpu time    0.0029: real time    0.0030
    --------------------------------------------
      LOOP:  cpu time    5.1011: real time    5.1162

 eigenvalue-minimisations  :  3306
 total energy-change (2. order) : 0.5474361E+00  (-0.4196981E+00)
 number of electron     248.0000139 magnetization 
 augmentation part       -3.8940348 magnetization 

 Broyden mixing:
  rms(total) = 0.96944E+00    rms(broyden)= 0.96935E+00
  rms(prec ) = 0.10388E+01
  weight for this iteration     100.00

 eigenvalues of (default mixing * dielectric matrix)
  average eigenvalue GAMMA=   1.5561
  1.0496  2.0626

 Free energy of the ion-electron system (eV)
  ---------------------------------------------------
  alpha Z        PSCENC =       318.18164223
  Ewald energy   TEWEN  =     -9791.89671902
  -Hartree energ DENC   =     -1744.94497315
  -exchange      EXHF   =         0.00000000
  -V(xc)+E(xc)   XCENC  =       216.67951476
  PAW double counting   =     16981.48401179   -16448.91933841
  entropy T*S    EENTRO =         0.01779963
  eigenvalues    EBANDS =       494.21835598
  atomic energy  EATOM  =      9645.50393724
  Solvation  Ediel_sol  =         0.00000000
  ---------------------------------------------------
  free energy    TOTEN  =      -329.67576895 eV

  energy without entropy =     -329.69356858  energy(sigma->0) =     -329.68021886


--------------------------------------------------------------------------------------------------------




--------------------------------------- Iteration      1(   8)  ---------------------------------------


    POTLOK:  cpu time    0.0670: real time    0.0686
    SETDIJ:  cpu time    0.0076: real time    0.0076
    EDDIAG:  cpu time    2.0757: real time    2.0773
  RMM-DIIS:  cpu time    3.6390: real time    3.6485
    ORTHCH:  cpu time    0.1015: real time    0.1017
       DOS:  cpu time    0.0018: real time    0.0018
    CHARGE:  cpu time    0.2800: real time    0.2806
    MIXING:  cpu time    0.0023: real time    0.0023
    --------------------------------------------
      LOOP:  cpu time    6.1749: real time    6.1885

 eigenvalue-minimisations  :  3120
 total energy-change (2. order) : 0.9527531E-01  (-0.2473112E+00)
 number of electron     248.0000147 magnetization 
 augmentation part       -3.6349795 magnetization 

 Broyden mixing:
  rms(total) = 0.22004E+00    rms(broyden)= 0.21993E+00
  rms(prec ) = 0.33124E+00
  weight for this iteration     100.00

 eigenvalues of (default mixing * dielectric matrix)
  average eigenvalue GAMMA=   1.3794
  2.2877  0.9253  0.9253

 Free energy of the ion-electron system (eV)
  ---------------------------------------------------
  alpha Z        PSCENC =       318.18164223
  Ewald energy   TEWEN  =     -9791.89671902
  -Hartree energ DENC   =     -1715.53447085
  -exchange      EXHF   =         0.00000000
  -V(xc)+E(xc)   XCENC  =       215.35664509
  PAW double counting   =     22259.56487396   -21727.27244078
  entropy T*S    EENTRO =         0.01530327
  eigenvalues    EBANDS =       466.50073523
  atomic energy  EATOM  =      9645.50393724
  Solvation  Ediel_sol  =         0.00000000
  ---------------------------------------------------
  free energy    TOTEN  =      -329.58049364 eV

  energy without entropy =     -329.59579691  energy(sigma->0) =     -329.58431946


--------------------------------------------------------------------------------------------------------




--------------------------------------- Iteration      1(   9)  ---------------------------------------


    POTLOK:  cpu time    0.0642: real time    0.0661
    SETDIJ:  cpu time    0.0074: real time    0.0074
    EDDIAG:  cpu time    0.7023: real time    0.7037
  RMM-DIIS:  cpu time    3.6902: real time    3.7003
    ORTHCH:  cpu time    0.1047: real time    0.1049
       DOS:  cpu time    0.0018: real time    0.0018
    CHARGE:  cpu time    0.2789: real time    0.2793
    MIXING:  cpu time    0.0023: real time    0.0023
    --------------------------------------------
      LOOP:  cpu time    4.8517: real time    4.8657

 eigenvalue-minimisations  :  3158
 total energy-change (2. order) : 0.1552224E+00  (-0.2372825E-01)
 number of electron     248.0000145 magnetization 
 augmentation part       -3.7315719 magnetization 

 Broyden mixing:
  rms(total) = 0.84385E-01    rms(broyden)= 0.84376E-01
  rms(prec ) = 0.12042E+00
  weight for this iteration     100.00

 eigenvalues of (default mixing * dielectric matrix)
  average eigenvalue GAMMA=   1.2764
  2.2879  0.9457  0.9360  0.9360

 Free energy of the ion-electron system (eV)
  ---------------------------------------------------
  alpha Z        PSCENC =       318.18164223
  Ewald energy   TEWEN  =     -9791.89671902
  -Hartree energ DENC   =     -1730.58240878
  -exchange      EXHF   =         0.00000000
  -V(xc)+E(xc)   XCENC  =       216.39556641
  PAW double counting   =     22803.61343285   -22271.43048909
  entropy T*S    EENTRO =         0.01631156
  eigenvalues    EBANDS =       480.77345536
  atomic energy  EATOM  =      9645.50393724
  Solvation  Ediel_sol  =         0.00000000
  ---------------------------------------------------
  free energy    TOTEN  =      -329.42527124 eV

  energy without entropy =     -329.44158280  energy(sigma->0) =     -329.42934913


--------------------------------------------------------------------------------------------------------




--------------------------------------- Iteration      1(  10)  ---------------------------------------


    POTLOK:  cpu time    0.0645: real time    0.0653
    SETDIJ:  cpu time    0.0075: real time    0.0075
    EDDIAG:  cpu time    0.7054: real time    0.7073
  RMM-DIIS:  cpu time    3.7301: real time    3.7377
    ORTHCH:  cpu time    0.1038: real time    0.1040
       DOS:  cpu time    0.0018: real time    0.0018
    CHARGE:  cpu time    0.2816: real time    0.2822
    MIXING:  cpu time    0.0024: real time    0.0024
    --------------------------------------------
      LOOP:  cpu time    4.8971: real time    4.9082

 eigenvalue-minimisations  :  3307
 total energy-change (2. order) : 0.9020998E-02  (-0.1248047E-01)
 number of electron     248.0000143 magnetization 
 augmentation part       -3.7957229 magnetization 

 Broyden mixing:
  rms(total) = 0.25819E-01    rms(broyden)= 0.25741E-01
  rms(prec ) = 0.28793E-01
  weight for this iteration     100.00

 eigenvalues of (default mixing * dielectric matrix)
  average eigenvalue GAMMA=   1.5619
  2.4485  2.4485  0.9203  0.9961  0.9961

 Free energy of the ion-electron system (eV)
  ---------------------------------------------------
  alpha Z        PSCENC =       318.18164223
  Ewald energy   TEWEN  =     -9791.89671902
  -Hartree energ DENC   =     -1736.43118814
  -exchange      EXHF   =         0.00000000
  -V(xc)+E(xc)   XCENC  =       216.80267046
  PAW double counting   =     22880.05475821   -22347.92374759
  entropy T*S    EENTRO =         0.01666783
  eigenvalues    EBANDS =       486.27572853
  atomic energy  EATOM  =      9645.50393724
  Solvation  Ediel_sol  =         0.00000000
  ---------------------------------------------------
  free energy    TOTEN  =      -329.41625024 eV

  energy without entropy =     -329.43291807  energy(sigma->0) =     -329.42041720


--------------------------------------------------------------------------------------------------------




--------------------------------------- Iteration      1(  11)  ---------------------------------------


    POTLOK:  cpu time    0.0639: real time    0.0646
    SETDIJ:  cpu time    0.0075: real time    0.0075
    EDDIAG:  cpu time    0.7021: real time    0.7035
  RMM-DIIS:  cpu time    3.7034: real time    3.7106
    ORTHCH:  cpu time    0.1028: real time    0.1030
       DOS:  cpu time    0.0017: real time    0.0017
    CHARGE:  cpu time    0.2797: real time    0.2801
    MIXING:  cpu time    0.0023: real time    0.0023
    --------------------------------------------
      LOOP:  cpu time    4.8633: real time    4.8732

 eigenvalue-minimisations  :  3281
 total energy-change (2. order) :-0.1120874E-02  (-0.5506679E-03)
 number of electron     248.0000143 magnetization 
 augmentation part       -3.7912940 magnetization 

 Broyden mixing:
  rms(total) = 0.10538E-01    rms(broyden)= 0.10533E-01
  rms(prec ) = 0.15726E-01
  weight for this iteration     100.00

 eigenvalues of (default mixing * dielectric matrix)
  average eigenvalue GAMMA=   1.4571
  2.5801  2.4324  0.9444  0.9444  0.9206  0.9206

 Free energy of the ion-electron system (eV)
  ---------------------------------------------------
  alpha Z        PSCENC =       318.18164223
  Ewald energy   TEWEN  =     -9791.89671902
  -Hartree energ DENC   =     -1735.51722640
  -exchange      EXHF   =         0.00000000
  -V(xc)+E(xc)   XCENC  =       216.78914928
  PAW double counting   =     22812.74881340   -22280.64793633
  entropy T*S    EENTRO =         0.01650392
  eigenvalues    EBANDS =       485.40446457
  atomic energy  EATOM  =      9645.50393724
  Solvation  Ediel_sol  =         0.00000000
  ---------------------------------------------------
  free energy    TOTEN  =      -329.41737111 eV

  energy without entropy =     -329.43387503  energy(sigma->0) =     -329.42149709


--------------------------------------------------------------------------------------------------------




--------------------------------------- Iteration      1(  12)  ---------------------------------------


    POTLOK:  cpu time    0.0631: real time    0.0636
    SETDIJ:  cpu time    0.0076: real time    0.0076
    EDDIAG:  cpu time    0.6991: real time    0.7002
  RMM-DIIS:  cpu time    3.1845: real time    4.6610
    ORTHCH:  cpu time    0.5336: real time    0.9875
       DOS:  cpu time    0.0017: real time    0.0017
    CHARGE:  cpu time    0.2821: real time    0.2822
    MIXING:  cpu time    0.0022: real time    0.0022
    --------------------------------------------
      LOOP:  cpu time    4.7739: real time    6.7059

 eigenvalue-minimisations  :  3320
 total energy-change (2. order) : 0.1424637E-03  (-0.3739353E-03)
 number of electron     248.0000143 magnetization 
 augmentation part       -3.8012245 magnetization 

 Broyden mixing:
  rms(total) = 0.50011E-02    rms(broyden)= 0.49899E-02
  rms(prec ) = 0.70108E-02
  weight for this iteration     100.00

 eigenvalues of (default mixing * dielectric matrix)
  average eigenvalue GAMMA=   1.4449
  2.6262  2.3715  0.9546  0.9546  1.0546  1.0766  1.0766

 Free energy of the ion-electron system (eV)
  ---------------------------------------------------
  alpha Z        PSCENC =       318.18164223
  Ewald energy   TEWEN  =     -9791.89671902
  -Hartree energ DENC   =     -1736.59736026
  -exchange      EXHF   =         0.00000000
  -V(xc)+E(xc)   XCENC  =       216.86181368
  PAW double counting   =     22815.82636890   -22283.73006029
  entropy T*S    EENTRO =         0.01662091
  eigenvalues    EBANDS =       486.41652795
  atomic energy  EATOM  =      9645.50393724
  Solvation  Ediel_sol  =         0.00000000
  ---------------------------------------------------
  free energy    TOTEN  =      -329.41722865 eV

  energy without entropy =     -329.43384956  energy(sigma->0) =     -329.42138388


--------------------------------------------------------------------------------------------------------




--------------------------------------- Iteration      1(  13)  ---------------------------------------


    POTLOK:  cpu time    0.0622: real time    0.0642
    SETDIJ:  cpu time    0.0074: real time    0.0074
    EDDIAG:  cpu time    0.6905: real time    0.6904
  RMM-DIIS:  cpu time    2.4744: real time    2.4742
    ORTHCH:  cpu time    0.1018: real time    0.1018
       DOS:  cpu time    0.0016: real time    0.0016
    --------------------------------------------
      LOOP:  cpu time    3.3379: real time    3.3396

 eigenvalue-minimisations  :  2019
 total energy-change (2. order) : 0.6036896E-04  (-0.1923390E-04)
 number of electron     248.0000143 magnetization 
 augmentation part       -3.8012245 magnetization 

 Free energy of the ion-electron system (eV)
  ---------------------------------------------------
  alpha Z        PSCENC =       318.18164223
  Ewald energy   TEWEN  =     -9791.89671902
  -Hartree energ DENC   =     -1736.35137663
  -exchange      EXHF   =         0.00000000
  -V(xc)+E(xc)   XCENC  =       216.84690722
  PAW double counting   =     22812.97651973   -22280.87693775
  entropy T*S    EENTRO =         0.01660247
  eigenvalues    EBANDS =       486.18225623
  atomic energy  EATOM  =      9645.50393724
  Solvation  Ediel_sol  =         0.00000000
  ---------------------------------------------------
  free energy    TOTEN  =      -329.41716828 eV

  energy without entropy =     -329.43377075  energy(sigma->0) =     -329.42131890


--------------------------------------------------------------------------------------------------------




 average (electrostatic) potential at core
  the test charge radii are     0.7089  0.9892
  (the norm of the test charge is              1.0000)
       1 -60.6862       2 -60.6862       3 -60.6862       4 -60.6862       5 -60.4171
       6 -60.4171       7 -60.6862       8 -60.6862       9 -60.6862      10 -60.6862
      11 -60.4171      12 -60.4171      13 -60.6862      14 -60.6862      15 -60.6862
      16 -60.6862      17 -60.4171      18 -60.4171      19 -60.6862      20 -60.6862
      21 -60.6862      22 -60.6862      23 -60.4171      24 -60.4171      25 -80.6218
      26 -80.6218      27 -80.6218      28 -80.6218      29 -80.6218      30 -80.6218
      31 -80.6218      32 -80.6218      33 -80.6218      34 -80.6218      35 -80.6218
      36 -80.6218      37 -80.6218      38 -80.6218      39 -80.6218      40 -80.6218
      41 -80.6218      42 -80.6218      43 -80.6218      44 -80.6218      45 -80.6218
      46 -80.6218      47 -80.6218      48 -80.6218      49 -80.6218      50 -80.6218
      51 -80.6218      52 -80.6218      53 -80.6218      54 -80.6218      55 -80.6218
      56 -80.6218
 
 
 
 E-fermi :  10.0943     XC(G=0): -11.5502     alpha+bet :-15.9219


 k-point     1 :       0.0000    0.0000    0.0000
  band No.  band energies     occupation 
      1      -9.3297      2.00000
      2      -8.3625      2.00000
      3      -8.3625      2.00000
      4      -8.3625      2.00000
      5      -8.3625      2.00000
      6      -8.3625      2.00000
      7      -8.3625      2.00000
      8      -7.9710      2.00000
      9      -7.5293      2.00000
     10      -7.5293      2.00000
     11      -7.5293      2.00000
     12      -7.5293      2.00000
     13      -7.5293      2.00000
     14      -7.5293      2.00000
     15      -7.5066      2.00000
     16      -6.4140      2.00000
     17      -6.4140      2.00000
     18      -6.4140      2.00000
     19      -6.4140      2.00000
     20      -6.4140      2.00000
     21      -6.4140      2.00000
     22      -6.2808      2.00000
     23      -6.2808      2.00000
     24      -6.2808      2.00000
     25      -0.8228      2.00000
     26      -0.8228      2.00000
     27      -0.8228      2.00000
     28      -0.7108      2.00000
     29      -0.3907      2.00000
     30      -0.3907      2.00000
     31      -0.3907      2.00000
     32      -0.3907      2.00000
     33      -0.3907      2.00000
     34      -0.3907      2.00000
     35       0.3520      2.00000
     36       0.3520      2.00000
     37       0.3520      2.00000
     38       0.3520      2.00000
     39       0.3520      2.00000
     40       0.3520      2.00000
     41       0.8102      2.00000
     42       0.8102      2.00000
     43       0.8102      2.00000
     44       1.1514      2.00000
     45       1.1514      2.00000
     46       1.1514      2.00000
     47       1.1514      2.00000
     48       1.1514      2.00000
     49       1.1514      2.00000
     50       1.5807      2.00000
     51       1.5807      2.00000
     52       1.5807      2.00000
     53       1.5807      2.00000
     54       1.5807      2.00000
     55       1.5807      2.00000
     56       1.5860      2.00000
     57       1.5860      2.00000
     58       2.9750      2.00000
     59       2.9750      2.00000
     60       2.9750      2.00000
     61       2.9750      2.00000
     62       2.9750      2.00000
     63       2.9750      2.00000
     64       3.1136      2.00000
     65       3.1136      2.00000
     66       3.1136      2.00000
     67       3.1136      2.00000
     68       3.1136      2.00000
     69       3.1136      2.00000
     70       3.1145      2.00000
     71       3.1145      2.00000
     72       3.1145      2.00000
     73       3.1145      2.00000
     74       3.1145      2.00000
     75       3.1145      2.00000
     76       3.3363      2.00000
     77       3.3363      2.00000
     78       3.3363      2.00000
     79       3.7523      2.00000
     80       3.7523      2.00000
     81       3.7523      2.00000
     82       3.7523      2.00000
     83       3.7523      2.00000
     84       3.7523      2.00000
     85       5.0103      2.00000
     86       5.0103      2.00000
     87       5.0103      2.00000
     88       5.4656      2.00000
     89       5.6815      2.00000
     90       5.6815      2.00000
     91       5.6815      2.00000
     92       5.6815      2.00000
     93       5.6815      2.00000
     94       5.6815      2.00000
     95       6.1515      2.00000
     96       6.1515      2.00000
     97       6.1515      2.00000
     98       8.2529      2.00000
     99       8.2529      2.00000
    100       8.2529      2.00000
    101       8.3908      2.00000
    102       8.3908      2.00000
    103       8.3908      2.00000
    104       8.3908      2.00000
    105       8.3908      2.00000
    106       8.3908      2.00000
    107       9.0693      2.00000
    108       9.0693      2.00000
    109       9.0693      2.00000
    110       9.0693      2.00000
    111       9.0693      2.00000
    112       9.0693      2.00000
    113       9.2083      2.00000
    114       9.2083      2.00000
    115       9.2083      2.00000
    116       9.2083      2.00000
    117       9.2083      2.00000
    118       9.2083      2.00000
    119       9.3576      2.00000
    120       9.3576      2.00000
    121       9.3576      2.00000
    122       9.5940      2.00000
    123       9.5940      2.00000
    124       9.5940      2.00000
    125       9.5940      2.00000
    126       9.5940      2.00000
    127       9.5940      2.00000
    128      11.1309      0.00000
    129      11.3037      0.00000
    130      11.3037      0.00000
    131      11.3037      0.00000
    132      11.3037      0.00000
    133      11.3037      0.00000
    134      11.3037      0.00000
    135      11.4836      0.00000
    136      11.4836      0.00000
    137      11.6444      0.00000
    138      11.6444      0.00000
    139      11.6444      0.00000
    140      11.6444      0.00000
    141      11.6444      0.00000
    142      11.6444      0.00000
    143      11.6944      0.00000
    144      11.6944      0.00000
    145      11.6944      0.00000
    146      11.6945      0.00000
    147      11.6945      0.00000
    148      11.6945      0.00000
    149      12.6039      0.00000
    150      12.6439      0.00000
    151      12.6440      0.00000
    152      12.6447      0.00000
    153      13.2328      0.00000
    154      13.2995      0.00000
    155      14.0374      0.00000
    156      14.0677      0.00000

 k-point     2 :       0.2000    0.0000    0.0000
  band No.  band energies     occupation 
      1      -9.2790      2.00000
      2      -8.6217      2.00000
      3      -8.3486      2.00000
      4      -8.3486      2.00000
      5      -8.3486      2.00000
      6      -8.3486      2.00000
      7      -8.1938      2.00000
      8      -7.9871      2.00000
      9      -7.6354      2.00000
     10      -7.5665      2.00000
     11      -7.5665      2.00000
     12      -7.5665      2.00000
     13      -7.5665      2.00000
     14      -7.5278      2.00000
     15      -7.2677      2.00000
     16      -6.4016      2.00000
     17      -6.4016      2.00000
     18      -6.3838      2.00000
     19      -6.3838      2.00000
     20      -6.3838      2.00000
     21      -6.3838      2.00000
     22      -6.3615      2.00000
     23      -6.2940      2.00000
     24      -6.2940      2.00000
     25      -0.8026      2.00000
     26      -0.8026      2.00000
     27      -0.7041      2.00000
     28      -0.6043      2.00000
     29      -0.4599      2.00000
     30      -0.4599      2.00000
     31      -0.3579      2.00000
     32      -0.3579      2.00000
     33      -0.3579      2.00000
     34      -0.3579      2.00000
     35       0.1071      2.00000
     36       0.2547      2.00000
     37       0.2547      2.00000
     38       0.2547      2.00000
     39       0.2547      2.00000
     40       0.4591      2.00000
     41       0.4730      2.00000
     42       0.7265      2.00000
     43       0.9228      2.00000
     44       0.9228      2.00000
     45       1.1345      2.00000
     46       1.1345      2.00000
     47       1.1345      2.00000
     48       1.1345      2.00000
     49       1.3407      2.00000
     50       1.6131      2.00000
     51       1.6131      2.00000
     52       1.6131      2.00000
     53       1.6131      2.00000
     54       1.6166      2.00000
     55       1.6166      2.00000
     56       1.6453      2.00000
     57       2.0912      2.00000
     58       2.5010      2.00000
     59       2.7063      2.00000
     60       2.7063      2.00000
     61       2.7063      2.00000
     62       2.7063      2.00000
     63       2.9454      2.00000
     64       2.9454      2.00000
     65       3.0406      2.00000
     66       3.1323      2.00000
     67       3.1323      2.00000
     68       3.1323      2.00000
     69       3.1323      2.00000
     70       3.2777      2.00000
     71       3.2777      2.00000
     72       3.3354      2.00000
     73       3.3746      2.00000
     74       3.5042      2.00000
     75       3.5396      2.00000
     76       3.5396      2.00000
     77       3.5396      2.00000
     78       3.5396      2.00000
     79       3.7835      2.00000
     80       3.7835      2.00000
     81       3.7835      2.00000
     82       3.7835      2.00000
     83       3.9378      2.00000
     84       3.9378      2.00000
     85       4.8422      2.00000
     86       4.8422      2.00000
     87       4.8822      2.00000
     88       5.3201      2.00000
     89       5.5126      2.00000
     90       5.5126      2.00000
     91       5.5126      2.00000
     92       5.5126      2.00000
     93       5.7065      2.00000
     94       5.7065      2.00000
     95       6.0625      2.00000
     96       6.0625      2.00000
     97       6.3755      2.00000
     98       7.7883      2.00000
     99       8.2870      2.00000
    100       8.3013      2.00000
    101       8.4222      2.00000
    102       8.4222      2.00000
    103       8.4222      2.00000
    104       8.4222      2.00000
    105       8.5929      2.00000
    106       8.5929      2.00000
    107       8.7114      2.00000
    108       8.7114      2.00000
    109       8.7114      2.00000
    110       8.7114      2.00000
    111       8.8930      2.00000
    112       9.0338      2.00000
    113       9.0338      2.00000
    114       9.0355      2.00000
    115       9.2079      2.00000
    116       9.2079      2.00000
    117       9.2079      2.00000
    118       9.2079      2.00000
    119       9.3326      2.00000
    120       9.3326      2.00000
    121       9.8394      1.99644
    122       9.8394      1.99644
    123       9.9053      1.99139
    124      10.0568      1.71264
    125      10.0568      1.71264
    126      10.0568      1.71264
    127      10.0568      1.71264
    128      10.9464      0.00000
    129      10.9464      0.00000
    130      10.9464      0.00000
    131      10.9464      0.00000
    132      11.2416      0.00000
    133      11.3106      0.00000
    134      11.3989      0.00000
    135      11.4437      0.00000
    136      11.4786      0.00000
    137      11.4837      0.00000
    138      11.4839      0.00000
    139      11.5516      0.00000
    140      11.6833      0.00000
    141      11.6834      0.00000
    142      11.6834      0.00000
    143      11.6834      0.00000
    144      12.0283      0.00000
    145      12.0283      0.00000
    146      12.0284      0.00000
    147      12.0287      0.00000
    148      12.2625      0.00000
    149      12.5071      0.00000
    150      12.5957      0.00000
    151      12.5962      0.00000
    152      12.8075      0.00000
    153      12.9798      0.00000
    154      13.5197      0.00000
    155      13.7948      0.00000
    156      13.8816      0.00000

 k-point     3 :       0.4000    0.0000    0.0000
  band No.  band energies     occupation 
      1      -9.1312      2.00000
      2      -8.9009      2.00000
      3      -8.3240      2.00000
      4      -8.3240      2.00000
      5      -8.3240      2.00000
      6      -8.3240      2.00000
      7      -8.0972      2.00000
      8      -8.0313      2.00000
      9      -7.6305      2.00000
     10      -7.6258      2.00000
     11      -7.6258      2.00000
     12      -7.6258      2.00000
     13      -7.6258      2.00000
     14      -7.5795      2.00000
     15      -6.9177      2.00000
     16      -6.5891      2.00000
     17      -6.3691      2.00000
     18      -6.3691      2.00000
     19      -6.3378      2.00000
     20      -6.3378      2.00000
     21      -6.3378      2.00000
     22      -6.3378      2.00000
     23      -6.3279      2.00000
     24      -6.3279      2.00000
     25      -0.7315      2.00000
     26      -0.7315      2.00000
     27      -0.6040      2.00000
     28      -0.6040      2.00000
     29      -0.3705      2.00000
     30      -0.2983      2.00000
     31      -0.2768      2.00000
     32      -0.2768      2.00000
     33      -0.2768      2.00000
     34      -0.2768      2.00000
     35      -0.0005      2.00000
     36       0.0785      2.00000
     37       0.0785      2.00000
     38       0.0785      2.00000
     39       0.0785      2.00000
     40       0.0958      2.00000
     41       0.1328      2.00000
     42       0.1876      2.00000
     43       1.1085      2.00000
     44       1.1085      2.00000
     45       1.1085      2.00000
     46       1.1085      2.00000
     47       1.2116      2.00000
     48       1.2116      2.00000
     49       1.5227      2.00000
     50       1.5227      2.00000
     51       1.6788      2.00000
     52       1.6788      2.00000
     53       1.6788      2.00000
     54       1.6788      2.00000
     55       1.7900      2.00000
     56       1.8219      2.00000
     57       2.1102      2.00000
     58       2.4258      2.00000
     59       2.4475      2.00000
     60       2.4475      2.00000
[...]
    120       9.8902      1.99021
    121       9.8902      1.99021
    122       9.9716      2.06740
    123       9.9716      2.06740
    124       9.9716      2.06740
    125      10.7328      0.00000
    126      10.7328      0.00000
    127      10.7328      0.00000
    128      10.7947      0.00000
    129      10.7947      0.00000
    130      10.8691      0.00000
    131      10.8691      0.00000
    132      10.8691      0.00000
    133      11.4173      0.00000
    134      11.4173      0.00000
    135      11.4173      0.00000
    136      11.8549      0.00000
    137      11.8549      0.00000
    138      11.8549      0.00000
    139      11.9199      0.00000
    140      12.0242      0.00000
    141      12.0242      0.00000
    142      12.1027      0.00000
    143      12.1027      0.00000
    144      12.1027      0.00000
    145      12.3467      0.00000
    146      12.3467      0.00000
    147      12.3468      0.00000
    148      12.4407      0.00000
    149      12.4410      0.00000
    150      12.4413      0.00000
    151      12.5778      0.00000
    152      12.5784      0.00000
    153      12.7541      0.00000
    154      12.8299      0.00000
    155      12.8382      0.00000
    156      12.9183      0.00000


--------------------------------------------------------------------------------------------------------


 soft charge-density along one line, spin component           1
         0         1         2         3         4         5         6         7         8         9
 total charge-density along one line
 
 pseudopotential strength for first ion, spin component:           1
 12.326  14.772  -0.000  -0.000   0.000  -0.000  -0.000   0.000
 14.772  17.704  -0.000  -0.000   0.000  -0.000  -0.000   0.000
 -0.000  -0.000  -5.808  -0.003   0.003  -7.725  -0.005   0.005
 -0.000  -0.000  -0.003  -5.808  -0.003  -0.005  -7.725  -0.005
  0.000   0.000   0.003  -0.003  -5.808   0.005  -0.005  -7.725
 -0.000  -0.000  -7.725  -0.005   0.005  -9.556  -0.007   0.007
 -0.000  -0.000  -0.005  -7.725  -0.005  -0.007  -9.556  -0.007
  0.000   0.000   0.005  -0.005  -7.725   0.007  -0.007  -9.556
 total augmentation occupancy for first ion, spin component:           1
  5.799  -2.747  -0.000  -0.000   0.000  -0.000  -0.000   0.000
 -2.747   1.879   0.000  -0.000  -0.000   0.000  -0.000   0.000
 -0.000   0.000   1.829  -0.041   0.041  -0.278   0.003  -0.003
 -0.000  -0.000  -0.041   1.829  -0.041   0.003  -0.278   0.003
  0.000  -0.000   0.041  -0.041   1.829  -0.003   0.003  -0.278
 -0.000   0.000  -0.278   0.003  -0.003   0.053   0.001  -0.001
 -0.000  -0.000   0.003  -0.278   0.003   0.001   0.053   0.001
  0.000   0.000  -0.003   0.003  -0.278  -0.001   0.001   0.053


------------------------ aborting loop because EDIFF is reached ----------------------------------------


    CHARGE:  cpu time    0.2752: real time    0.2752
    FORLOC:  cpu time    0.0265: real time    0.0265
    FORNL :  cpu time    1.7183: real time    1.7186
    STRESS:  cpu time    5.1780: real time    5.1787
    FORCOR:  cpu time    0.0857: real time    0.0857
    FORHAR:  cpu time    0.0382: real time    0.0382
    MIXING:  cpu time    0.0017: real time    0.0017
    OFIELD:  cpu time    0.0000: real time    0.0000

  FORCE on cell =-STRESS in cart. coord.  units (eV):
  Direction    XX          YY          ZZ          XY          YZ          ZX
  --------------------------------------------------------------------------------------
  Alpha Z   318.18164   318.18164   318.18164
  Ewald   -3263.94769 -3263.94769 -3263.94769     0.00000    -0.00000    -0.00000
  Hartree   578.79667   578.79667   578.79667    -0.00000    -0.00000    -0.00000
  E(xc)    -925.22803  -925.22803  -925.22803     0.00000     0.00000     0.00000
  Local    -754.23785  -754.23785  -754.23785    -0.00000    -0.00000    -0.00000
  n-local   968.16388   969.61037   970.23621     0.63651     1.86329     0.67142
  augment  -179.25630  -179.25630  -179.25630     0.00000    -0.00000     0.00000
  Kinetic  3268.02072  3280.15474  3293.65898    -3.38952    -4.03995    -1.86040
  Fock        0.00000     0.00000     0.00000     0.00000     0.00000     0.00000
  -------------------------------------------------------------------------------------
  Total      24.25674    24.25674    24.25674     0.00000     0.00000     0.00000
  in kB      63.39800    63.39800    63.39800     0.00000     0.00000     0.00000
  external pressure =       63.40 kB  Pullay stress =        0.00 kB


 VOLUME and BASIS-vectors are now :
 -----------------------------------------------------------------------------
  energy-cutoff  :      400.00
  volume of cell :      613.01
      direct lattice vectors                 reciprocal lattice vectors
     8.494851802  0.000000000  0.000000000     0.117718357 -0.000000000  0.000000000
     0.000000000  8.494851802  0.000000000    -0.000000000  0.117718357  0.000000000
     0.000000000  0.000000000  8.494851802    -0.000000000 -0.000000000  0.117718357

  length of vectors
     8.494851802  8.494851802  8.494851802     0.117718357  0.117718357  0.117718357


 FORCES acting on ions
    electron-ion (+dipol)            ewald-force                    non-local-force                 convergence-correction
 -----------------------------------------------------------------------------------------------
   -.110E-11 0.159E-11 0.266E-12   -.324E-13 0.142E-13 0.266E-13   -.805E-21 -.262E-21 0.593E-22   0.867E-14 0.912E-12 -.778E-12
   -.946E-12 0.887E-12 -.165E-11   0.153E-13 0.330E-15 0.222E-14   0.290E-21 0.740E-21 0.144E-21   -.114E-12 0.826E-12 -.422E-12
   -.944E-12 0.536E-12 0.554E-12   0.284E-13 -.888E-14 -.213E-13   -.336E-21 0.885E-22 0.119E-21   -.504E-14 -.247E-12 0.283E-11
   0.175E-12 -.278E-12 0.135E-11   0.107E-13 -.890E-14 -.156E-13   -.284E-21 0.315E-21 0.372E-22   -.227E-13 0.178E-11 -.374E-12
   0.134E-13 -.167E-12 0.350E-12   0.155E-12 0.125E-12 0.817E-13   -.365E-18 0.375E-18 -.125E-17   0.109E-12 -.995E-12 0.543E-12
   0.536E-13 0.271E-13 0.165E-12   0.400E-13 -.373E-13 -.666E-13   -.995E-18 -.218E-17 0.625E-17   -.144E-11 -.122E-11 0.173E-11
   0.866E-12 -.763E-12 0.878E-12   -.418E-13 0.115E-13 0.194E-13   0.237E-21 0.298E-21 -.111E-21   -.401E-13 -.683E-12 -.130E-11
   0.125E-12 0.769E-12 -.531E-12   -.140E-13 0.950E-14 -.240E-13   0.500E-21 -.223E-21 -.332E-21   0.128E-12 0.140E-11 -.543E-12
   -.392E-12 0.179E-12 0.514E-12   0.160E-13 0.178E-13 -.107E-13   -.271E-21 0.309E-21 0.199E-21   0.127E-12 0.516E-13 0.166E-11
   0.171E-12 -.198E-12 0.144E-11   -.178E-14 -.201E-14 0.505E-14   -.107E-21 -.112E-22 -.491E-21   0.761E-13 0.233E-11 -.833E-13
   0.392E-16 -.144E-12 0.304E-12   0.140E-12 0.116E-12 0.826E-13   -.233E-17 0.270E-18 -.587E-17   -.112E-12 -.172E-11 0.816E-12
   0.670E-13 0.191E-12 0.702E-14   0.711E-14 -.426E-13 -.426E-13   -.164E-17 -.840E-18 0.211E-17   -.111E-11 -.141E-11 0.129E-11
   -.247E-12 0.119E-12 -.772E-12   0.384E-14 0.178E-14 0.245E-13   0.533E-21 -.128E-21 0.631E-21   0.458E-12 -.221E-12 0.137E-11
   -.104E-11 0.576E-12 0.113E-11   0.223E-13 0.211E-13 0.444E-14   0.237E-22 -.150E-21 -.145E-21   0.141E-12 -.105E-11 0.653E-12
   0.197E-12 -.620E-12 0.141E-11   0.284E-13 0.711E-14 -.124E-13   0.243E-21 0.624E-23 0.200E-21   0.341E-12 0.448E-12 -.224E-11
   -.918E-12 0.445E-12 -.258E-12   0.790E-13 0.785E-14 -.232E-14   0.123E-21 0.436E-22 -.268E-21   0.110E-12 -.231E-11 0.863E-13
   0.134E-12 0.248E-11 0.940E-12   0.145E-12 0.105E-12 0.941E-13   -.520E-18 0.397E-17 -.670E-17   0.351E-12 0.301E-11 -.147E-11
   0.201E-12 0.361E-13 0.397E-11   0.284E-13 -.373E-13 -.484E-13   -.250E-18 0.717E-18 0.116E-17   0.123E-12 0.197E-12 -.197E-11
   -.876E-12 0.164E-12 -.200E-11   -.926E-14 0.187E-13 0.151E-13   -.404E-21 -.137E-21 -.403E-21   -.370E-12 -.750E-12 0.843E-12
   0.730E-12 0.117E-11 -.930E-12   -.888E-15 0.183E-14 0.000E+00   0.147E-21 -.167E-22 0.329E-21   -.256E-12 -.850E-12 0.737E-12
   0.195E-12 -.460E-12 0.119E-11   0.142E-13 -.107E-13 -.355E-14   -.315E-21 -.839E-22 -.419E-21   -.101E-12 -.319E-12 -.196E-11
   -.331E-12 -.640E-12 0.397E-12   0.497E-13 0.644E-14 -.272E-13   -.601E-21 -.327E-21 -.235E-21   -.138E-12 -.127E-11 -.556E-13
   0.134E-12 -.105E-11 -.309E-11   0.129E-12 0.108E-12 0.773E-13   0.497E-18 0.252E-17 -.169E-17   0.109E-11 0.126E-11 -.111E-11
   0.228E-12 0.894E-13 0.120E-12   0.124E-13 -.542E-13 -.506E-13   0.233E-17 0.312E-18 0.518E-17   0.112E-11 0.106E-11 -.833E-12
   -.186E+01 -.186E+01 -.186E+01   0.303E+01 0.303E+01 0.303E+01   -.116E+01 -.116E+01 -.116E+01   -.101E-02 -.101E-02 -.101E-02
   0.186E+01 -.186E+01 -.186E+01   -.303E+01 0.303E+01 0.303E+01   0.116E+01 -.116E+01 -.116E+01   0.101E-02 -.101E-02 -.101E-02
   -.186E+01 -.186E+01 0.186E+01   0.303E+01 0.303E+01 -.303E+01   -.116E+01 -.116E+01 0.116E+01   -.101E-02 -.101E-02 0.101E-02
   -.186E+01 0.186E+01 -.186E+01   0.303E+01 -.303E+01 0.303E+01   -.116E+01 0.116E+01 -.116E+01   -.101E-02 0.101E-02 -.101E-02
   0.186E+01 0.186E+01 -.186E+01   -.303E+01 -.303E+01 0.303E+01   0.116E+01 0.116E+01 -.116E+01   0.101E-02 0.101E-02 -.101E-02
   0.186E+01 -.186E+01 0.186E+01   -.303E+01 0.303E+01 -.303E+01   0.116E+01 -.116E+01 0.116E+01   0.101E-02 -.101E-02 0.101E-02
   0.186E+01 0.186E+01 0.186E+01   -.303E+01 -.303E+01 -.303E+01   0.116E+01 0.116E+01 0.116E+01   0.101E-02 0.101E-02 0.101E-02
   -.186E+01 0.186E+01 0.186E+01   0.303E+01 -.303E+01 -.303E+01   -.116E+01 0.116E+01 0.116E+01   -.101E-02 0.101E-02 0.101E-02
   -.186E+01 -.186E+01 -.186E+01   0.303E+01 0.303E+01 0.303E+01   -.116E+01 -.116E+01 -.116E+01   -.101E-02 -.101E-02 -.101E-02
   0.186E+01 -.186E+01 -.186E+01   -.303E+01 0.303E+01 0.303E+01   0.116E+01 -.116E+01 -.116E+01   0.101E-02 -.101E-02 -.101E-02
   -.186E+01 -.186E+01 0.186E+01   0.303E+01 0.303E+01 -.303E+01   -.116E+01 -.116E+01 0.116E+01   -.101E-02 -.101E-02 0.101E-02
   -.186E+01 0.186E+01 -.186E+01   0.303E+01 -.303E+01 0.303E+01   -.116E+01 0.116E+01 -.116E+01   -.101E-02 0.101E-02 -.101E-02
   0.186E+01 0.186E+01 -.186E+01   -.303E+01 -.303E+01 0.303E+01   0.116E+01 0.116E+01 -.116E+01   0.101E-02 0.101E-02 -.101E-02
   0.186E+01 -.186E+01 0.186E+01   -.303E+01 0.303E+01 -.303E+01   0.116E+01 -.116E+01 0.116E+01   0.101E-02 -.101E-02 0.101E-02
   0.186E+01 0.186E+01 0.186E+01   -.303E+01 -.303E+01 -.303E+01   0.116E+01 0.116E+01 0.116E+01   0.101E-02 0.101E-02 0.101E-02
   -.186E+01 0.186E+01 0.186E+01   0.303E+01 -.303E+01 -.303E+01   -.116E+01 0.116E+01 0.116E+01   -.101E-02 0.101E-02 0.101E-02
   -.186E+01 -.186E+01 -.186E+01   0.303E+01 0.303E+01 0.303E+01   -.116E+01 -.116E+01 -.116E+01   -.101E-02 -.101E-02 -.101E-02
   0.186E+01 -.186E+01 -.186E+01   -.303E+01 0.303E+01 0.303E+01   0.116E+01 -.116E+01 -.116E+01   0.101E-02 -.101E-02 -.101E-02
   -.186E+01 -.186E+01 0.186E+01   0.303E+01 0.303E+01 -.303E+01   -.116E+01 -.116E+01 0.116E+01   -.101E-02 -.101E-02 0.101E-02
   -.186E+01 0.186E+01 -.186E+01   0.303E+01 -.303E+01 0.303E+01   -.116E+01 0.116E+01 -.116E+01   -.101E-02 0.101E-02 -.101E-02
   0.186E+01 0.186E+01 -.186E+01   -.303E+01 -.303E+01 0.303E+01   0.116E+01 0.116E+01 -.116E+01   0.101E-02 0.101E-02 -.101E-02
   0.186E+01 -.186E+01 0.186E+01   -.303E+01 0.303E+01 -.303E+01   0.116E+01 -.116E+01 0.116E+01   0.101E-02 -.101E-02 0.101E-02
   0.186E+01 0.186E+01 0.186E+01   -.303E+01 -.303E+01 -.303E+01   0.116E+01 0.116E+01 0.116E+01   0.101E-02 0.101E-02 0.101E-02
   -.186E+01 0.186E+01 0.186E+01   0.303E+01 -.303E+01 -.303E+01   -.116E+01 0.116E+01 0.116E+01   -.101E-02 0.101E-02 0.101E-02
   -.186E+01 -.186E+01 -.186E+01   0.303E+01 0.303E+01 0.303E+01   -.116E+01 -.116E+01 -.116E+01   -.101E-02 -.101E-02 -.101E-02
   0.186E+01 -.186E+01 -.186E+01   -.303E+01 0.303E+01 0.303E+01   0.116E+01 -.116E+01 -.116E+01   0.101E-02 -.101E-02 -.101E-02
   -.186E+01 -.186E+01 0.186E+01   0.303E+01 0.303E+01 -.303E+01   -.116E+01 -.116E+01 0.116E+01   -.101E-02 -.101E-02 0.101E-02
   -.186E+01 0.186E+01 -.186E+01   0.303E+01 -.303E+01 0.303E+01   -.116E+01 0.116E+01 -.116E+01   -.101E-02 0.101E-02 -.101E-02
   0.186E+01 0.186E+01 -.186E+01   -.303E+01 -.303E+01 0.303E+01   0.116E+01 0.116E+01 -.116E+01   0.101E-02 0.101E-02 -.101E-02
   0.186E+01 -.186E+01 0.186E+01   -.303E+01 0.303E+01 -.303E+01   0.116E+01 -.116E+01 0.116E+01   0.101E-02 -.101E-02 0.101E-02
   0.186E+01 0.186E+01 0.186E+01   -.303E+01 -.303E+01 -.303E+01   0.116E+01 0.116E+01 0.116E+01   0.101E-02 0.101E-02 0.101E-02
   -.186E+01 0.186E+01 0.186E+01   0.303E+01 -.303E+01 -.303E+01   -.116E+01 0.116E+01 0.116E+01   -.101E-02 0.101E-02 0.101E-02
 -----------------------------------------------------------------------------------------------
   -.424E-11 0.282E-11 0.180E-11   -.104E-12 0.711E-13 -.178E-14   0.222E-15 -.888E-15 -.244E-14   0.452E-12 0.271E-12 -.619E-12
 
 
 POSITION                                       TOTAL-FORCE (eV/Angst)
 -----------------------------------------------------------------------------------
      7.43300      7.43300      1.06186        -0.000000      0.000000     -0.000000
      3.18557      1.06186      3.18557        -0.000000      0.000000     -0.000000
      5.30928      7.43300      3.18557        -0.000000      0.000000     -0.000000
      1.06186      1.06186      1.06186        -0.000000      0.000000     -0.000000
      2.12371      6.37114      2.12371        -0.000000      0.000000     -0.000000
     -0.00000     -0.00000      4.24743        -0.000000      0.000000     -0.000000
      7.43300      3.18557      5.30928        -0.000000      0.000000     -0.000000
      3.18557      5.30928      7.43300        -0.000000      0.000000     -0.000000
      5.30928      3.18557      7.43300        -0.000000      0.000000     -0.000000
      1.06186      5.30928      5.30928        -0.000000      0.000000     -0.000000
      2.12371      2.12371      6.37114        -0.000000      0.000000     -0.000000
      0.00000      4.24743      0.00000        -0.000000      0.000000     -0.000000
      3.18557      7.43300      5.30928        -0.000000      0.000000     -0.000000
      7.43300      1.06186      7.43300        -0.000000      0.000000     -0.000000
      1.06186      7.43300      7.43300        -0.000000      0.000000     -0.000000
      5.30928      1.06186      5.30928        -0.000000      0.000000     -0.000000
      6.37114      6.37114      6.37114        -0.000000      0.000000     -0.000000
      4.24743      0.00000      0.00000        -0.000000      0.000000     -0.000000
      3.18557      3.18557      1.06186        -0.000000      0.000000     -0.000000
      7.43300      5.30928      3.18557        -0.000000      0.000000     -0.000000
      1.06186      3.18557      3.18557        -0.000000      0.000000     -0.000000
      5.30928      5.30928      1.06186        -0.000000      0.000000     -0.000000
      6.37114      2.12371      2.12371        -0.000000      0.000000     -0.000000
      4.24743      4.24743      4.24743        -0.000000      0.000000     -0.000000
      3.19626      3.19626      3.19626         0.000253      0.000253      0.000253
      7.42230      1.07255      1.07255        -0.000253      0.000253      0.000253
      5.31998      1.07255      3.17487         0.000253      0.000253     -0.000253
      1.07255      7.42230      1.07255         0.000253     -0.000253      0.000253
      1.05116      1.05116      3.19626        -0.000253     -0.000253      0.000253
      1.05116      3.19626      1.05116        -0.000253      0.000253     -0.000253
      3.17487      7.42230      3.17487        -0.000253     -0.000253     -0.000253
      3.19626      1.05116      1.05116         0.000253     -0.000253     -0.000253
      3.19626      7.44369      7.44369         0.000253      0.000253      0.000253
      7.42230      5.31998      5.31998        -0.000253      0.000253      0.000253
      5.31998      5.31998      7.42230         0.000253      0.000253     -0.000253
      1.07255      3.17487      5.31998         0.000253     -0.000253      0.000253
      1.05116      5.29859      7.44369        -0.000253     -0.000253      0.000253
      1.05116      7.44369      5.29859        -0.000253      0.000253     -0.000253
      3.17487      3.17487      7.42230        -0.000253     -0.000253     -0.000253
      3.19626      5.29859      5.29859         0.000253     -0.000253     -0.000253
      7.44369      3.19626      7.44369         0.000253      0.000253      0.000253
      3.17487      1.07255      5.31998        -0.000253      0.000253      0.000253
      1.07255      1.07255      7.42230         0.000253      0.000253     -0.000253
      5.31998      7.42230      5.31998         0.000253     -0.000253      0.000253
      5.29859      1.05116      7.44369        -0.000253     -0.000253      0.000253
      5.29859      3.19626      5.29859        -0.000253      0.000253     -0.000253
      7.42230      7.42230      7.42230        -0.000253     -0.000253     -0.000253
      7.44369      1.05116      5.29859         0.000253     -0.000253     -0.000253
      7.44369      7.44369      3.19626         0.000253      0.000253      0.000253
      3.17487      5.31998      1.07255        -0.000253      0.000253      0.000253
      1.07255      5.31998      3.17487         0.000253      0.000253     -0.000253
      5.31998      3.17487      1.07255         0.000253     -0.000253      0.000253
      5.29859      5.29859      3.19626        -0.000253     -0.000253      0.000253
      5.29859      7.44369      1.05116        -0.000253      0.000253     -0.000253
      7.42230      3.17487      3.17487        -0.000253     -0.000253     -0.000253
      7.44369      5.29859      1.05116         0.000253     -0.000253     -0.000253
 -----------------------------------------------------------------------------------
    total drift:                               -0.000000      0.000000      0.000000


--------------------------------------------------------------------------------------------------------



  FREE ENERGIE OF THE ION-ELECTRON SYSTEM (eV)
  ---------------------------------------------------
  free  energy   TOTEN  =      -329.41740050 eV

  energy  without entropy=     -329.43397641  energy(sigma->0) =     -329.42154448
 
 d Force = 0.1332664E-03[ 0.666E-05, 0.260E-03]  d Energy = 0.1360170E-03-0.275E-05
 d Force = 0.8066547E-01[ 0.797E-01, 0.816E-01]  d Ewald  = 0.8066554E-01-0.692E-07


--------------------------------------------------------------------------------------------------------


    POTLOK:  cpu time    0.0659: real time    0.0663


--------------------------------------------------------------------------------------------------------




--------------------------------------------------------------------------------------------------------


  
 reached required accuracy - stopping structural energy minimisation
     LOOP+:  cpu time   17.5508: real time   17.9737
    4ORBIT:  cpu time    0.0000: real time    0.0000

 total amount of memory used by VASP MPI-rank0    69322. kBytes
=======================================================================

   base      :      30000. kBytes
   nonlr-proj:      10083. kBytes
   fftplans  :       4303. kBytes
   grid      :       6748. kBytes
   one-center:         43. kBytes
   wavefun   :      18145. kBytes
 
  
  
 General timing and accounting informations for this job:
 ========================================================
  
                  Total CPU time used (sec):      127.805
                            User time (sec):      126.947
                          System time (sec):        0.859
                         Elapsed time (sec):      135.686
  
                   Maximum memory used (kb):       89728.
                   Average memory used (kb):           0.
  
                          Minor page faults:       146699
                          Major page faults:            9
                 Voluntary context switches:         5857
