unknown system                          
           1
     8.494852    0.000000    0.000000
     0.000000    8.494852    0.000000
     0.000000    0.000000    8.494852
   Si   N 
  24  32
Direct configuration=     1
   0.87500000  0.87500000  0.12500000
   0.37500000  0.12500000  0.37500000
   0.62500000  0.87500000  0.37500000
   0.12500000  0.12500000  0.12500000
   0.25000000  0.75000000  0.25000000
   0.00000000  0.00000000  0.50000000
   0.87500000  0.37500000  0.62500000
   0.37500000  0.62500000  0.87500000
   0.62500000  0.37500000  0.87500000
   0.12500000  0.62500000  0.62500000
   0.25000000  0.25000000  0.75000000
   0.00000000  0.50000000  0.00000000
   0.37500000  0.87500000  0.62500000
   0.87500000  0.12500000  0.87500000
   0.12500000  0.87500000  0.87500000
   0.62500000  0.12500000  0.62500000
   0.75000000  0.75000000  0.75000000
   0.50000000  0.00000000  0.00000000
   0.37500000  0.37500000  0.12500000
   0.87500000  0.62500000  0.37500000
   0.12500000  0.37500000  0.37500000
   0.62500000  0.62500000  0.12500000
   0.75000000  0.25000000  0.25000000
   0.50000000  0.50000000  0.50000000
   0.37630293  0.37630293  0.37630293
   0.87369707  0.12630293  0.12630293
   0.62630293  0.12630293  0.37369707
   0.12630293  0.87369707  0.12630293
   0.12369707  0.12369707  0.37630293
   0.12369707  0.37630293  0.12369707
   0.37369707  0.87369707  0.37369707
   0.37630293  0.12369707  0.12369707
   0.37630293  0.87630293  0.87630293
   0.87369707  0.62630293  0.62630293
   0.62630293  0.62630293  0.87369707
   0.12630293  0.37369707  0.62630293
   0.12369707  0.62369707  0.87630293
   0.12369707  0.87630293  0.62369707
   0.37369707  0.37369707  0.87369707
   0.37630293  0.62369707  0.62369707
   0.87630293  0.37630293  0.87630293
   0.37369707  0.12630293  0.62630293
   0.12630293  0.12630293  0.87369707
   0.62630293  0.87369707  0.62630293
   0.62369707  0.12369707  0.87630293
   0.62369707  0.37630293  0.62369707
   0.87369707  0.87369707  0.87369707
   0.87630293  0.12369707  0.62369707
   0.87630293  0.87630293  0.37630293
   0.37369707  0.62630293  0.12630293
   0.12630293  0.62630293  0.37369707
   0.62630293  0.37369707  0.12630293
   0.62369707  0.62369707  0.37630293
   0.62369707  0.87630293  0.12369707
   0.87369707  0.37369707  0.37369707
   0.87630293  0.62369707  0.12369707
Direct configuration=     2
   0.87500000  0.87500000  0.12500000
   0.37500000  0.12500000  0.37500000
   0.62500000  0.87500000  0.37500000
   0.12500000  0.12500000  0.12500000
   0.25000000  0.75000000  0.25000000
  -0.00000000 -0.00000000  0.50000000
   0.87500000  0.37500000  0.62500000
   0.37500000  0.62500000  0.87500000
   0.62500000  0.37500000  0.87500000
   0.12500000  0.62500000  0.62500000
   0.25000000  0.25000000  0.75000000
  -0.00000000  0.50000000  0.00000000
   0.37500000  0.87500000  0.62500000
   0.87500000  0.12500000  0.87500000
   0.12500000  0.87500000  0.87500000
   0.62500000  0.12500000  0.62500000
   0.75000000  0.75000000  0.75000000
   0.50000000 -0.00000000  0.00000000
   0.37500000  0.37500000  0.12500000
   0.87500000  0.62500000  0.37500000
   0.12500000  0.37500000  0.37500000
   0.62500000  0.62500000  0.12500000
   0.75000000  0.25000000  0.25000000
   0.50000000  0.50000000  0.50000000
   0.37622666  0.37622666  0.37622666
   0.87377334  0.12622666  0.12622666
   0.62622666  0.12622666  0.37377334
   0.12622666  0.87377334  0.12622666
   0.12377334  0.12377334  0.37622666
   0.12377334  0.37622666  0.12377334
   0.37377334  0.87377334  0.37377334
   0.37622666  0.12377334  0.12377334
   0.37622666  0.87622666  0.87622666
   0.87377334  0.62622666  0.62622666
   0.62622666  0.62622666  0.87377334
   0.12622666  0.37377334  0.62622666
   0.12377334  0.62377334  0.87622666
   0.12377334  0.87622666  0.62377334
   0.37377334  0.37377334  0.87377334
   0.37622666  0.62377334  0.62377334
   0.87622666  0.37622666  0.87622666
   0.37377334  0.12622666  0.62622666
   0.12622666  0.12622666  0.87377334
   0.62622666  0.87377334  0.62622666
   0.62377334  0.12377334  0.87622666
   0.62377334  0.37622666  0.62377334
   0.87377334  0.87377334  0.87377334
   0.87622666  0.12377334  0.62377334
   0.87622666  0.87622666  0.37622666
   0.37377334  0.62622666  0.12622666
   0.12622666  0.62622666  0.37377334
   0.62622666  0.37377334  0.12622666
   0.62377334  0.62377334  0.37622666
   0.62377334  0.87622666  0.12377334
   0.87377334  0.37377334  0.37377334
   0.87622666  0.62377334  0.12377334
Direct configuration=     3
   0.87500000  0.87500000  0.12500000
   0.37500000  0.12500000  0.37500000
   0.62500000  0.87500000  0.37500000
   0.12500000  0.12500000  0.12500000
   0.25000000  0.75000000  0.25000000
  -0.00000000 -0.00000000  0.50000000
   0.87500000  0.37500000  0.62500000
   0.37500000  0.62500000  0.87500000
   0.62500000  0.37500000  0.87500000
   0.12500000  0.62500000  0.62500000
   0.25000000  0.25000000  0.75000000
  -0.00000000  0.50000000  0.00000000
   0.37500000  0.87500000  0.62500000
   0.87500000  0.12500000  0.87500000
   0.12500000  0.87500000  0.87500000
   0.62500000  0.12500000  0.62500000
   0.75000000  0.75000000  0.75000000
   0.50000000 -0.00000000  0.00000000
   0.37500000  0.37500000  0.12500000
   0.87500000  0.62500000  0.37500000
   0.12500000  0.37500000  0.37500000
   0.62500000  0.62500000  0.12500000
   0.75000000  0.25000000  0.25000000
   0.50000000  0.50000000  0.50000000
   0.37625896  0.37625896  0.37625896
   0.87374104  0.12625896  0.12625896
   0.62625896  0.12625896  0.37374104
   0.12625896  0.87374104  0.12625896
   0.12374104  0.12374104  0.37625896
   0.12374104  0.37625896  0.12374104
   0.37374104  0.87374104  0.37374104
   0.37625896  0.12374104  0.12374104
   0.37625896  0.87625896  0.87625896
   0.87374104  0.62625896  0.62625896
   0.62625896  0.62625896  0.87374104
   0.12625896  0.37374104  0.62625896
   0.12374104  0.62374104  0.87625896
   0.12374104  0.87625896  0.62374104
   0.37374104  0.37374104  0.87374104
   0.37625896  0.62374104  0.62374104
   0.87625896  0.37625896  0.87625896
   0.37374104  0.12625896  0.62625896
   0.12625896  0.12625896  0.87374104
   0.62625896  0.87374104  0.62625896
   0.62374104  0.12374104  0.87625896
   0.62374104  0.37625896  0.62374104
   0.87374104  0.87374104  0.87374104
   0.87625896  0.12374104  0.62374104
   0.87625896  0.87625896  0.37625896
   0.37374104  0.62625896  0.12625896
   0.12625896  0.62625896  0.37374104
   0.62625896  0.37374104  0.12625896
   0.62374104  0.62374104  0.37625896
   0.62374104  0.87625896  0.12374104
   0.87374104  0.37374104  0.37374104
   0.87625896  0.62374104  0.12374104
