  28  28   0   0
  0.1311288E+02  0.8713894E-09  0.8713894E-09  0.5583427E-09  0.5000000E-15
  1.000000000000000E-004
  CAR 
 unknown system                          
     13.17962347    -12.50987461  301      7.03090690      1.00000000
    -12.510  0.0000E+00  0.0000E+00
    -12.424  0.0000E+00  0.0000E+00
    -12.339  0.0000E+00  0.0000E+00
    -12.253  0.0000E+00  0.0000E+00
    -12.167  0.1716E-30  0.1469E-31
    -12.082  0.8297E-25  0.7105E-26
    -11.996  0.9022E-20  0.7726E-21
    -11.910  0.2203E-15  0.1886E-16
    -11.825  0.1198E-11  0.1026E-12
    -11.739  0.1431E-08  0.1227E-09
    -11.654  0.3603E-06  0.3098E-07
    -11.568  0.1679E-04  0.1469E-05
    -11.482  0.5918E-04  0.6536E-05
    -11.397 -0.5732E-03 -0.4254E-04
    -11.311  0.4389E-02  0.3333E-03
    -11.225  0.2180E-01  0.2200E-02
    -11.140  0.3804E-01  0.5457E-02
    -11.054  0.4416E-01  0.9239E-02
    -10.969  0.4668E-01  0.1324E-01
    -10.883  0.5290E-01  0.1777E-01
    -10.797  0.8674E-01  0.2519E-01
    -10.712  0.1031E+00  0.3403E-01
    -10.626  0.8027E-01  0.4090E-01
    -10.540  0.9639E-01  0.4915E-01
    -10.455  0.4301E-01  0.5284E-01
    -10.369  0.4345E-01  0.5656E-01
    -10.283  0.9614E-02  0.5738E-01
    -10.198  0.3584E-01  0.6045E-01
    -10.112  0.1003E+00  0.6904E-01
    -10.027  0.3778E-01  0.7227E-01
     -9.941  0.3557E-01  0.7532E-01
     -9.855  0.1509E+00  0.8824E-01
     -9.770  0.1284E+00  0.9924E-01
     -9.684  0.6260E-01  0.1046E+00
     -9.598  0.6252E-01  0.1099E+00
     -9.513  0.3516E-01  0.1130E+00
     -9.427  0.6684E-01  0.1187E+00
     -9.342  0.1170E+00  0.1287E+00
     -9.256  0.1776E+00  0.1439E+00
     -9.170  0.1646E+00  0.1580E+00
     -9.085  0.1517E+00  0.1710E+00
     -8.999  0.1203E+00  0.1813E+00
     -8.913  0.9488E-01  0.1894E+00
     -8.828  0.1201E+00  0.1997E+00
     -8.742  0.2187E+00  0.2184E+00
     -8.656  0.2180E+00  0.2371E+00
     -8.571  0.3923E-01  0.2405E+00
     -8.485 -0.6149E-02  0.2399E+00
     -8.400  0.6216E-03  0.2400E+00
     -8.314  0.1490E-03  0.2400E+00
     -8.228  0.2618E-05  0.2400E+00
     -8.143  0.8071E-08  0.2400E+00
     -8.057  0.5050E-11  0.2400E+00
     -7.971  0.6790E-15  0.2400E+00
     -7.886  0.0000E+00  0.2400E+00
     -7.800  0.0000E+00  0.2400E+00
     -7.715  0.0000E+00  0.2400E+00
     -7.629  0.0000E+00  0.2400E+00
     -7.543  0.0000E+00  0.2400E+00
     -7.458  0.0000E+00  0.2400E+00
     -7.372  0.0000E+00  0.2400E+00
     -7.286  0.0000E+00  0.2400E+00
     -7.201  0.0000E+00  0.2400E+00
     -7.115  0.0000E+00  0.2400E+00
     -7.029  0.0000E+00  0.2400E+00
     -6.944  0.0000E+00  0.2400E+00
     -6.858  0.0000E+00  0.2400E+00
     -6.773  0.0000E+00  0.2400E+00
     -6.687  0.0000E+00  0.2400E+00
     -6.601  0.0000E+00  0.2400E+00
     -6.516  0.0000E+00  0.2400E+00
     -6.430  0.0000E+00  0.2400E+00
     -6.344  0.0000E+00  0.2400E+00
     -6.259  0.0000E+00  0.2400E+00
     -6.173  0.0000E+00  0.2400E+00
     -6.088  0.0000E+00  0.2400E+00
     -6.002  0.0000E+00  0.2400E+00
     -5.916  0.0000E+00  0.2400E+00
     -5.831  0.0000E+00  0.2400E+00
     -5.745  0.0000E+00  0.2400E+00
     -5.659  0.0000E+00  0.2400E+00
     -5.574  0.0000E+00  0.2400E+00
     -5.488  0.0000E+00  0.2400E+00
     -5.402  0.0000E+00  0.2400E+00
     -5.317  0.0000E+00  0.2400E+00
     -5.231  0.0000E+00  0.2400E+00
     -5.146  0.4866E-30  0.2400E+00
     -5.060  0.2024E-24  0.2400E+00
     -4.974  0.1855E-19  0.2400E+00
     -4.889  0.3701E-15  0.2400E+00
     -4.803  0.1571E-11  0.2400E+00
     -4.717  0.1378E-08  0.2400E+00
     -4.632  0.2375E-06  0.2400E+00
     -4.546  0.7227E-05  0.2400E+00
     -4.460  0.1585E-04  0.2400E+00
     -4.375 -0.1899E-03  0.2400E+00
     -4.289  0.1775E-02  0.2401E+00
     -4.204  0.9537E-02  0.2410E+00
     -4.118  0.8880E-02  0.2417E+00
     -4.032  0.2047E-01  0.2435E+00
     -3.947  0.1647E-01  0.2449E+00
     -3.861  0.1830E-01  0.2464E+00
     -3.775  0.3696E-01  0.2496E+00
     -3.690  0.1988E-01  0.2513E+00
     -3.604  0.3839E-01  0.2546E+00
     -3.519  0.3201E-01  0.2573E+00
     -3.433  0.6165E-01  0.2626E+00
     -3.347  0.8250E-01  0.2697E+00
     -3.262  0.7929E-01  0.2765E+00
     -3.176  0.9717E-01  0.2848E+00
     -3.090  0.8937E-01  0.2924E+00
     -3.005  0.8270E-01  0.2995E+00
     -2.919  0.6845E-01  0.3054E+00
     -2.833  0.6371E-01  0.3108E+00
     -2.748  0.6127E-01  0.3161E+00
     -2.662  0.6040E-01  0.3213E+00
     -2.577  0.1013E+00  0.3299E+00
     -2.491  0.1219E+00  0.3404E+00
     -2.405  0.1043E+00  0.3493E+00
     -2.320  0.1127E+00  0.3590E+00
     -2.234  0.1252E+00  0.3697E+00
     -2.148  0.1090E+00  0.3790E+00
     -2.063  0.9242E-01  0.3869E+00
     -1.977  0.1147E+00  0.3967E+00
     -1.892  0.7093E-01  0.4028E+00
     -1.806  0.5048E-01  0.4071E+00
     -1.720  0.1954E-01  0.4088E+00
     -1.635  0.1409E-01  0.4100E+00
     -1.549  0.4533E-01  0.4139E+00
     -1.463  0.2577E-01  0.4161E+00
     -1.378  0.3156E-01  0.4188E+00
     -1.292  0.7244E-01  0.4250E+00
     -1.206  0.1001E+00  0.4336E+00
     -1.121  0.5813E-01  0.4386E+00
     -1.035  0.6939E-01  0.4445E+00
     -0.950  0.1002E+00  0.4531E+00
     -0.864  0.8779E-01  0.4606E+00
     -0.778  0.1244E+00  0.4713E+00
     -0.693  0.9278E-01  0.4792E+00
     -0.607  0.6165E-01  0.4845E+00
     -0.521  0.8551E-01  0.4918E+00
     -0.436  0.6029E-01  0.4970E+00
     -0.350  0.7475E-01  0.5034E+00
     -0.265  0.9613E-01  0.5116E+00
     -0.179  0.1157E+00  0.5215E+00
     -0.093  0.9169E-01  0.5294E+00
     -0.008  0.8289E-01  0.5365E+00
      0.078  0.9138E-01  0.5443E+00
      0.164  0.1137E+00  0.5540E+00
      0.249  0.1233E+00  0.5646E+00
      0.335  0.1057E+00  0.5736E+00
      0.421  0.1191E+00  0.5838E+00
      0.506  0.1226E+00  0.5943E+00
      0.592  0.1752E+00  0.6093E+00
      0.677  0.1173E+00  0.6194E+00
      0.763  0.1070E+00  0.6285E+00
      0.849  0.1354E+00  0.6401E+00
      0.934  0.1303E+00  0.6513E+00
      1.020  0.1154E+00  0.6612E+00
      1.106  0.1182E+00  0.6713E+00
      1.191  0.1588E+00  0.6849E+00
      1.277  0.1879E+00  0.7010E+00
      1.362  0.1367E+00  0.7127E+00
      1.448  0.1205E+00  0.7230E+00
      1.534  0.1091E+00  0.7323E+00
      1.619  0.1269E+00  0.7432E+00
      1.705  0.9085E-01  0.7510E+00
      1.791  0.1183E+00  0.7611E+00
      1.876  0.1311E+00  0.7724E+00
      1.962  0.1230E+00  0.7829E+00
      2.048  0.1188E+00  0.7931E+00
      2.133  0.1142E+00  0.8028E+00
      2.219  0.1040E+00  0.8117E+00
      2.304  0.9342E-01  0.8197E+00
      2.390  0.1107E+00  0.8292E+00
      2.476  0.1033E+00  0.8381E+00
      2.561  0.1154E+00  0.8479E+00
      2.647  0.8813E-01  0.8555E+00
      2.733  0.7967E-01  0.8623E+00
      2.818  0.9764E-01  0.8707E+00
      2.904  0.1118E+00  0.8803E+00
      2.989  0.8733E-01  0.8877E+00
      3.075  0.1275E+00  0.8986E+00
      3.161  0.1338E+00  0.9101E+00
      3.246  0.8715E-01  0.9176E+00
      3.332  0.7584E-01  0.9241E+00
      3.418  0.1149E+00  0.9339E+00
      3.503  0.1414E+00  0.9460E+00
      3.589  0.1099E+00  0.9554E+00
      3.675  0.1317E+00  0.9667E+00
      3.760  0.1309E+00  0.9779E+00
      3.846  0.8679E-01  0.9853E+00
      3.931  0.8808E-01  0.9929E+00
      4.017  0.1185E+00  0.1003E+01
      4.103  0.2014E+00  0.1020E+01
      4.188  0.1629E+00  0.1034E+01
      4.274  0.8201E-01  0.1041E+01
      4.360  0.9286E-01  0.1049E+01
      4.445  0.1037E+00  0.1058E+01
      4.531  0.5586E-01  0.1063E+01
      4.616  0.8373E-01  0.1070E+01
      4.702  0.1678E+00  0.1084E+01
      4.788  0.1812E+00  0.1100E+01
      4.873  0.1441E+00  0.1112E+01
      4.959  0.1378E+00  0.1124E+01
      5.045  0.8317E-01  0.1131E+01
      5.130  0.5756E-01  0.1136E+01
      5.216  0.7821E-01  0.1143E+01
      5.302  0.8657E-01  0.1150E+01
      5.387  0.9611E-01  0.1158E+01
      5.473  0.1272E+00  0.1169E+01
      5.558  0.1357E+00  0.1181E+01
      5.644  0.1010E+00  0.1190E+01
      5.730  0.7349E-01  0.1196E+01
      5.815  0.2916E-01  0.1198E+01
      5.901  0.3567E-01  0.1201E+01
      5.987  0.9578E-01  0.1210E+01
      6.072  0.8723E-01  0.1217E+01
      6.158  0.5819E-02  0.1218E+01
      6.243 -0.2036E-02  0.1217E+01
      6.329  0.3599E-03  0.1217E+01
      6.415  0.2721E-04  0.1217E+01
      6.500  0.9560E-05  0.1218E+01
      6.586  0.9136E-04  0.1218E+01
      6.672 -0.3196E-03  0.1217E+01
      6.757  0.1260E-02  0.1218E+01
      6.843  0.2472E-01  0.1220E+01
      6.929  0.5826E-01  0.1225E+01
      7.014  0.1387E+00  0.1237E+01
      7.100  0.1907E+00  0.1253E+01
      7.185  0.8899E-01  0.1261E+01
      7.271  0.2309E-01  0.1263E+01
      7.357  0.3914E-04  0.1263E+01
      7.442 -0.1605E-03  0.1262E+01
      7.528  0.1044E-03  0.1262E+01
      7.614  0.6204E-05  0.1262E+01
      7.699  0.5866E-07  0.1262E+01
      7.785  0.1118E-09  0.1263E+01
      7.870  0.6500E-09  0.1263E+01
      7.956  0.3324E-06  0.1263E+01
      8.042  0.3039E-04  0.1263E+01
      8.127  0.2331E-03  0.1263E+01
      8.213 -0.2479E-02  0.1262E+01
      8.299  0.1324E-01  0.1263E+01
      8.384  0.4403E-01  0.1267E+01
      8.470  0.4562E-02  0.1268E+01
      8.556 -0.1451E-02  0.1267E+01
      8.641  0.2120E-03  0.1267E+01
      8.727 -0.1212E-04  0.1267E+01
      8.812  0.8082E-03  0.1268E+01
      8.898  0.4228E-02  0.1268E+01
      8.984  0.1293E-01  0.1269E+01
      9.069  0.1456E-01  0.1270E+01
      9.155  0.2201E-01  0.1272E+01
      9.241  0.3368E-01  0.1275E+01
      9.326  0.5343E-01  0.1280E+01
      9.412  0.1565E+00  0.1293E+01
      9.497  0.1855E+00  0.1309E+01
      9.583  0.1108E+00  0.1318E+01
      9.669  0.1074E+00  0.1328E+01
      9.754  0.1120E+00  0.1337E+01
      9.840  0.1185E+00  0.1347E+01
      9.926  0.9999E-01  0.1356E+01
     10.011  0.5521E-01  0.1361E+01
     10.097  0.6556E-01  0.1366E+01
     10.183  0.8012E-01  0.1373E+01
     10.268  0.1025E+00  0.1382E+01
     10.354  0.1291E+00  0.1393E+01
     10.439  0.1221E+00  0.1403E+01
     10.525  0.9130E-01  0.1411E+01
     10.611  0.1225E+00  0.1422E+01
     10.696  0.1134E+00  0.1431E+01
     10.782  0.1114E+00  0.1441E+01
     10.868  0.1155E+00  0.1451E+01
     10.953  0.1575E+00  0.1464E+01
     11.039  0.1520E+00  0.1477E+01
     11.124  0.1418E+00  0.1489E+01
     11.210  0.1513E+00  0.1502E+01
     11.296  0.1602E+00  0.1516E+01
     11.381  0.1766E+00  0.1531E+01
     11.467  0.1780E+00  0.1547E+01
     11.553  0.1443E+00  0.1559E+01
     11.638  0.1590E+00  0.1572E+01
     11.724  0.1735E+00  0.1587E+01
     11.810  0.8469E-01  0.1595E+01
     11.895  0.4927E-01  0.1599E+01
     11.981  0.1398E-01  0.1600E+01
     12.066 -0.2552E-03  0.1600E+01
     12.152  0.2161E-03  0.1600E+01
     12.238  0.8640E-05  0.1600E+01
     12.323  0.7263E-05  0.1600E+01
     12.409  0.2870E-06  0.1600E+01
     12.495  0.1615E-08  0.1600E+01
     12.580  0.1680E-11  0.1600E+01
     12.666  0.3540E-15  0.1600E+01
     12.751  0.0000E+00  0.1600E+01
     12.837  0.0000E+00  0.1600E+01
     12.923  0.0000E+00  0.1600E+01
     13.008  0.0000E+00  0.1600E+01
     13.094  0.0000E+00  0.1600E+01
     13.180  0.0000E+00  0.1600E+01
