   28   28  100    1
  0.1311288E+02  0.8713894E-09  0.8713894E-09  0.5583427E-09  0.5000000E-15
  1.000000000000000E-004
  CAR 
 unknown system                          
    124     44     80
 
  0.3742002E-15  0.3742002E-15  0.3742002E-15  0.3472222E-02
    1      -11.342170   1.000000
    2      -10.715934   1.000000
    3      -10.715934   1.000000
    4       -9.958582   1.000000
    5       -9.958582   1.000000
    6       -9.287527   1.000000
    7       -8.972870   1.000000
    8       -8.911941   1.000000
    9       -8.911941   1.000000
   10       -8.881052   1.000000
   11       -8.826487   1.000000
   12       -8.826487   1.000000
   13       -4.327166   1.000000
   14       -3.490792   1.000000
   15       -3.490792   1.000000
   16       -3.140024   1.000000
   17       -2.635410   1.000000
   18       -2.346141   1.000000
   19       -2.346141   1.000000
   20       -1.800899   1.000000
   21       -1.398765   1.000000
   22       -1.398765   1.000000
   23       -1.034636   1.000000
   24       -0.776246   1.000000
   25       -0.776246   1.000000
   26       -0.389802   1.000000
   27       -0.379129   1.000000
   28        0.307963   1.000000
   29        0.450799   1.000000
   30        0.450799   1.000000
   31        0.743926   1.000000
   32        1.091232   1.000000
   33        1.175861   1.000000
   34        1.175861   1.000000
   35        1.329219   1.000000
   36        1.329219   1.000000
   37        1.696163   1.000000
   38        1.795463   1.000000
   39        1.795463   1.000000
   40        2.007525   1.000000
   41        2.007525   1.000000
   42        2.755075   1.000000
   43        2.838187   1.000000
   44        2.838187   1.000000
   45        2.945560   1.000000
   46        2.945560   1.000000
   47        3.459577   1.000000
   48        3.650697   1.000000
   49        3.797578   1.000000
   50        3.797578   1.000000
   51        3.805883   1.000000
   52        4.331816   1.000000
   53        4.434161   1.000000
   54        4.571618   1.000000
   55        4.571618   1.000000
   56        4.971274   1.000000
   57        4.971274   1.000000
   58        5.551854   1.000000
   59        5.551854   1.000000
   60        5.989927   1.000000
   61        5.989927   1.000000
   62        6.747424   0.999383
   63        7.240745   0.004772
   64        8.797793   0.000000
   65        8.797793   0.000000
   66        9.468965   0.000000
   67        9.599394   0.000000
   68        9.599394   0.000000
   69        9.885910   0.000000
   70        9.885911   0.000000
   71       10.685150   0.000000
   72       10.766956   0.000000
   73       10.800255   0.000000
   74       10.800255   0.000000
   75       11.383880   0.000000
   76       11.503012   0.000000
   77       11.704394   0.000000
   78       11.771670   0.000000
   79       11.771720   0.000000
   80       11.933089   0.000000
 
  0.1666667E+00  0.1241559E-14  0.3742002E-15  0.2083333E-01
    1      -11.312947   1.000000
    2      -10.776329   1.000000
    3      -10.738719   1.000000
    4       -9.927501   1.000000
    5       -9.893426   1.000000
    6       -9.261079   1.000000
    7       -9.084353   1.000000
    8       -8.929327   1.000000
    9       -8.900568   1.000000
   10       -8.872822   1.000000
   11       -8.825100   1.000000
   12       -8.794828   1.000000
   13       -4.251719   1.000000
   14       -3.500831   1.000000
   15       -3.412234   1.000000
   16       -3.094070   1.000000
   17       -2.699513   1.000000
   18       -2.412937   1.000000
   19       -2.345457   1.000000
   20       -2.024766   1.000000
   21       -1.626663   1.000000
   22       -1.341893   1.000000
   23       -1.055260   1.000000
   24       -0.774741   1.000000
   25       -0.587636   1.000000
   26       -0.274009   1.000000
   27       -0.210319   1.000000
   28        0.347737   1.000000
   29        0.378783   1.000000
   30        0.395699   1.000000
   31        0.763907   1.000000
   32        0.959946   1.000000
   33        1.158656   1.000000
   34        1.187946   1.000000
   35        1.339878   1.000000
   36        1.372384   1.000000
   37        1.689619   1.000000
   38        1.800329   1.000000
   39        1.960856   1.000000
   40        2.043672   1.000000
   41        2.067979   1.000000
   42        2.662598   1.000000
   43        2.739311   1.000000
   44        2.804928   1.000000
   45        2.998871   1.000000
   46        3.058400   1.000000
   47        3.398054   1.000000
   48        3.454001   1.000000
   49        3.669870   1.000000
   50        3.888833   1.000000
   51        4.083679   1.000000
   52        4.337569   1.000000
   53        4.412015   1.000000
   54        4.614220   1.000000
   55        4.652766   1.000000
   56        4.881384   1.000000
   57        4.956862   1.000000
   58        5.460144   1.000000
   59        5.490988   1.000000
   60        5.877176   1.000000
   61        5.988554   1.000000
   62        6.770609   0.998511
   63        7.184760  -0.008265
   64        8.911248   0.000000
   65        8.975860   0.000000
   66        9.507416   0.000000
   67        9.577067   0.000000
   68        9.685927   0.000000
   69        9.967649   0.000000
   70       10.038835   0.000000
   71       10.333320   0.000000
   72       10.668913   0.000000
   73       10.820271   0.000000
   74       11.098585   0.000000
   75       11.350424   0.000000
   76       11.417046   0.000000
   77       11.591547   0.000000
   78       11.618051   0.000000
   79       11.698847   0.000000
   80       11.889179   0.000000
 
  0.3333333E+00  0.3831662E-15  0.3742002E-15  0.2083333E-01
    1      -11.231095   1.000000
    2      -10.912918   1.000000
    3      -10.778129   1.000000
    4       -9.878408   1.000000
    5       -9.725968   1.000000
    6       -9.282151   1.000000
    7       -9.189931   1.000000
    8       -8.979567   1.000000
    9       -8.904072   1.000000
   10       -8.859966   1.000000
   11       -8.822288   1.000000
   12       -8.769785   1.000000
   13       -4.035745   1.000000
   14       -3.532405   1.000000
   15       -3.250212   1.000000
   16       -3.047695   1.000000
   17       -2.837980   1.000000
   18       -2.527646   1.000000
   19       -2.373276   1.000000
   20       -2.297148   1.000000
   21       -1.979225   1.000000
   22       -1.212880   1.000000
   23       -1.080941   1.000000
   24       -0.879006   1.000000
   25       -0.392704   1.000000
   26       -0.061598   1.000000
   27        0.041635   1.000000
   28        0.233125   1.000000
   29        0.435439   1.000000
   30        0.465982   1.000000
   31        0.801913   1.000000
   32        0.894414   1.000000
   33        1.089673   1.000000
   34        1.148735   1.000000
   35        1.258338   1.000000
   36        1.424200   1.000000
   37        1.636398   1.000000
   38        1.832024   1.000000
   39        2.056595   1.000000
   40        2.156093   1.000000
   41        2.243898   1.000000
   42        2.534875   1.000000
   43        2.587578   1.000000
   44        2.795004   1.000000
   45        3.022510   1.000000
   46        3.210902   1.000000
   47        3.393893   1.000000
   48        3.509974   1.000000
   49        3.616121   1.000000
   50        3.957084   1.000000
   51        4.087715   1.000000
   52        4.324496   1.000000
   53        4.366429   1.000000
   54        4.500177   1.000000
   55        4.725417   1.000000
   56        4.893061   1.000000
   57        4.954756   1.000000
   58        5.260202   1.000000
   59        5.402784   1.000000
   60        5.678670   1.000000
   61        6.038423   1.000000
   62        6.830518   0.995073
   63        7.071802   0.118886
   64        9.142211   0.000000
   65        9.331201   0.000000
   66        9.433631   0.000000
   67        9.627271   0.000000
   68        9.895838   0.000000
   69       10.098795   0.000000
   70       10.249410   0.000000
   71       10.277559   0.000000
   72       10.516478   0.000000
   73       10.776279   0.000000
   74       11.047668   0.000000
   75       11.175088   0.000000
   76       11.282976   0.000000
   77       11.398081   0.000000
   78       11.503163   0.000000
   79       11.662109   0.000000
   80       11.669969   0.000000
 
  0.5000000E+00  0.3700805E-15  0.3742002E-15  0.1041667E-01
    1      -11.147772   1.000000
    2      -11.020534   1.000000
    3      -10.795480   1.000000
    4       -9.858474   1.000000
    5       -9.511700   1.000000
    6       -9.504094   1.000000
    7       -9.126798   1.000000
    8       -9.031333   1.000000
    9       -8.906089   1.000000
   10       -8.854001   1.000000
   11       -8.820325   1.000000
   12       -8.765777   1.000000
   13       -3.804981   1.000000
   14       -3.629514   1.000000
   15       -3.287399   1.000000
   16       -3.008930   1.000000
   17       -2.775767   1.000000
   18       -2.584579   1.000000
   19       -2.518028   1.000000
   20       -2.322315   1.000000
   21       -2.141619   1.000000
   22       -1.149865   1.000000
   23       -1.073029   1.000000
   24       -0.963463   1.000000
   25       -0.224786   1.000000
   26       -0.158030   1.000000
   27        0.156833   1.000000
   28        0.204401   1.000000
   29        0.515986   1.000000
   30        0.596185   1.000000
   31        0.712149   1.000000
   32        0.976287   1.000000
   33        1.089271   1.000000
   34        1.153664   1.000000
   35        1.162392   1.000000
   36        1.463748   1.000000
   37        1.505760   1.000000
   38        1.849587   1.000000
   39        2.047275   1.000000
   40        2.207922   1.000000
   41        2.351223   1.000000
   42        2.468955   1.000000
   43        2.578443   1.000000
   44        2.731826   1.000000
   45        3.034564   1.000000
   46        3.328709   1.000000
   47        3.440255   1.000000
   48        3.606391   1.000000
   49        3.730851   1.000000
   50        3.931035   1.000000
   51        3.963910   1.000000
   52        4.209830   1.000000
   53        4.376122   1.000000
   54        4.424483   1.000000
   55        4.790728   1.000000
   56        4.840835   1.000000
   57        4.871459   1.000000
   58        5.207684   1.000000
   59        5.507586   1.000000
   60        5.525855   1.000000
   61        6.079590   1.000000
   62        6.886608   1.015330
   63        6.996013   0.836365
   64        9.284454   0.000000
   65        9.305455   0.000000
   66        9.645208   0.000000
   67        9.666033   0.000000
   68        9.856937   0.000000
   69       10.179906   0.000000
   70       10.191281   0.000000
   71       10.310220   0.000000
   72       10.758468   0.000000
   73       10.782965   0.000000
   74       11.005493   0.000000
   75       11.023611   0.000000
   76       11.231317   0.000000
   77       11.253131   0.000000
   78       11.255198   0.000000
   79       11.548288   0.000000
   80       11.604129   0.000000
 
  0.1666667E+00  0.1666667E+00  0.3742002E-15  0.2083333E-01
    1      -11.257058   1.000000
    2      -10.863518   1.000000
    3      -10.781631   1.000000
    4       -9.858845   1.000000
    5       -9.806824   1.000000
    6       -9.226777   1.000000
    7       -9.211274   1.000000
    8       -8.951238   1.000000
    9       -8.912417   1.000000
   10       -8.862893   1.000000
   11       -8.821896   1.000000
   12       -8.775657   1.000000
   13       -4.104150   1.000000
   14       -3.498784   1.000000
   15       -3.311574   1.000000
   16       -3.053252   1.000000
   17       -2.789263   1.000000
   18       -2.541242   1.000000
   19       -2.340326   1.000000
   20       -2.259845   1.000000
   21       -1.836538   1.000000
   22       -1.315996   1.000000
   23       -1.063581   1.000000
   24       -0.829048   1.000000
   25       -0.449296   1.000000
   26       -0.070171   1.000000
   27       -0.007269   1.000000
   28        0.262159   1.000000
   29        0.379048   1.000000
   30        0.436709   1.000000
   31        0.839417   1.000000
   32        0.864801   1.000000
   33        1.075769   1.000000
   34        1.249486   1.000000
   35        1.249762   1.000000
   36        1.385961   1.000000
   37        1.665376   1.000000
   38        1.842788   1.000000
   39        2.091261   1.000000
   40        2.108508   1.000000
   41        2.116738   1.000000
   42        2.565946   1.000000
   43        2.626831   1.000000
   44        2.820868   1.000000
   45        3.066495   1.000000
   46        3.112663   1.000000
   47        3.356256   1.000000
   48        3.487365   1.000000
   49        3.648074   1.000000
   50        4.000123   1.000000
   51        4.073288   1.000000
   52        4.341065   1.000000
   53        4.360558   1.000000
   54        4.612261   1.000000
   55        4.718750   1.000000
   56        4.750852   1.000000
   57        4.988348   1.000000
   58        5.301750   1.000000
   59        5.423018   1.000000
   60        5.754032   1.000000
   61        6.011842   1.000000
   62        6.810619   0.995800
   63        7.101727  -0.023103
   64        9.105670   0.000000
   65        9.228861   0.000000
   66        9.475269   0.000000
   67        9.523690   0.000000
   68        9.929891   0.000000
   69       10.102204   0.000000
   70       10.220784   0.000000
   71       10.221012   0.000000
   72       10.506195   0.000000
   73       10.868459   0.000000
   74       11.050394   0.000000
   75       11.145214   0.000000
   76       11.325069   0.000000
   77       11.433991   0.000000
   78       11.440870   0.000000
   79       11.720057   0.000000
   80       11.778508   0.000000
 
  0.3333333E+00  0.1666667E+00  0.3742002E-15  0.4166667E-01
    1      -11.159804   1.000000
    2      -10.987320   1.000000
    3      -10.822979   1.000000
    4       -9.799691   1.000000
    5       -9.643549   1.000000
    6       -9.430411   1.000000
    7       -9.133901   1.000000
    8       -8.996711   1.000000
    9       -8.925356   1.000000
   10       -8.853574   1.000000
   11       -8.815171   1.000000
   12       -8.774368   1.000000
   13       -3.840493   1.000000
   14       -3.521137   1.000000
   15       -3.303455   1.000000
   16       -3.138349   1.000000
   17       -2.769525   1.000000
   18       -2.584014   1.000000
   19       -2.447677   1.000000
   20       -2.327925   1.000000
   21       -2.100901   1.000000
   22       -1.235215   1.000000
   23       -1.064077   1.000000
   24       -0.954277   1.000000
   25       -0.272733   1.000000
   26       -0.034217   1.000000
   27        0.113577   1.000000
   28        0.195958   1.000000
   29        0.534539   1.000000
   30        0.569495   1.000000
   31        0.784546   1.000000
   32        0.950554   1.000000
   33        1.005654   1.000000
   34        1.174202   1.000000
   35        1.250134   1.000000
   36        1.388133   1.000000
   37        1.528183   1.000000
   38        1.914404   1.000000
   39        2.072147   1.000000
   40        2.131305   1.000000
   41        2.248068   1.000000
   42        2.453100   1.000000
   43        2.499403   1.000000
   44        2.877870   1.000000
   45        3.030203   1.000000
   46        3.331071   1.000000
   47        3.479824   1.000000
   48        3.626760   1.000000
   49        3.675402   1.000000
   50        3.975257   1.000000
   51        4.076909   1.000000
   52        4.243295   1.000000
   53        4.338569   1.000000
   54        4.454900   1.000000
   55        4.690465   1.000000
   56        4.720282   1.000000
   57        4.875042   1.000000
   58        5.108776   1.000000
   59        5.543489   1.000000
   60        5.677927   1.000000
   61        6.046627   1.000000
   62        6.875611   1.007337
   63        7.003464   0.773973
   64        9.285778   0.000000
   65        9.350869   0.000000
   66        9.559249   0.000000
   67        9.730565   0.000000
   68        9.851499   0.000000
   69       10.073676   0.000000
   70       10.275860   0.000000
   71       10.428086   0.000000
   72       10.586987   0.000000
   73       10.810408   0.000000
   74       10.868227   0.000000
   75       11.039947   0.000000
   76       11.140172   0.000000
   77       11.314843   0.000000
   78       11.399913   0.000000
   79       11.624857   0.000000
   80       11.673901   0.000000
 
  0.3333333E+00  0.3333333E+00  0.3742002E-15  0.6944444E-02
    1      -11.067285   1.000000
    2      -11.067285   1.000000
    3      -10.861719   1.000000
    4       -9.672998   1.000000
    5       -9.596941   1.000000
    6       -9.596941   1.000000
    7       -9.096445   1.000000
    8       -8.972795   1.000000
    9       -8.972795   1.000000
   10       -8.850737   1.000000
   11       -8.795702   1.000000
   12       -8.795702   1.000000
   13       -3.643672   1.000000
   14       -3.412604   1.000000
   15       -3.397994   1.000000
   16       -3.397994   1.000000
   17       -2.651731   1.000000
   18       -2.651731   1.000000
   19       -2.327370   1.000000
   20       -2.306466   1.000000
   21       -2.306466   1.000000
   22       -1.241662   1.000000
   23       -1.036401   1.000000
   24       -1.036401   1.000000
   25       -0.186371   1.000000
   26        0.014554   1.000000
   27        0.014554   1.000000
   28        0.243666   1.000000
   29        0.633037   1.000000
   30        0.633037   1.000000
   31        0.883311   1.000000
   32        0.885283   1.000000
   33        0.885283   1.000000
   34        1.281539   1.000000
   35        1.322221   1.000000
   36        1.353390   1.000000
   37        1.353391   1.000000
   38        2.003298   1.000000
   39        2.003298   1.000000
   40        2.123830   1.000000
   41        2.332346   1.000000
   42        2.352946   1.000000
   43        2.352946   1.000000
   44        3.003035   1.000000
   45        3.003035   1.000000
   46        3.406998   1.000000
   47        3.582191   1.000000
   48        3.704892   1.000000
   49        3.704892   1.000000
   50        3.991801   1.000000
   51        4.206128   1.000000
   52        4.206129   1.000000
   53        4.361516   1.000000
   54        4.426663   1.000000
   55        4.426663   1.000000
   56        4.714947   1.000000
   57        4.714948   1.000000
   58        4.990640   1.000000
   59        5.710873   1.000000
   60        5.710873   1.000000
   61        6.012922   1.000000
   62        6.933987   1.051587
   63        6.933987   1.051587
   64        9.379605   0.000000
   65        9.379605   0.000000
   66        9.680585   0.000000
   67        9.680585   0.000000
   68        9.833661   0.000000
   69       10.159984   0.000000
   70       10.159984   0.000000
   71       10.521899   0.000000
   72       10.548453   0.000000
   73       10.859028   0.000000
   74       10.907010   0.000000
   75       10.931125   0.000000
   76       10.931125   0.000000
   77       11.401709   0.000000
   78       11.401709   0.000000
   79       11.688066   0.000000
   80       11.688067   0.000000
 
  0.3742002E-15  0.3742002E-15  0.1250000E+00  0.6944444E-02
    1      -11.294868   1.000000
    2      -10.672769   1.000000
    3      -10.672769   1.000000
    4       -9.936959   1.000000
    5       -9.936959   1.000000
    6       -9.498103   1.000000
    7       -9.012183   1.000000
    8       -9.012183   1.000000
    9       -8.949260   1.000000
   10       -8.851302   1.000000
   11       -8.851302   1.000000
   12       -8.763222   1.000000
   13       -4.278331   1.000000
   14       -3.351899   1.000000
   15       -3.351899   1.000000
   16       -3.221508   1.000000
   17       -2.499615   1.000000
   18       -2.291441   1.000000
   19       -2.291441   1.000000
   20       -1.853040   1.000000
   21       -1.368469   1.000000
   22       -1.368469   1.000000
   23       -0.952218   1.000000
   24       -0.810923   1.000000
   25       -0.810923   1.000000
   26       -0.602328   1.000000
   27       -0.375055   1.000000
   28        0.460410   1.000000
   29        0.460410   1.000000
   30        0.568821   1.000000
   31        0.689361   1.000000
   32        1.070198   1.000000
   33        1.107462   1.000000
   34        1.107462   1.000000
   35        1.294348   1.000000
   36        1.294348   1.000000
   37        1.720289   1.000000
   38        1.761896   1.000000
   39        1.761896   1.000000
   40        1.930283   1.000000
   41        1.930283   1.000000
   42        2.656142   1.000000
   43        2.828097   1.000000
   44        2.828097   1.000000
   45        2.979443   1.000000
   46        2.979443   1.000000
   47        3.432208   1.000000
   48        3.452168   1.000000
   49        3.742931   1.000000
   50        3.742931   1.000000
   51        3.994681   1.000000
   52        4.188890   1.000000
   53        4.556903   1.000000
   54        4.556903   1.000000
   55        4.591564   1.000000
   56        5.003953   1.000000
   57        5.003953   1.000000
   58        5.546533   1.000000
   59        5.546533   1.000000
   60        5.953146   1.000000
   61        5.953146   1.000000
   62        6.807127   0.996042
   63        7.157078  -0.031928
   64        8.879502   0.000000
   65        8.879503   0.000000
   66        9.541236   0.000000
   67        9.633315   0.000000
   68        9.633315   0.000000
   69       10.061819   0.000000
   70       10.061820   0.000000
   71       10.706983   0.000000
   72       10.813027   0.000000
   73       10.813029   0.000000
   74       10.875576   0.000000
   75       11.351908   0.000000
   76       11.460230   0.000000
   77       11.460235   0.000000
   78       11.462361   0.000000
   79       11.836411   0.000000
   80       11.862130   0.000000
 
  0.1666667E+00  0.1241559E-14  0.1250000E+00  0.4166667E-01
    1      -11.265994   1.000000
    2      -10.733453   1.000000
    3      -10.695267   1.000000
    4       -9.907376   1.000000
    5       -9.873683   1.000000
    6       -9.467278   1.000000
    7       -9.092440   1.000000
    8       -9.039466   1.000000
    9       -8.989709   1.000000
   10       -8.852009   1.000000
   11       -8.788975   1.000000
   12       -8.752857   1.000000
   13       -4.200485   1.000000
   14       -3.380224   1.000000
   15       -3.281142   1.000000
   16       -3.163710   1.000000
   17       -2.561366   1.000000
   18       -2.373752   1.000000
   19       -2.287772   1.000000
   20       -2.029879   1.000000
   21       -1.598809   1.000000
   22       -1.331170   1.000000
   23       -0.973607   1.000000
   24       -0.777441   1.000000
   25       -0.639645   1.000000
   26       -0.490627   1.000000
   27       -0.228438   1.000000
   28        0.358009   1.000000
   29        0.409418   1.000000
   30        0.593847   1.000000
   31        0.711696   1.000000
   32        0.886684   1.000000
   33        1.104330   1.000000
   34        1.152775   1.000000
   35        1.263343   1.000000
   36        1.397133   1.000000
   37        1.671582   1.000000
   38        1.759351   1.000000
   39        1.933094   1.000000
   40        1.968368   1.000000
   41        2.013939   1.000000
   42        2.596065   1.000000
   43        2.718761   1.000000
   44        2.878130   1.000000
   45        2.991335   1.000000
   46        3.096541   1.000000
   47        3.292320   1.000000
   48        3.441871   1.000000
   49        3.770375   1.000000
   50        3.844159   1.000000
   51        4.044568   1.000000
   52        4.195140   1.000000
   53        4.485165   1.000000
   54        4.600391   1.000000
   55        4.671199   1.000000
   56        4.895562   1.000000
   57        4.976120   1.000000
   58        5.450836   1.000000
   59        5.491215   1.000000
   60        5.840230   1.000000
   61        5.957350   1.000000
   62        6.830088   0.995069
   63        7.129414  -0.051394
   64        8.981410   0.000000
   65        9.042433   0.000000
   66        9.577945   0.000000
   67        9.639515   0.000000
   68        9.709338   0.000000
   69       10.036745   0.000000
   70       10.197425   0.000000
   71       10.383965   0.000000
   72       10.695839   0.000000
   73       10.909289   0.000000
   74       11.050699   0.000000
   75       11.223750   0.000000
   76       11.421097   0.000000
   77       11.511078   0.000000
   78       11.540262   0.000000
   79       11.651317   0.000000
   80       11.764560   0.000000
 
  0.3333333E+00  0.3831662E-15  0.1250000E+00  0.4166667E-01
    1      -11.185051   1.000000
    2      -10.869395   1.000000
    3      -10.734104   1.000000
    4       -9.863907   1.000000
    5       -9.711535   1.000000
    6       -9.379624   1.000000
    7       -9.281836   1.000000
    8       -9.124092   1.000000
    9       -8.998643   1.000000
   10       -8.851683   1.000000
   11       -8.739374   1.000000
   12       -8.733315   1.000000
   13       -3.980353   1.000000
   14       -3.429862   1.000000
   15       -3.149964   1.000000
   16       -3.082885   1.000000
   17       -2.733672   1.000000
   18       -2.500603   1.000000
   19       -2.314617   1.000000
   20       -2.242822   1.000000
   21       -1.942501   1.000000
   22       -1.193105   1.000000
   23       -0.971180   1.000000
   24       -0.835594   1.000000
   25       -0.543625   1.000000
   26       -0.220246   1.000000
   27       -0.007514   1.000000
   28        0.180510   1.000000
   29        0.353227   1.000000
   30        0.572636   1.000000
   31        0.811679   1.000000
   32        0.858259   1.000000
   33        1.046923   1.000000
   34        1.139493   1.000000
   35        1.240966   1.000000
   36        1.431682   1.000000
   37        1.620798   1.000000
   38        1.787750   1.000000
   39        1.952720   1.000000
   40        2.111069   1.000000
   41        2.238928   1.000000
   42        2.485699   1.000000
   43        2.660564   1.000000
   44        2.817417   1.000000
   45        3.038519   1.000000
   46        3.216711   1.000000
   47        3.403216   1.000000
   48        3.520835   1.000000
   49        3.710918   1.000000
   50        3.968953   1.000000
   51        4.073753   1.000000
   52        4.225297   1.000000
   53        4.336933   1.000000
   54        4.453305   1.000000
   55        4.722901   1.000000
   56        4.872982   1.000000
   57        4.958513   1.000000
   58        5.246002   1.000000
   59        5.378257   1.000000
   60        5.631415   1.000000
   61        6.004449   1.000000
   62        6.889748   1.017969
   63        7.064741   0.172063
   64        9.193548   0.000000
   65        9.371380   0.000000
   66        9.466024   0.000000
   67        9.679448   0.000000
   68        9.932143   0.000000
   69       10.096242   0.000000
   70       10.220396   0.000000
   71       10.399107   0.000000
   72       10.541483   0.000000
   73       10.818059   0.000000
   74       11.048041   0.000000
   75       11.129779   0.000000
   76       11.275513   0.000000
   77       11.400156   0.000000
   78       11.483562   0.000000
   79       11.600967   0.000000
   80       11.684550   0.000000
 
  0.5000000E+00  0.3700805E-15  0.1250000E+00  0.2083333E-01
    1      -11.102941   1.000000
    2      -10.975909   1.000000
    3      -10.751240   1.000000
    4       -9.847766   1.000000
    5       -9.516495   1.000000
    6       -9.484195   1.000000
    7       -9.287375   1.000000
    8       -9.212480   1.000000
    9       -9.001093   1.000000
   10       -8.851387   1.000000
   11       -8.725361   1.000000
   12       -8.723422   1.000000
   13       -3.752846   1.000000
   14       -3.537213   1.000000
   15       -3.215377   1.000000
   16       -2.998953   1.000000
   17       -2.681700   1.000000
   18       -2.590168   1.000000
   19       -2.459182   1.000000
   20       -2.192071   1.000000
   21       -2.142705   1.000000
   22       -1.098176   1.000000
   23       -0.977782   1.000000
   24       -0.903915   1.000000
   25       -0.398413   1.000000
   26       -0.264237   1.000000
   27        0.077918   1.000000
   28        0.164744   1.000000
   29        0.288921   1.000000
   30        0.577142   1.000000
   31        0.845735   1.000000
   32        0.913356   1.000000
   33        1.111677   1.000000
   34        1.113949   1.000000
   35        1.213795   1.000000
   36        1.443641   1.000000
   37        1.528056   1.000000
   38        1.797028   1.000000
   39        1.926540   1.000000
   40        2.195276   1.000000
   41        2.302643   1.000000
   42        2.507927   1.000000
   43        2.602168   1.000000
   44        2.761191   1.000000
   45        3.073908   1.000000
   46        3.324385   1.000000
   47        3.499850   1.000000
   48        3.646285   1.000000
   49        3.708431   1.000000
   50        3.964360   1.000000
   51        4.130177   1.000000
   52        4.163569   1.000000
   53        4.204615   1.000000
   54        4.341510   1.000000
   55        4.761534   1.000000
   56        4.836836   1.000000
   57        4.880160   1.000000
   58        5.218718   1.000000
   59        5.396285   1.000000
   60        5.484361   1.000000
   61        6.039495   1.000000
   62        6.944520   1.048175
   63        7.012296   0.691667
   64        9.345498   0.000000
   65        9.356022   0.000000
   66        9.536744   0.000000
   67        9.680986   0.000000
   68       10.023440   0.000000
   69       10.113428   0.000000
   70       10.244547   0.000000
   71       10.345944   0.000000
   72       10.663225   0.000000
   73       10.800492   0.000000
   74       11.009119   0.000000
   75       11.082587   0.000000
   76       11.240282   0.000000
   77       11.272557   0.000000
   78       11.336231   0.000000
   79       11.571163   0.000000
   80       11.633043   0.000000
 
  0.1666667E+00  0.1666667E+00  0.1250000E+00  0.2083333E-01