 running on   16 total cores
 distrk:  each k-point on   16 cores,    1 groups
 distr:  one band on    4 cores,    4 groups
 using from now: INCAR     
 vasp.5.4.4.18Apr17-6-g9f103f2a35 (build Nov 01 2019 12:17:22) complex          
  
 POSCAR found type information on POSCAR  Si N 
 POSCAR found :  2 types and      28 ions
 WARNING: type information on POSCAR and POTCAR are incompatible
 POTCAR overwrites the type information in POSCAR
 typ   1 type information:  Si N 
 WARNING: type information on POSCAR and POTCAR are incompatible
 POTCAR overwrites the type information in POSCAR
 typ   2 type information:  N  Si
 LDA part: xc-table for Pade appr. of Perdew
 generate k-points for:    6    6    8
 POSCAR, INCAR and KPOINTS ok, starting setup
 FFT: planning ...
 WAVECAR not read
 entering main loop
       N       E                     dE             d eps       ncg     rms          rms(c)
DAV:   1     0.469894554565E+03    0.46989E+03   -0.49069E+04  7040   0.112E+03
DAV:   2    -0.170630878522E+03   -0.64053E+03   -0.61356E+03  8816   0.240E+02
DAV:   3    -0.223796152888E+03   -0.53165E+02   -0.52689E+02  8440   0.739E+01
DAV:   4    -0.225136055181E+03   -0.13399E+01   -0.13325E+01  8864   0.121E+01
DAV:   5    -0.225169346545E+03   -0.33291E-01   -0.33242E-01  8608   0.184E+00    0.342E+01
RMM:   6    -0.202336149951E+03    0.22833E+02   -0.11229E+02  7055   0.262E+01    0.151E+01
RMM:   7    -0.201948796593E+03    0.38735E+00   -0.40063E+00  7403   0.454E+00    0.854E+00
RMM:   8    -0.201806930456E+03    0.14187E+00   -0.13491E+00  7040   0.292E+00    0.168E+00
RMM:   9    -0.201750586862E+03    0.56344E-01   -0.80903E-02  7043   0.768E-01    0.845E-01
RMM:  10    -0.201741616340E+03    0.89705E-02   -0.17721E-01  7040   0.988E-01    0.532E-01
RMM:  11    -0.201739502759E+03    0.21136E-02   -0.10971E-02  7040   0.261E-01    0.240E-01
RMM:  12    -0.201738795491E+03    0.70727E-03   -0.57853E-03  7040   0.194E-01    0.108E-01
RMM:  13    -0.201738558649E+03    0.23684E-03   -0.69806E-04  6100   0.639E-02    0.320E-02
RMM:  14    -0.201738541637E+03    0.17012E-04   -0.53873E-05  4261   0.235E-02
   1 F= -.20173854E+03 E0= -.20173630E+03  d E =-.201739E+03
 curvature:   0.00 expect dE= 0.000E+00 dE for cont linesearch  0.000E+00
 trial: gam= 0.00000 g(F)=  0.100E+00 g(S)=  0.000E+00 ort = 0.000E+00 (trialstep = 0.100E+01)
 search vector abs. value=  0.100E+00
 bond charge predicted
       N       E                     dE             d eps       ncg     rms          rms(c)
DAV:   1    -0.201788034171E+03   -0.49476E-01   -0.71308E+00  7744   0.103E+01    0.660E-01
RMM:   2    -0.201798808131E+03   -0.10774E-01   -0.15471E-01  7040   0.127E+00    0.358E-01
RMM:   3    -0.201796782873E+03    0.20253E-02   -0.75655E-03  7158   0.255E-01    0.260E-01
RMM:   4    -0.201795931757E+03    0.85112E-03   -0.38032E-03  7040   0.165E-01    0.122E-01
RMM:   5    -0.201795821150E+03    0.11061E-03   -0.45844E-04  5824   0.534E-02    0.558E-02
RMM:   6    -0.201795833687E+03   -0.12537E-04   -0.73872E-05  4258   0.251E-02
   2 F= -.20179583E+03 E0= -.20179341E+03  d E =-.572920E-01
 trial-energy change:   -0.057292  1 .order   -0.057156   -0.100184   -0.014128
 step:   1.1642(harm=  1.1642)  dis= 0.01715  next Energy=  -201.796857 (dE=-0.583E-01)
 bond charge predicted
       N       E                     dE             d eps       ncg     rms          rms(c)
DAV:   1    -0.201796769405E+03   -0.94826E-03   -0.19267E-01  8224   0.169E+00    0.108E-01
RMM:   2    -0.201797067212E+03   -0.29781E-03   -0.40732E-03  7040   0.205E-01    0.583E-02
RMM:   3    -0.201797016880E+03    0.50332E-04   -0.17360E-04  4383   0.419E-02
   3 F= -.20179702E+03 E0= -.20179458E+03  d E =-.584752E-01
 curvature:  -0.58 expect dE=-0.261E-01 dE for cont linesearch -0.298E-05
 trial: gam= 0.43995 g(F)=  0.448E-01 g(S)=  0.000E+00 ort = 0.716E-03 (trialstep = 0.103E+01)
 search vector abs. value=  0.648E-01
 bond charge predicted
       N       E                     dE             d eps       ncg     rms          rms(c)
DAV:   1    -0.201823352932E+03   -0.26286E-01   -0.40029E+00  7184   0.750E+00    0.445E-01
RMM:   2    -0.201830467247E+03   -0.71143E-02   -0.85878E-02  7040   0.927E-01    0.258E-01
RMM:   3    -0.201829478881E+03    0.98837E-03   -0.39639E-03  7261   0.172E-01    0.190E-01
RMM:   4    -0.201828921713E+03    0.55717E-03   -0.15299E-03  7042   0.104E-01    0.929E-02
RMM:   5    -0.201828864836E+03    0.56878E-04   -0.55380E-04  6040   0.592E-02
   4 F= -.20182886E+03 E0= -.20182648E+03  d E =-.318480E-01
 trial-energy change:   -0.031848  1 .order   -0.032096   -0.046588   -0.017603
 step:   1.6601(harm=  1.6601)  dis= 0.01461  next Energy=  -201.834458 (dE=-0.374E-01)
 bond charge predicted
       N       E                     dE             d eps       ncg     rms          rms(c)
DAV:   1    -0.201831723459E+03   -0.28017E-02   -0.14823E+00  7216   0.456E+00    0.277E-01
RMM:   2    -0.201834498645E+03   -0.27752E-02   -0.32561E-02  7040   0.571E-01    0.164E-01
RMM:   3    -0.201834127874E+03    0.37077E-03   -0.15058E-03  6917   0.105E-01    0.123E-01
RMM:   4    -0.201833918257E+03    0.20962E-03   -0.51560E-04  6149   0.614E-02    0.658E-02
RMM:   5    -0.201833889682E+03    0.28575E-04   -0.26215E-04  4624   0.445E-02
   5 F= -.20183389E+03 E0= -.20183154E+03  d E =-.368728E-01
 curvature:  -1.19 expect dE=-0.268E-01 dE for cont linesearch -0.350E-05
 trial: gam= 0.51759 g(F)=  0.225E-01 g(S)=  0.000E+00 ort =-0.436E-03 (trialstep = 0.116E+01)
 search vector abs. value=  0.394E-01
 bond charge predicted
       N       E                     dE             d eps       ncg     rms          rms(c)
DAV:   1    -0.201840482091E+03   -0.65638E-02   -0.42584E+00  7040   0.789E+00    0.560E-01
RMM:   2    -0.201849205719E+03   -0.87236E-02   -0.98997E-02  7040   0.997E-01    0.285E-01
RMM:   3    -0.201847152028E+03    0.20537E-02   -0.52318E-03  7254   0.184E-01    0.185E-01
RMM:   4    -0.201846356630E+03    0.79540E-03   -0.11647E-03  6987   0.963E-02    0.962E-02
RMM:   5    -0.201846218512E+03    0.13812E-03   -0.94496E-04  6913   0.807E-02    0.237E-02
RMM:   6    -0.201846213655E+03    0.48572E-05   -0.27765E-05  4197   0.166E-02
   6 F= -.20184621E+03 E0= -.20184393E+03  d E =-.123240E-01
 trial-energy change:   -0.012324  1 .order   -0.012359   -0.025793    0.001075
 step:   1.1119(harm=  1.1119)  dis= 0.00770  next Energy=  -201.846270 (dE=-0.124E-01)
 bond charge predicted
       N       E                     dE             d eps       ncg     rms          rms(c)
DAV:   1    -0.201846225374E+03   -0.68622E-05   -0.68259E-03  8096   0.316E-01    0.217E-02
RMM:   2    -0.201846236346E+03   -0.10972E-04   -0.14428E-04  3900   0.408E-02
   7 F= -.20184624E+03 E0= -.20184396E+03  d E =-.123467E-01
 curvature:  -0.98 expect dE=-0.992E-02 dE for cont linesearch -0.110E-05
 trial: gam= 0.43367 g(F)=  0.101E-01 g(S)=  0.000E+00 ort = 0.210E-03 (trialstep = 0.115E+01)
 search vector abs. value=  0.177E-01
 bond charge predicted
       N       E                     dE             d eps       ncg     rms          rms(c)
DAV:   1    -0.201851867244E+03   -0.56419E-02   -0.10268E+00  7056   0.392E+00    0.335E-01
RMM:   2    -0.201853930876E+03   -0.20636E-02   -0.21917E-02  7040   0.488E-01    0.200E-01
RMM:   3    -0.201852804915E+03    0.11260E-02   -0.17513E-03  6977   0.102E-01    0.110E-01
RMM:   4    -0.201852696681E+03    0.10823E-03   -0.27170E-04  4376   0.485E-02    0.637E-02
RMM:   5    -0.201852694848E+03    0.18333E-05   -0.17394E-04  4259   0.401E-02
   8 F= -.20185269E+03 E0= -.20185047E+03  d E =-.645850E-02
 trial-energy change:   -0.006459  1 .order   -0.006582   -0.011687   -0.001477
 step:   1.3152(harm=  1.3152)  dis= 0.00677  next Energy=  -201.852925 (dE=-0.669E-02)
 bond charge predicted
       N       E                     dE             d eps       ncg     rms          rms(c)
DAV:   1    -0.201852760872E+03   -0.64191E-04   -0.21389E-02  8344   0.566E-01    0.500E-02
RMM:   2    -0.201852810297E+03   -0.49425E-04   -0.45571E-04  5136   0.723E-02
   9 F= -.20185281E+03 E0= -.20185056E+03  d E =-.657395E-02
 curvature:  -1.14 expect dE=-0.389E-02 dE for cont linesearch -0.772E-05
 trial: gam= 0.35786 g(F)=  0.341E-02 g(S)=  0.000E+00 ort =-0.346E-03 (trialstep = 0.118E+01)
 search vector abs. value=  0.542E-02
 bond charge predicted
       N       E                     dE             d eps       ncg     rms          rms(c)
DAV:   1    -0.201853881079E+03   -0.11202E-02   -0.58534E-01  7040   0.298E+00    0.225E-01
RMM:   2    -0.201855003095E+03   -0.11220E-02   -0.13553E-02  7040   0.367E-01    0.111E-01
RMM:   3    -0.201854797830E+03    0.20526E-03   -0.75351E-04  6006   0.726E-02    0.784E-02
RMM:   4    -0.201854695828E+03    0.10200E-03   -0.17033E-04  4254   0.390E-02    0.460E-02
RMM:   5    -0.201854680940E+03    0.14888E-04   -0.14931E-04  4151   0.358E-02
  10 F= -.20185468E+03 E0= -.20185248E+03  d E =-.187064E-02
 trial-energy change:   -0.001871  1 .order   -0.001867   -0.003883    0.000150
 step:   1.1383(harm=  1.1383)  dis= 0.00474  next Energy=  -201.854680 (dE=-0.187E-02)
 bond charge predicted
       N       E                     dE             d eps       ncg     rms          rms(c)
DAV:   1    -0.201854689781E+03    0.60472E-05   -0.84414E-04  8088   0.114E-01    0.883E-03
RMM:   2    -0.201854690233E+03   -0.45218E-06   -0.16255E-05  3648   0.142E-02
  11 F= -.20185469E+03 E0= -.20185249E+03  d E =-.187994E-02
 curvature:  -0.94 expect dE=-0.976E-03 dE for cont linesearch -0.136E-05
 trial: gam= 0.32059 g(F)=  0.104E-02 g(S)=  0.000E+00 ort =-0.887E-04 (trialstep = 0.117E+01)
 search vector abs. value=  0.154E-02
 bond charge predicted
       N       E                     dE             d eps       ncg     rms          rms(c)
DAV:   1    -0.201855261324E+03   -0.57154E-03   -0.14796E-01  7072   0.150E+00    0.779E-02
RMM:   2    -0.201855504711E+03   -0.24339E-03   -0.28627E-03  7040   0.173E-01    0.457E-02
RMM:   3    -0.201855476022E+03    0.28689E-04   -0.10306E-04  4260   0.328E-02
  12 F= -.20185548E+03 E0= -.20185327E+03  d E =-.785789E-03
 trial-energy change:   -0.000786  1 .order   -0.000797   -0.001185   -0.000409
 step:   1.7916(harm=  1.7916)  dis= 0.00657  next Energy=  -201.855595 (dE=-0.904E-03)
 bond charge predicted
       N       E                     dE             d eps       ncg     rms          rms(c)
DAV:   1    -0.201855505291E+03   -0.57974E-06   -0.39971E-02  7600   0.777E-01    0.472E-02
RMM:   2    -0.201855559589E+03   -0.54298E-04   -0.73246E-04  6147   0.876E-02
  13 F= -.20185556E+03 E0= -.20185337E+03  d E =-.869356E-03
 curvature:  -1.37 expect dE=-0.135E-02 dE for cont linesearch -0.768E-05
 trial: gam= 0.99551 g(F)=  0.986E-03 g(S)=  0.000E+00 ort =-0.930E-04 (trialstep = 0.858E+00)
 search vector abs. value=  0.233E-02
 reached required accuracy - stopping structural energy minimisation
