 vasp.5.4.4.18Apr17-6-g9f103f2a35 (build Nov 01 2019 12:17:22) complex          
  
 executed on             LinuxIFC date 2023.05.19  18:21:56
 running on   16 total cores
 distrk:  each k-point on   16 cores,    1 groups
 distr:  one band on NCORES_PER_BAND=   4 cores,    4 groups


--------------------------------------------------------------------------------------------------------


 INCAR:
 POTCAR:    PAW_PBE N 08Apr2002                   
 POTCAR:    PAW_PBE Si 05Jan2001                  
 POTCAR:    PAW_PBE N 08Apr2002                   
   VRHFIN =N: s2p3                                                              
   LEXCH  = PE                                                                  
   EATOM  =   264.5486 eV,   19.4438 Ry                                         
                                                                                
   TITEL  = PAW_PBE N 08Apr2002                                                 
   LULTRA =        F    use ultrasoft PP ?                                      
   IUNSCR =        1    unscreen: 0-lin 1-nonlin 2-no                           
   RPACOR =    1.200    partial core radius                                     
   POMASS =   14.001; ZVAL   =    5.000    mass and valenz                      
   RCORE  =    1.500    outmost cutoff radius                                   
   RWIGS  =    1.400; RWIGS  =    0.741    wigner-seitz radius (au A)           
   ENMAX  =  400.000; ENMIN  =  300.000 eV                                      
   ICORE  =        2    local potential                                         
   LCOR   =        T    correct aug charges                                     
   LPAW   =        T    paw PP                                                  
   EAUG   =  627.112                                                            
   DEXC   =    0.000                                                            
   RMAX   =    1.529    core radius for proj-oper                               
   RAUG   =    1.300    factor for augmentation sphere                          
   RDEP   =    1.514    radius for radial grids                                 
   RDEPT  =    1.338    core radius for aug-charge                              
                                                                                
   Atomic configuration                                                         
    4 entries                                                                   
     n  l   j            E        occ.                                          
     1  0  0.50      -384.7179   2.0000                                         
     2  0  0.50       -18.5828   2.0000                                         
     2  1  0.50        -7.0898   3.0000                                         
     3  2  1.50        -6.8029   0.0000                                         
   Description                                                                  
     l       E           TYP  RCUT    TYP  RCUT                                 
     0    -18.5828119     23  1.200                                             
     0    -13.5018863     23  1.200                                             
     1     -7.0897853     23  1.500                                             
     1      9.5240782     23  1.500                                             
     2     -6.8029130      7  1.500                                             
  local pseudopotential read in
  partial core-charges read in
  partial kinetic energy density read in
  atomic valenz-charges read in
  non local Contribution for L=           0  read in
    real space projection operators read in
  non local Contribution for L=           0  read in
    real space projection operators read in
  non local Contribution for L=           1  read in
    real space projection operators read in
  non local Contribution for L=           1  read in
    real space projection operators read in
    PAW grid and wavefunctions read in
 
   number of l-projection  operators is LMAX  =           4
   number of lm-projection operators is LMMAX =           8
 
 POTCAR:    PAW_PBE Si 05Jan2001                  
   VRHFIN =Si: s2p2                                                             
   LEXCH  = PE                                                                  
   EATOM  =   103.0669 eV,    7.5752 Ry                                         
                                                                                
   TITEL  = PAW_PBE Si 05Jan2001                                                
   LULTRA =        F    use ultrasoft PP ?                                      
   IUNSCR =        1    unscreen: 0-lin 1-nonlin 2-no                           
   RPACOR =    1.500    partial core radius                                     
   POMASS =   28.085; ZVAL   =    4.000    mass and valenz                      
   RCORE  =    1.900    outmost cutoff radius                                   
   RWIGS  =    2.480; RWIGS  =    1.312    wigner-seitz radius (au A)           
   ENMAX  =  245.345; ENMIN  =  184.009 eV                                      
   ICORE  =        2    local potential                                         
   LCOR   =        T    correct aug charges                                     
   LPAW   =        T    paw PP                                                  
   EAUG   =  322.069                                                            
   DEXC   =    0.000                                                            
   RMAX   =    1.950    core radius for proj-oper                               
   RAUG   =    1.300    factor for augmentation sphere                          
   RDEP   =    1.993    radius for radial grids                                 
   RDEPT  =    1.837    core radius for aug-charge                              
                                                                                
   Atomic configuration                                                         
    6 entries                                                                   
     n  l   j            E        occ.                                          
     1  0  0.50     -1785.8828   2.0000                                         
     2  0  0.50      -139.4969   2.0000                                         
     2  1  1.50       -95.5546   6.0000                                         
     3  0  0.50       -10.8127   2.0000                                         
     3  1  0.50        -4.0811   2.0000                                         
     3  2  1.50        -4.0817   0.0000                                         
   Description                                                                  
     l       E           TYP  RCUT    TYP  RCUT                                 
     0    -10.8127223     23  1.900                                             
     0     -7.6451159     23  1.900                                             
     1     -4.0811372     23  1.900                                             
     1      2.4879257     23  1.900                                             
     2     -4.0817478      7  1.900                                             
  local pseudopotential read in
  partial core-charges read in
  partial kinetic energy density read in
  atomic valenz-charges read in
  non local Contribution for L=           0  read in
    real space projection operators read in
  non local Contribution for L=           0  read in
    real space projection operators read in
  non local Contribution for L=           1  read in
    real space projection operators read in
  non local Contribution for L=           1  read in
    real space projection operators read in
    PAW grid and wavefunctions read in
 
   number of l-projection  operators is LMAX  =           4
   number of lm-projection operators is LMMAX =           8
 
 Optimization of the real space projectors (new method)

 maximal supplied QI-value         = 25.13
 optimisation between [QCUT,QGAM] = [ 10.05, 20.36] = [ 28.30,116.06] Ry 
 Optimized for a Real-space Cutoff    1.70 Angstroem

   l    n(q)    QCUT    max X(q) W(low)/X(q) W(high)/X(q)  e(spline) 
   0     10    10.053    79.467    0.61E-04    0.98E-04    0.61E-06
   0     10    10.053    66.151    0.60E-04    0.98E-04    0.61E-06
   1     10    10.053     8.350    0.17E-03    0.71E-03    0.45E-05
   1     10    10.053     5.531    0.18E-03    0.77E-03    0.49E-05
 Optimization of the real space projectors (new method)

 maximal supplied QI-value         = 19.84
 optimisation between [QCUT,QGAM] = [ 10.12, 20.44] = [ 28.68,116.96] Ry 
 Optimized for a Real-space Cutoff    1.38 Angstroem

   l    n(q)    QCUT    max X(q) W(low)/X(q) W(high)/X(q)  e(spline) 
   0      8    10.119   159.560    0.58E-04    0.11E-03    0.54E-07
   0      8    10.119   115.863    0.56E-04    0.11E-03    0.54E-07
   1      8    10.119    88.339    0.22E-03    0.17E-03    0.19E-06
   1      8    10.119    48.592    0.22E-03    0.17E-03    0.18E-06
  PAW_PBE N 08Apr2002                   :
 energy of atom  1       EATOM= -264.5486
 kinetic energy error for atom=    0.0736 (will be added to EATOM!!)
  PAW_PBE Si 05Jan2001                  :
 energy of atom  2       EATOM= -103.0669
 kinetic energy error for atom=    0.0012 (will be added to EATOM!!)
 
 
 POSCAR: Si12 N16                                
  positions in direct lattice
  No initial velocities read in
 exchange correlation table for  LEXCH =        8
   RHO(1)=    0.500       N(1)  =     2000
   RHO(2)=  100.500       N(2)  =     4000
 


--------------------------------------------------------------------------------------------------------


 ion  position               nearest neighbor table
   1  0.008  0.647  0.213-  14 1.77  23 1.78  25 1.81
   2  0.639  0.992  0.213-  16 1.77  22 1.78  28 1.81
   3  0.914  0.322  0.992-  22 1.78  25 1.80  18 1.81
   4  0.647  0.008  0.713-  22 1.77  16 1.78  26 1.81
   5  0.086  0.407  0.492-  13 1.78  18 1.80  25 1.81
   6  0.322  0.914  0.492-  14 1.78  26 1.80  28 1.81
   7  0.353  0.361  0.213-  13 1.77  15 1.78  21 1.81
   8  0.593  0.678  0.492-  16 1.78  27 1.80  21 1.81
   9  0.992  0.639  0.713-  23 1.77  14 1.78  18 1.81
  10  0.361  0.353  0.713-  15 1.77  13 1.78  27 1.81
  11  0.678  0.593  0.992-  23 1.78  21 1.80  27 1.81
  12  0.407  0.086  0.992-  15 1.78  28 1.80  26 1.81
  13  0.213  0.300  0.467-   7 1.77   5 1.78  10 1.78  19 2.33  21 2.98  18 3.06  15 3.09  15 3.09
                            27 3.10
  14  0.087  0.787  0.467-   1 1.77   6 1.78   9 1.78  19 2.33  25 2.98  26 3.06  23 3.09  23 3.09
                            18 3.10
  15  0.300  0.213  0.967-  10 1.77  12 1.78   7 1.78  17 2.33  27 2.98  28 3.06  13 3.09  13 3.09
                            21 3.10
  16  0.700  0.913  0.467-   2 1.77   8 1.78   4 1.78  19 2.33  28 2.98  27 3.06  22 3.09  22 3.09
                            26 3.10
  17  0.000  0.000  0.957-  22 2.33  23 2.33  15 2.33  19 2.79  19 2.79
  18  0.067  0.484  0.783-   5 1.80   3 1.81   9 1.81  24 2.32  25 2.97  25 2.97  23 2.98  13 3.06
                            14 3.10
  19  0.000  0.000  0.457-  14 2.33  16 2.33  13 2.33  17 2.79  17 2.79
  20  0.667  0.333  0.476-  21 2.32  28 2.32  25 2.32
  21  0.582  0.516  0.283-  11 1.80   8 1.81   7 1.81  20 2.32  27 2.97  27 2.97  13 2.98  23 3.06
                            15 3.10
  22  0.787  0.087  0.967-   4 1.77   3 1.78   2 1.78  17 2.33  26 2.98  25 3.06  16 3.09  16 3.09
                            28 3.10
  23  0.913  0.700  0.967-   9 1.77  11 1.78   1 1.78  17 2.33  18 2.98  21 3.06  14 3.09  14 3.09
                            25 3.10
  24  0.333  0.667  0.976-  27 2.32  18 2.32  26 2.32
  25  0.933  0.418  0.283-   3 1.80   5 1.81   1 1.81  20 2.32  18 2.97  18 2.97  14 2.98  22 3.06
                            23 3.10
  26  0.418  0.933  0.783-   6 1.80  12 1.81   4 1.81  24 2.32  28 2.97  28 2.97  22 2.98  14 3.06
                            16 3.10
  27  0.516  0.582  0.783-   8 1.80  11 1.81  10 1.81  24 2.32  21 2.97  21 2.97  15 2.98  16 3.06
                            13 3.10
  28  0.484  0.067  0.283-  12 1.80   6 1.81   2 1.81  20 2.32  26 2.97  26 2.97  16 2.98  15 3.06
                            22 3.10
 
  LATTYP: Found a hexagonal cell.
 ALAT       =     8.7138937768
 C/A-ratio  =     0.6407499831
  
  Lattice vectors:
  
 A1 = (   4.3569468884,  -7.5464533766,   0.0000000000)
 A2 = (   4.3569468884,   7.5464533766,   0.0000000000)
 A3 = (   0.0000000000,   0.0000000000,   5.5834272905)


Analysis of symmetry for initial positions (statically):
=====================================================================
 Subroutine PRICEL returns:
 Original cell was already a primitive cell.
 

 Routine SETGRP: Setting up the symmetry group for a 
 hexagonal supercell.


 Subroutine GETGRP returns: Found  6 space group operations
 (whereof  3 operations were pure point group operations)
 out of a pool of 24 trial point group operations.


The static configuration has the point symmetry C_3 .
 The point group associated with its full space group is C_3v.


Analysis of symmetry for dynamics (positions and initial velocities):
=====================================================================
 Subroutine PRICEL returns:
 Original cell was already a primitive cell.
 

 Routine SETGRP: Setting up the symmetry group for a 
 hexagonal supercell.


 Subroutine GETGRP returns: Found  6 space group operations
 (whereof  3 operations were pure point group operations)
 out of a pool of 24 trial point group operations.


The dynamic configuration has the point symmetry C_3 .
 The point group associated with its full space group is C_3v.


 Subroutine INISYM returns: Found  6 space group operations
 (whereof  3 operations are pure point group operations),
 and found     1 'primitive' translations

 
 
 KPOINTS: Automatic mesh                          

Automatic generation of k-mesh.
 generate k-points for:    6    6    8
Space group operators:
 irot       det(A)        alpha          n_x          n_y          n_z        tau_x        tau_y        tau_z
    1     1.000000     0.000001     1.000000     0.000000     0.000000     0.000000     0.000000     0.000000
    2     1.000000   120.000000     0.000000     0.000000    -1.000000     0.000000     0.000000     0.000000
    3     1.000000   120.000000     0.000000     0.000000     1.000000     0.000000     0.000000     0.000000
    4    -1.000000   180.000000     0.000000     1.000000     0.000000     0.000000     0.000000     0.500000
    5    -1.000000   180.000000     0.866025     0.500000     0.000000     0.000000     0.000000     0.500000
    6    -1.000000   180.000000     0.866025    -0.500000     0.000000     0.000000     0.000000     0.500000
 
 Subroutine IBZKPT returns following result:
 ===========================================
 
 Found     44 irreducible k-points:
 
 Following reciprocal coordinates:
            Coordinates               Weight
  0.000000  0.000000  0.000000      1.000000
  0.166667  0.000000  0.000000      6.000000
  0.333333  0.000000  0.000000      6.000000
  0.500000  0.000000  0.000000      3.000000
  0.166667  0.166667  0.000000      6.000000
  0.333333  0.166667  0.000000     12.000000
  0.333333  0.333333  0.000000      2.000000
  0.000000  0.000000  0.125000      2.000000
  0.166667  0.000000  0.125000     12.000000
  0.333333  0.000000  0.125000     12.000000
  0.500000  0.000000  0.125000      6.000000
  0.166667  0.166667  0.125000      6.000000
  0.333333  0.166667  0.125000     12.000000
  0.333333  0.333333  0.125000      2.000000
 -0.166667  0.333333  0.125000      6.000000
 -0.333333  0.500000  0.125000     12.000000
 -0.333333 -0.333333  0.125000      2.000000
  0.000000  0.000000  0.250000      2.000000
  0.166667  0.000000  0.250000     12.000000
  0.333333  0.000000  0.250000     12.000000
  0.500000  0.000000  0.250000      6.000000
  0.166667  0.166667  0.250000      6.000000
  0.333333  0.166667  0.250000     12.000000
  0.333333  0.333333  0.250000      2.000000
 -0.166667  0.333333  0.250000      6.000000
 -0.333333  0.500000  0.250000     12.000000
 -0.333333 -0.333333  0.250000      2.000000
  0.000000  0.000000  0.375000      2.000000
  0.166667  0.000000  0.375000     12.000000
  0.333333  0.000000  0.375000     12.000000
  0.500000  0.000000  0.375000      6.000000
  0.166667  0.166667  0.375000      6.000000
  0.333333  0.166667  0.375000     12.000000
  0.333333  0.333333  0.375000      2.000000
 -0.166667  0.333333  0.375000      6.000000
 -0.333333  0.500000  0.375000     12.000000
 -0.333333 -0.333333  0.375000      2.000000
  0.000000  0.000000  0.500000      1.000000
  0.166667  0.000000  0.500000      6.000000
  0.333333  0.000000  0.500000      6.000000
  0.500000  0.000000  0.500000      3.000000
  0.166667  0.166667  0.500000      6.000000
  0.333333  0.166667  0.500000     12.000000
  0.333333  0.333333  0.500000      2.000000
 
 Following cartesian coordinates:
            Coordinates               Weight
  0.000000  0.000000  0.000000      1.000000
  0.019127 -0.011043  0.000000      6.000000
  0.038253 -0.022085  0.000000      6.000000
  0.057380 -0.033128  0.000000      3.000000
  0.038253  0.000000  0.000000      6.000000
  0.057380 -0.011043  0.000000     12.000000
  0.076506  0.000000  0.000000      2.000000
  0.000000  0.000000  0.022388      2.000000
  0.019127 -0.011043  0.022388     12.000000
  0.038253 -0.022085  0.022388     12.000000
  0.057380 -0.033128  0.022388      6.000000
  0.038253  0.000000  0.022388      6.000000
  0.057380 -0.011043  0.022388     12.000000
  0.076506  0.000000  0.022388      2.000000
  0.019127  0.033128  0.022388      6.000000
  0.019127  0.055214  0.022388     12.000000
 -0.076506  0.000000  0.022388      2.000000
  0.000000  0.000000  0.044775      2.000000
  0.019127 -0.011043  0.044775     12.000000
  0.038253 -0.022085  0.044775     12.000000
  0.057380 -0.033128  0.044775      6.000000
  0.038253  0.000000  0.044775      6.000000
  0.057380 -0.011043  0.044775     12.000000
  0.076506  0.000000  0.044775      2.000000
  0.019127  0.033128  0.044775      6.000000
  0.019127  0.055214  0.044775     12.000000
 -0.076506  0.000000  0.044775      2.000000
  0.000000  0.000000  0.067163      2.000000
  0.019127 -0.011043  0.067163     12.000000
  0.038253 -0.022085  0.067163     12.000000
  0.057380 -0.033128  0.067163      6.000000
  0.038253  0.000000  0.067163      6.000000
  0.057380 -0.011043  0.067163     12.000000
  0.076506  0.000000  0.067163      2.000000
  0.019127  0.033128  0.067163      6.000000
  0.019127  0.055214  0.067163     12.000000
 -0.076506  0.000000  0.067163      2.000000
  0.000000  0.000000  0.089551      1.000000
  0.019127 -0.011043  0.089551      6.000000
  0.038253 -0.022085  0.089551      6.000000
  0.057380 -0.033128  0.089551      3.000000
  0.038253  0.000000  0.089551      6.000000
  0.057380 -0.011043  0.089551     12.000000
  0.076506  0.000000  0.089551      2.000000
 


--------------------------------------------------------------------------------------------------------




 Dimension of arrays:
   k-points           NKPTS =     44   k-points in BZ     NKDIM =     44   number of bands    NBANDS=     80
   number of dos      NEDOS =    301   number of ions     NIONS =     28
   non local maximal  LDIM  =      4   non local SUM 2l+1 LMDIM =      8
   total plane-waves  NPLWV = 129600
   max r-space proj   IRMAX =   7287   max aug-charges    IRDMAX=  12000
   dimension x,y,z NGX =    60 NGY =   60 NGZ =   36
   dimension x,y,z NGXF=   120 NGYF=  120 NGZF=   72
   support grid    NGXF=   120 NGYF=  120 NGZF=   72
   ions per type =              12  16
   NGX,Y,Z   is equivalent  to a cutoff of  11.45, 11.45, 10.72 a.u.
   NGXF,Y,Z  is equivalent  to a cutoff of  22.89, 22.89, 21.44 a.u.

 SYSTEM =  unknown system                          
 POSCAR =  Si12 N16                                

 Startparameter for this run:
   NWRITE =      2    write-flag & timer
   PREC   = accura    normal or accurate (medium, high low for compatibility)
   ISTART =      0    job   : 0-new  1-cont  2-samecut
   ICHARG =      2    charge: 1-file 2-atom 10-const
   ISPIN  =      1    spin polarized calculation?
   LNONCOLLINEAR =      F non collinear calculations
   LSORBIT =      F    spin-orbit coupling
   INIWAV =      1    electr: 0-lowe 1-rand  2-diag
   LASPH  =      F    aspherical Exc in radial PAW
   METAGGA=      F    non-selfconsistent MetaGGA calc.

 Electronic Relaxation 1
   ENCUT  =  400.0 eV  29.40 Ry    5.42 a.u.  14.21 14.21  9.11*2*pi/ulx,y,z
   ENINI  =  400.0     initial cutoff
   ENAUG  =  627.1 eV  augmentation charge cutoff
   NELM   =     60;   NELMIN=  2; NELMDL= -5     # of ELM steps 
   EDIFF  = 0.1E-03   stopping-criterion for ELM
   LREAL  =      T    real-space projection
   NLSPLINE    = F    spline interpolate recip. space projectors
   LCOMPAT=      F    compatible to vasp.4.4
   GGA_COMPAT  = T    GGA compatible to vasp.4.4-vasp.4.6
   LMAXPAW     = -100 max onsite density
   LMAXMIX     =    2 max onsite mixed and CHGCAR
   VOSKOWN=      0    Vosko Wilk Nusair interpolation
   ROPT   =   -0.00025  -0.00025
 Ionic relaxation
   EDIFFG = 0.1E-02   stopping-criterion for IOM
   NSW    =    100    number of steps for IOM
   NBLOCK =      1;   KBLOCK =    100    inner block; outer block 
   IBRION =      2    ionic relax: 0-MD 1-quasi-New 2-CG
   NFREE  =      1    steps in history (QN), initial steepest desc. (CG)
   ISIF   =      2    stress and relaxation
   IWAVPR =     11    prediction:  0-non 1-charg 2-wave 3-comb
   ISYM   =      2    0-nonsym 1-usesym 2-fastsym
   LCORR  =      T    Harris-Foulkes like correction to forces

   POTIM  = 0.5000    time-step for ionic-motion
   TEIN   =    0.0    initial temperature
   TEBEG  =    0.0;   TEEND  =   0.0 temperature during run
   SMASS  =  -3.00    Nose mass-parameter (am)
   estimated Nose-frequenzy (Omega)   =  0.10E-29 period in steps =****** mass=  -0.174E-26a.u.
   SCALEE = 1.0000    scale energy and forces
   NPACO  =    256;   APACO  = 16.0  distance and # of slots for P.C.
   PSTRESS=    0.0 pullay stress

  Mass of Ions in am
   POMASS =  14.00 28.09
  Ionic Valenz
   ZVAL   =   5.00  4.00
  Atomic Wigner-Seitz radii
   RWIGS  =  -1.00 -1.00
  virtual crystal weights 
   VCA    =   1.00  1.00
   NELECT =     124.0000    total number of electrons
   NUPDOWN=      -1.0000    fix difference up-down

 DOS related values:
   EMIN   =  10.00;   EMAX   =-10.00  energy-range for DOS
   EFERMI =   0.00
   ISMEAR =     2;   SIGMA  =   0.10  broadening in eV -4-tet -1-fermi 0-gaus

 Electronic relaxation 2 (details)
   IALGO  =     68    algorithm
   LDIAG  =      T    sub-space diagonalisation (order eigenvalues)
   LSUBROT=      F    optimize rotation matrix (better conditioning)
   TURBO    =      0    0=normal 1=particle mesh
   IRESTART =      0    0=no restart 2=restart with 2 vectors
   NREBOOT  =      0    no. of reboots
   NMIN     =      0    reboot dimension
   EREF     =   0.00    reference energy to select bands
   IMIX   =      4    mixing-type and parameters
     AMIX     =   0.40;   BMIX     =  1.00
     AMIX_MAG =   1.60;   BMIX_MAG =  1.00
     AMIN     =   0.10
     WC   =   100.;   INIMIX=   1;  MIXPRE=   1;  MAXMIX= -45

 Intra band minimization:
   WEIMIN = 0.0010     energy-eigenvalue tresh-hold
   EBREAK =  0.31E-06  absolut break condition
   DEPER  =   0.30     relativ break condition  

   TIME   =   0.40     timestep for ELM

  volume/ion in A,a.u.               =      13.11        88.49
  Fermi-wavevector in a.u.,A,eV,Ry     =   1.140066  2.154413 17.684184  1.299751
  Thomas-Fermi vector in A             =   2.276769
 
 Write flags
   LWAVE        =      F    write WAVECAR
   LDOWNSAMPLE  =      F    k-point downsampling of WAVECAR
   LCHARG       =      F    write CHGCAR
   LVTOT        =      F    write LOCPOT, total local potential
   LVHAR        =      F    write LOCPOT, Hartree potential only
   LELF         =      F    write electronic localiz. function (ELF)
   LORBIT       =      0    0 simple, 1 ext, 2 COOP (PROOUT), +10 PAW based schemes


 Dipole corrections
   LMONO  =      F    monopole corrections only (constant potential shift)
   LDIPOL =      F    correct potential (dipole corrections)
   IDIPOL =      0    1-x, 2-y, 3-z, 4-all directions 
   EPSILON=  1.0000000 bulk dielectric constant

 Exchange correlation treatment:
   GGA     =    --    GGA type
   LEXCH   =     8    internal setting for exchange type
   VOSKOWN=      0    Vosko Wilk Nusair interpolation
   LHFCALC =     F    Hartree Fock is set to
   LHFONE  =     F    Hartree Fock one center treatment
   AEXX    =    0.0000 exact exchange contribution

 Linear response parameters
   LEPSILON=     F    determine dielectric tensor
   LRPA    =     F    only Hartree local field effects (RPA)
   LNABLA  =     F    use nabla operator in PAW spheres
   LVEL    =     F    velocity operator in full k-point grid
   LINTERFAST=   F  fast interpolation
   KINTER  =     0    interpolate to denser k-point grid
   CSHIFT  =0.1000    complex shift for real part using Kramers Kronig
   OMEGAMAX=  -1.0    maximum frequency
   DEG_THRESHOLD= 0.2000000E-02 threshold for treating states as degnerate
   RTIME   =   -0.100 relaxation time in fs
  (WPLASMAI=    0.000 imaginary part of plasma frequency in eV, 0.658/RTIME)
   DFIELD  = 0.0000000 0.0000000 0.0000000 field for delta impulse in time
 
 Orbital magnetization related:
   ORBITALMAG=     F  switch on orbital magnetization
   LCHIMAG   =     F  perturbation theory with respect to B field
   DQ        =  0.001000  dq finite difference perturbation B field
   LLRAUG    =     F  two centre corrections for induced B field



--------------------------------------------------------------------------------------------------------


 conjugate gradient relaxation of ions
 charge density and potential will be updated during run
 non-spin polarized calculation
 RMM-DIIS sequential band-by-band and
  variant of blocked Davidson during initial phase
 perform sub-space diagonalisation
    before iterative eigenvector-optimisation
 modified Broyden-mixing scheme, WC =      100.0
 initial mixing is a Kerker type mixing with AMIX =  0.4000 and BMIX =      1.0000
 Hartree-type preconditioning will be used
 using additional bands           18
 real space projection scheme for non local part
 use partial core corrections
 calculate Harris-corrections to forces 
   (improved forces if not selfconsistent)
 use gradient corrections 
 use of overlap-Matrix (Vanderbilt PP)
 Methfessel and Paxton  Order N= 2 SIGMA  =   0.10


--------------------------------------------------------------------------------------------------------


  energy-cutoff  :      400.00
  volume of cell :      367.16
      direct lattice vectors                 reciprocal lattice vectors
     4.356946888 -7.546453377  0.000000000     0.114759260 -0.066256290  0.000000000
     4.356946888  7.546453377  0.000000000     0.114759260  0.066256290  0.000000000
     0.000000000  0.000000000  5.583427291     0.000000000  0.000000000  0.179101464

  length of vectors
     8.713893777  8.713893777  5.583427291     0.132512579  0.132512579  0.179101464


 
 k-points in units of 2pi/SCALE and weight: Automatic mesh                          
   0.00000000  0.00000000  0.00000000       0.003
   0.01912654 -0.01104271  0.00000000       0.021
   0.03825309 -0.02208543  0.00000000       0.021
   0.05737963 -0.03312814  0.00000000       0.010
   0.03825309  0.00000000  0.00000000       0.021
   0.05737963 -0.01104271  0.00000000       0.042
   0.07650617 -0.00000000  0.00000000       0.007
   0.00000000  0.00000000  0.02238768       0.007
   0.01912654 -0.01104271  0.02238768       0.042
   0.03825309 -0.02208543  0.02238768       0.042
   0.05737963 -0.03312814  0.02238768       0.021
   0.03825309  0.00000000  0.02238768       0.021
   0.05737963 -0.01104271  0.02238768       0.042
   0.07650617 -0.00000000  0.02238768       0.007
   0.01912654  0.03312814  0.02238768       0.021
   0.01912654  0.05521357  0.02238768       0.042
  -0.07650617 -0.00000000  0.02238768       0.007
   0.00000000  0.00000000  0.04477537       0.007
   0.01912654 -0.01104271  0.04477537       0.042
   0.03825309 -0.02208543  0.04477537       0.042
   0.05737963 -0.03312814  0.04477537       0.021
   0.03825309  0.00000000  0.04477537       0.021
   0.05737963 -0.01104271  0.04477537       0.042
   0.07650617 -0.00000000  0.04477537       0.007
   0.01912654  0.03312814  0.04477537       0.021
   0.01912654  0.05521357  0.04477537       0.042
  -0.07650617 -0.00000000  0.04477537       0.007
   0.00000000  0.00000000  0.06716305       0.007
   0.01912654 -0.01104271  0.06716305       0.042
   0.03825309 -0.02208543  0.06716305       0.042
   0.05737963 -0.03312814  0.06716305       0.021
   0.03825309  0.00000000  0.06716305       0.021
   0.05737963 -0.01104271  0.06716305       0.042
   0.07650617 -0.00000000  0.06716305       0.007
   0.01912654  0.03312814  0.06716305       0.021
   0.01912654  0.05521357  0.06716305       0.042
  -0.07650617 -0.00000000  0.06716305       0.007
   0.00000000  0.00000000  0.08955073       0.003
   0.01912654 -0.01104271  0.08955073       0.021
   0.03825309 -0.02208543  0.08955073       0.021
   0.05737963 -0.03312814  0.08955073       0.010
   0.03825309  0.00000000  0.08955073       0.021
   0.05737963 -0.01104271  0.08955073       0.042
   0.07650617 -0.00000000  0.08955073       0.007
 
 k-points in reciprocal lattice and weights: Automatic mesh                          
   0.00000000  0.00000000  0.00000000       0.003
   0.16666667  0.00000000  0.00000000       0.021
   0.33333333  0.00000000  0.00000000       0.021
   0.50000000  0.00000000  0.00000000       0.010
   0.16666667  0.16666667  0.00000000       0.021
   0.33333333  0.16666667  0.00000000       0.042
   0.33333333  0.33333333  0.00000000       0.007
   0.00000000  0.00000000  0.12500000       0.007
   0.16666667  0.00000000  0.12500000       0.042
   0.33333333  0.00000000  0.12500000       0.042
   0.50000000  0.00000000  0.12500000       0.021
   0.16666667  0.16666667  0.12500000       0.021
   0.33333333  0.16666667  0.12500000       0.042
   0.33333333  0.33333333  0.12500000       0.007
  -0.16666667  0.33333333  0.12500000       0.021
  -0.33333333  0.50000000  0.12500000       0.042
  -0.33333333 -0.33333333  0.12500000       0.007
   0.00000000  0.00000000  0.25000000       0.007
   0.16666667  0.00000000  0.25000000       0.042
   0.33333333  0.00000000  0.25000000       0.042
   0.50000000  0.00000000  0.25000000       0.021
   0.16666667  0.16666667  0.25000000       0.021
   0.33333333  0.16666667  0.25000000       0.042
   0.33333333  0.33333333  0.25000000       0.007
  -0.16666667  0.33333333  0.25000000       0.021
  -0.33333333  0.50000000  0.25000000       0.042
  -0.33333333 -0.33333333  0.25000000       0.007
   0.00000000  0.00000000  0.37500000       0.007
   0.16666667  0.00000000  0.37500000       0.042
   0.33333333  0.00000000  0.37500000       0.042
   0.50000000  0.00000000  0.37500000       0.021
   0.16666667  0.16666667  0.37500000       0.021
   0.33333333  0.16666667  0.37500000       0.042
   0.33333333  0.33333333  0.37500000       0.007
  -0.16666667  0.33333333  0.37500000       0.021
  -0.33333333  0.50000000  0.37500000       0.042
  -0.33333333 -0.33333333  0.37500000       0.007
   0.00000000  0.00000000  0.50000000       0.003
   0.16666667  0.00000000  0.50000000       0.021
   0.33333333  0.00000000  0.50000000       0.021
   0.50000000  0.00000000  0.50000000       0.010
   0.16666667  0.16666667  0.50000000       0.021
   0.33333333  0.16666667  0.50000000       0.042
   0.33333333  0.33333333  0.50000000       0.007
 
 position of ions in fractional coordinates (direct lattice) 
   0.00847736  0.64712623  0.21326215
   0.63864887  0.99152264  0.21326215
   0.91417805  0.32157747  0.99187268
   0.64712623  0.00847736  0.71326215
   0.08582195  0.40739942  0.49187268
   0.32157747  0.91417805  0.49187268
   0.35287377  0.36135113  0.21326215
   0.59260058  0.67842253  0.49187268
   0.99152264  0.63864887  0.71326215
   0.36135113  0.35287377  0.71326215
   0.67842253  0.59260058  0.99187268
   0.40739942  0.08582195  0.99187268
   0.21311138  0.30040483  0.46674092
   0.08729345  0.78688862  0.46674092
   0.30040483  0.21311138  0.96674092
   0.69959517  0.91270655  0.46674092
   0.00000000  0.00000000  0.95692726
   0.06686359  0.48449764  0.78259872
   0.00000000  0.00000000  0.45692726
   0.66666667  0.33333333  0.47577702
   0.58236595  0.51550236  0.28259872
   0.78688862  0.08729345  0.96674092
   0.91270655  0.69959517  0.96674092
   0.33333333  0.66666667  0.97577702
   0.93313641  0.41763405  0.28259872
   0.41763405  0.93313641  0.78259872
   0.51550236  0.58236595  0.78259872
   0.48449764  0.06686359  0.28259872
 
 position of ions in cartesian coordinates  (Angst):
   2.85643003  4.81953394  1.19073371
   7.10257070  2.66294544  1.19073371
   5.38412119 -4.47203268  5.53804898
   2.85643003 -4.81953394  3.98244736
   2.14893928  2.42676939  2.74633533
   5.38412119  4.47203268  2.74633533
   3.11183994  0.06397400  1.19073371
   5.53778020  0.64765131  2.74633533
   7.10257070 -2.66294544  3.98244736
   3.11183994 -0.06397400  3.98244736
   5.53778020 -0.64765131  5.53804898
   2.14893928 -2.42676939  5.53804898
   2.23736284  0.65875593  2.60601396
   3.80876483  5.27946235  2.60601396
   2.23736284 -0.65875593  5.39772761
   7.02471299  1.60823510  2.60601396
   0.00000000  0.00000000  5.34293378
   2.40225157  3.15165585  4.36958307
   0.00000000  0.00000000  2.55122014
   4.35694689 -2.51548446  2.65646638
   4.78335396 -0.50458296  1.57786943
   3.80876483 -5.27946235  5.39772761
   7.02471299 -1.60823510  5.39772761
   4.35694689  2.51548446  5.44818002
   5.88523513 -3.89021456  1.57786943
   5.88523513  3.89021456  4.36958307
   4.78335396  0.50458296  4.36958307
   2.40225157 -3.15165585  1.57786943
 


--------------------------------------------------------------------------------------------------------


 k-point  1 :   0.0000 0.0000 0.0000  plane waves:    6661
 k-point  2 :   0.1667 0.0000 0.0000  plane waves:    6627
 k-point  3 :   0.3333 0.0000 0.0000  plane waves:    6670
 k-point  4 :   0.5000 0.0000 0.0000  plane waves:    6658
 k-point  5 :   0.1667 0.1667 0.0000  plane waves:    6662
 k-point  6 :   0.3333 0.1667 0.0000  plane waves:    6677
 k-point  7 :   0.3333 0.3333 0.0000  plane waves:    6690
 k-point  8 :   0.0000 0.0000 0.1250  plane waves:    6672
 k-point  9 :   0.1667 0.0000 0.1250  plane waves:    6658
 k-point 10 :   0.3333 0.0000 0.1250  plane waves:    6661
 k-point 11 :   0.5000 0.0000 0.1250  plane waves:    6664
 k-point 12 :   0.1667 0.1667 0.1250  plane waves:    6655
 k-point 13 :   0.3333 0.1667 0.1250  plane waves:    6660
 k-point 14 :   0.3333 0.3333 0.1250  plane waves:    6675
 k-point 15 :  -0.1667 0.3333 0.1250  plane waves:    6655
 k-point 16 :  -0.3333 0.5000 0.1250  plane waves:    6660
 k-point 17 :  -0.3333-0.3333 0.1250  plane waves:    6675
 k-point 18 :   0.0000 0.0000 0.2500  plane waves:    6672
 k-point 19 :   0.1667 0.0000 0.2500  plane waves:    6677
 k-point 20 :   0.3333 0.0000 0.2500  plane waves:    6678
 k-point 21 :   0.5000 0.0000 0.2500  plane waves:    6666
 k-point 22 :   0.1667 0.1667 0.2500  plane waves:    6674
 k-point 23 :   0.3333 0.1667 0.2500  plane waves:    6676
 k-point 24 :   0.3333 0.3333 0.2500  plane waves:    6651
 k-point 25 :  -0.1667 0.3333 0.2500  plane waves:    6674
 k-point 26 :  -0.3333 0.5000 0.2500  plane waves:    6676
 k-point 27 :  -0.3333-0.3333 0.2500  plane waves:    6651
 k-point 28 :   0.0000 0.0000 0.3750  plane waves:    6696
 k-point 29 :   0.1667 0.0000 0.3750  plane waves:    6681
 k-point 30 :   0.3333 0.0000 0.3750  plane waves:    6667
 k-point 31 :   0.5000 0.0000 0.3750  plane waves:    6666
 k-point 32 :   0.1667 0.1667 0.3750  plane waves:    6685
 k-point 33 :   0.3333 0.1667 0.3750  plane waves:    6679
 k-point 34 :   0.3333 0.3333 0.3750  plane waves:    6681
 k-point 35 :  -0.1667 0.3333 0.3750  plane waves:    6685
 k-point 36 :  -0.3333 0.5000 0.3750  plane waves:    6679
 k-point 37 :  -0.3333-0.3333 0.3750  plane waves:    6681
 k-point 38 :   0.0000 0.0000 0.5000  plane waves:    6690
 k-point 39 :   0.1667 0.0000 0.5000  plane waves:    6660
 k-point 40 :   0.3333 0.0000 0.5000  plane waves:    6666
 k-point 41 :   0.5000 0.0000 0.5000  plane waves:    6704
 k-point 42 :   0.1667 0.1667 0.5000  plane waves:    6678
 k-point 43 :   0.3333 0.1667 0.5000  plane waves:    6678
 k-point 44 :   0.3333 0.3333 0.5000  plane waves:    6666

 maximum and minimum number of plane-waves per node :      1694     1641

 maximum number of plane-waves:      6704
 maximum index in each direction: 
   IXMAX=   14   IYMAX=   14   IZMAX=    9
   IXMIN=  -14   IYMIN=  -14   IZMIN=   -9


 real space projection operators:
  total allocation   :       9032.50 KBytes
  max/ min on nodes  :       2260.62       2254.38


 parallel 3D FFT for wavefunctions:
    minimum data exchange during FFTs selected (reduces bandwidth)
 parallel 3D FFT for charge:
    minimum data exchange during FFTs selected (reduces bandwidth)


 total amount of memory used by VASP MPI-rank0    69493. kBytes
=======================================================================

   base      :      30000. kBytes
   nonlr-proj:       6239. kBytes
   fftplans  :       3308. kBytes
   grid      :       5257. kBytes
   one-center:         21. kBytes
   wavefun   :      24668. kBytes
 
     INWAV:  cpu time    0.0001: real time    0.0001
 Broyden mixing: mesh for mixing (old mesh)
   NGX = 29   NGY = 29   NGZ = 19
  (NGX  =120   NGY  =120   NGZ  = 72)
  gives a total of  15979 points

 initial charge density was supplied:
 charge density of overlapping atoms calculated
 number of electron     124.0000000 magnetization 
 keeping initial charge density in first step


--------------------------------------------------------------------------------------------------------


 Maximum index for non-local projection operator         1769
 Maximum index for augmentation-charges          976 (set IRDMAX)


--------------------------------------------------------------------------------------------------------


 First call to EWALD:  gamma=   0.248
 Maximum number of real-space cells 3x 3x 3
 Maximum number of reciprocal cells 3x 3x 2

    FEWALD:  cpu time    0.0031: real time    0.0032


--------------------------------------- Iteration      1(   1)  ---------------------------------------


    POTLOK:  cpu time    0.5301: real time    0.5315
    SETDIJ:  cpu time    0.0055: real time    0.0055
     EDDAV:  cpu time   11.0274: real time   11.2879
       DOS:  cpu time    0.0033: real time    0.0033
    --------------------------------------------
      LOOP:  cpu time   11.5663: real time   11.8282

 eigenvalue-minimisations  :  7040
 total energy-change (2. order) : 0.4698946E+03  (-0.4906919E+04)
 number of electron     124.0000000 magnetization 
 augmentation part      124.0000000 magnetization 

 Free energy of the ion-electron system (eV)
  ---------------------------------------------------
  alpha Z        PSCENC =       132.80870079
  Ewald energy   TEWEN  =     -4157.87301349
  -Hartree energ DENC   =     -1097.26875333
  -exchange      EXHF   =         0.00000000
  -V(xc)+E(xc)   XCENC  =        95.26663660
  PAW double counting   =      3869.17357318    -3601.97287308
  entropy T*S    EENTRO =        -0.00085226
  eigenvalues    EBANDS =       407.00916754
  atomic energy  EATOM  =      4822.75196862
  Solvation  Ediel_sol  =         0.00000000
  ---------------------------------------------------
  free energy    TOTEN  =       469.89455457 eV

  energy without entropy =      469.89540682  energy(sigma->0) =      469.89476763


--------------------------------------------------------------------------------------------------------




--------------------------------------- Iteration      1(   2)  ---------------------------------------


     EDDAV:  cpu time   11.5620: real time   11.5653
       DOS:  cpu time    0.0037: real time    0.0037
    --------------------------------------------
      LOOP:  cpu time   11.5657: real time   11.5690

 eigenvalue-minimisations  :  8816
 total energy-change (2. order) :-0.6405254E+03  (-0.6135573E+03)
 number of electron     124.0000000 magnetization 
 augmentation part      124.0000000 magnetization 

 Free energy of the ion-electron system (eV)
  ---------------------------------------------------
  alpha Z        PSCENC =       132.80870079
  Ewald energy   TEWEN  =     -4157.87301349
  -Hartree energ DENC   =     -1097.26875333
  -exchange      EXHF   =         0.00000000
  -V(xc)+E(xc)   XCENC  =        95.26663660
  PAW double counting   =      3869.17357318    -3601.97287308
  entropy T*S    EENTRO =        -0.00079322
  eigenvalues    EBANDS =      -233.51632459
  atomic energy  EATOM  =      4822.75196862
  Solvation  Ediel_sol  =         0.00000000
  ---------------------------------------------------
  free energy    TOTEN  =      -170.63087852 eV

  energy without entropy =     -170.63008531  energy(sigma->0) =     -170.63068022


--------------------------------------------------------------------------------------------------------




--------------------------------------- Iteration      1(   3)  ---------------------------------------


     EDDAV:  cpu time   10.6826: real time   10.6830
       DOS:  cpu time    0.0041: real time    0.0041
    --------------------------------------------
      LOOP:  cpu time   10.6867: real time   10.6871

 eigenvalue-minimisations  :  8440
 total energy-change (2. order) :-0.5316527E+02  (-0.5268937E+02)
 number of electron     124.0000000 magnetization 
 augmentation part      124.0000000 magnetization 

 Free energy of the ion-electron system (eV)
  ---------------------------------------------------
  alpha Z        PSCENC =       132.80870079
  Ewald energy   TEWEN  =     -4157.87301349
  -Hartree energ DENC   =     -1097.26875333
  -exchange      EXHF   =         0.00000000
  -V(xc)+E(xc)   XCENC  =        95.26663660
  PAW double counting   =      3869.17357318    -3601.97287308
  entropy T*S    EENTRO =        -0.02351348
  eigenvalues    EBANDS =      -286.65887870
  atomic energy  EATOM  =      4822.75196862
  Solvation  Ediel_sol  =         0.00000000
  ---------------------------------------------------
  free energy    TOTEN  =      -223.79615289 eV

  energy without entropy =     -223.77263941  energy(sigma->0) =     -223.79027452


--------------------------------------------------------------------------------------------------------




--------------------------------------- Iteration      1(   4)  ---------------------------------------


     EDDAV:  cpu time   11.7268: real time   11.7309
       DOS:  cpu time    0.0040: real time    0.0040
    --------------------------------------------
      LOOP:  cpu time   11.7308: real time   11.7348

 eigenvalue-minimisations  :  8864
 total energy-change (2. order) :-0.1339902E+01  (-0.1332513E+01)
 number of electron     124.0000000 magnetization 
 augmentation part      124.0000000 magnetization 

 Free energy of the ion-electron system (eV)
  ---------------------------------------------------
  alpha Z        PSCENC =       132.80870079
  Ewald energy   TEWEN  =     -4157.87301349
  -Hartree energ DENC   =     -1097.26875333
  -exchange      EXHF   =         0.00000000
  -V(xc)+E(xc)   XCENC  =        95.26663660
  PAW double counting   =      3869.17357318    -3601.97287308
  entropy T*S    EENTRO =        -0.02730714
  eigenvalues    EBANDS =      -287.99498732
  atomic energy  EATOM  =      4822.75196862
  Solvation  Ediel_sol  =         0.00000000
  ---------------------------------------------------
  free energy    TOTEN  =      -225.13605518 eV

  energy without entropy =     -225.10874804  energy(sigma->0) =     -225.12922839


--------------------------------------------------------------------------------------------------------




--------------------------------------- Iteration      1(   5)  ---------------------------------------


     EDDAV:  cpu time   10.9964: real time   11.0021
       DOS:  cpu time    0.0040: real time    0.0040
    CHARGE:  cpu time    0.3939: real time    0.3940
    MIXING:  cpu time    0.0017: real time    0.0032
    --------------------------------------------
      LOOP:  cpu time   11.3960: real time   11.4033

 eigenvalue-minimisations  :  8608
 total energy-change (2. order) :-0.3329136E-01  (-0.3324245E-01)
 number of electron     123.9999973 magnetization 
 augmentation part        0.8634222 magnetization 

 Broyden mixing:
  rms(total) = 0.34232E+01    rms(broyden)= 0.34222E+01
  rms(prec ) = 0.49051E+01
  weight for this iteration     100.00

 Free energy of the ion-electron system (eV)
  ---------------------------------------------------
  alpha Z        PSCENC =       132.80870079
  Ewald energy   TEWEN  =     -4157.87301349
  -Hartree energ DENC   =     -1097.26875333
  -exchange      EXHF   =         0.00000000
  -V(xc)+E(xc)   XCENC  =        95.26663660
  PAW double counting   =      3869.17357318    -3601.97287308
  entropy T*S    EENTRO =        -0.02729621
  eigenvalues    EBANDS =      -288.02828962
  atomic energy  EATOM  =      4822.75196862
  Solvation  Ediel_sol  =         0.00000000
  ---------------------------------------------------
  free energy    TOTEN  =      -225.16934655 eV

  energy without entropy =     -225.14205033  energy(sigma->0) =     -225.16252249


--------------------------------------------------------------------------------------------------------




--------------------------------------- Iteration      1(   6)  ---------------------------------------


    POTLOK:  cpu time    0.0560: real time    0.0574
    SETDIJ:  cpu time    0.0054: real time    0.0054
    EDDIAG:  cpu time    1.2115: real time    1.2115
  RMM-DIIS:  cpu time    6.2102: real time    6.2098
    ORTHCH:  cpu time    0.1218: real time    0.1217
       DOS:  cpu time    0.0042: real time    0.0042
    CHARGE:  cpu time    0.3998: real time    0.3998
    MIXING:  cpu time    0.0020: real time    0.0020
    --------------------------------------------
      LOOP:  cpu time    8.0109: real time    8.0119

 eigenvalue-minimisations  :  7055
 total energy-change (2. order) : 0.2283320E+02  (-0.1122877E+02)
 number of electron     123.9999979 magnetization 
 augmentation part       -0.6088694 magnetization 

 Broyden mixing:
  rms(total) = 0.15145E+01    rms(broyden)= 0.15139E+01
  rms(prec ) = 0.17105E+01
  weight for this iteration     100.00

 eigenvalues of (default mixing * dielectric matrix)
  average eigenvalue GAMMA=   1.0766
  1.0766

 Free energy of the ion-electron system (eV)
  ---------------------------------------------------
  alpha Z        PSCENC =       132.80870079
  Ewald energy   TEWEN  =     -4157.87301349
  -Hartree energ DENC   =     -1284.07477809
  -exchange      EXHF   =         0.00000000
  -V(xc)+E(xc)   XCENC  =       108.31927623
  PAW double counting   =      7729.29235706    -7464.39012807
  entropy T*S    EENTRO =        -0.00359319
  eigenvalues    EBANDS =       -89.16693981
  atomic energy  EATOM  =      4822.75196862
  Solvation  Ediel_sol  =         0.00000000
  ---------------------------------------------------
  free energy    TOTEN  =      -202.33614995 eV

  energy without entropy =     -202.33255676  energy(sigma->0) =     -202.33525165


--------------------------------------------------------------------------------------------------------




--------------------------------------- Iteration      1(   7)  ---------------------------------------


    POTLOK:  cpu time    0.0527: real time    0.0547
    SETDIJ:  cpu time    0.0055: real time    0.0055
    EDDIAG:  cpu time    1.2183: real time    1.2188
  RMM-DIIS:  cpu time    7.0235: real time    7.0264
    ORTHCH:  cpu time    0.1235: real time    0.1236
       DOS:  cpu time    0.0043: real time    0.0043
    CHARGE:  cpu time    0.3997: real time    0.3998
    MIXING:  cpu time    0.0016: real time    0.0016
    --------------------------------------------
      LOOP:  cpu time    8.8290: real time    8.8347

 eigenvalue-minimisations  :  7403
 total energy-change (2. order) : 0.3873534E+00  (-0.4006309E+00)
 number of electron     123.9999980 magnetization 
 augmentation part       -0.7291638 magnetization 

 Broyden mixing:
  rms(total) = 0.85372E+00    rms(broyden)= 0.85364E+00
  rms(prec ) = 0.98063E+00
  weight for this iteration     100.00

 eigenvalues of (default mixing * dielectric matrix)
  average eigenvalue GAMMA=   1.6007
  1.1218  2.0796

 Free energy of the ion-electron system (eV)
  ---------------------------------------------------
  alpha Z        PSCENC =       132.80870079
  Ewald energy   TEWEN  =     -4157.87301349
  -Hartree energ DENC   =     -1296.59082254
  -exchange      EXHF   =         0.00000000
  -V(xc)+E(xc)   XCENC  =       109.98202687
  PAW double counting   =     11041.36259807   -10777.28364634
  entropy T*S    EENTRO =        -0.00934681
  eigenvalues    EBANDS =       -77.09726177
  atomic energy  EATOM  =      4822.75196862
  Solvation  Ediel_sol  =         0.00000000
  ---------------------------------------------------
  free energy    TOTEN  =      -201.94879659 eV

  energy without entropy =     -201.93944978  energy(sigma->0) =     -201.94645989


--------------------------------------------------------------------------------------------------------




--------------------------------------- Iteration      1(   8)  ---------------------------------------


    POTLOK:  cpu time    0.0607: real time    0.0608
    SETDIJ:  cpu time    0.0053: real time    0.0053
    EDDIAG:  cpu time    1.2186: real time    1.2191
  RMM-DIIS:  cpu time    6.2831: real time    6.2860
    ORTHCH:  cpu time    0.1175: real time    0.1176
       DOS:  cpu time    0.0038: real time    0.0038
    CHARGE:  cpu time    0.3766: real time    0.3767
    MIXING:  cpu time    0.0014: real time    0.0014
    --------------------------------------------
      LOOP:  cpu time    8.0670: real time    8.0706

 eigenvalue-minimisations  :  7040
 total energy-change (2. order) : 0.1418661E+00  (-0.1349119E+00)
 number of electron     123.9999980 magnetization 
 augmentation part       -0.6235793 magnetization 

 Broyden mixing:
  rms(total) = 0.16795E+00    rms(broyden)= 0.16793E+00
  rms(prec ) = 0.30649E+00
  weight for this iteration     100.00

 eigenvalues of (default mixing * dielectric matrix)
  average eigenvalue GAMMA=   1.3948
  2.2833  0.9506  0.9506

 Free energy of the ion-electron system (eV)
  ---------------------------------------------------
  alpha Z        PSCENC =       132.80870079
  Ewald energy   TEWEN  =     -4157.87301349
  -Hartree energ DENC   =     -1293.44778299
  -exchange      EXHF   =         0.00000000
  -V(xc)+E(xc)   XCENC  =       110.76697995
  PAW double counting   =     14889.67410487   -14626.34355307
  entropy T*S    EENTRO =        -0.00476844
  eigenvalues    EBANDS =       -80.13956670
  atomic energy  EATOM  =      4822.75196862
  Solvation  Ediel_sol  =         0.00000000
  ---------------------------------------------------
  free energy    TOTEN  =      -201.80693046 eV

  energy without entropy =     -201.80216202  energy(sigma->0) =     -201.80573835


--------------------------------------------------------------------------------------------------------




--------------------------------------- Iteration      1(   9)  ---------------------------------------


    POTLOK:  cpu time    0.0446: real time    0.0448
    SETDIJ:  cpu time    0.0052: real time    0.0052
    EDDIAG:  cpu time    1.1960: real time    1.1966
  RMM-DIIS:  cpu time    6.1512: real time    6.1543
    ORTHCH:  cpu time    0.1228: real time    0.1229
       DOS:  cpu time    0.0040: real time    0.0040
    CHARGE:  cpu time    0.4024: real time    0.4025
    MIXING:  cpu time    0.0016: real time    0.0016
    --------------------------------------------
      LOOP:  cpu time    7.9278: real time    7.9319

 eigenvalue-minimisations  :  7043
 total energy-change (2. order) : 0.5634359E-01  (-0.8090327E-02)
 number of electron     123.9999980 magnetization 
 augmentation part       -0.6305245 magnetization 

 Broyden mixing:
  rms(total) = 0.84478E-01    rms(broyden)= 0.84472E-01
  rms(prec ) = 0.14233E+00
  weight for this iteration     100.00

 eigenvalues of (default mixing * dielectric matrix)
  average eigenvalue GAMMA=   1.3225
  2.3582  1.1354  1.1354  0.6610

 Free energy of the ion-electron system (eV)
  ---------------------------------------------------
  alpha Z        PSCENC =       132.80870079
  Ewald energy   TEWEN  =     -4157.87301349
  -Hartree energ DENC   =     -1299.94223165
  -exchange      EXHF   =         0.00000000
  -V(xc)+E(xc)   XCENC  =       111.37124652
  PAW double counting   =     15584.15442261   -15320.97231200
  entropy T*S    EENTRO =        -0.00991686
  eigenvalues    EBANDS =       -74.03945140
  atomic energy  EATOM  =      4822.75196862
  Solvation  Ediel_sol  =         0.00000000
  ---------------------------------------------------
  free energy    TOTEN  =      -201.75058686 eV

  energy without entropy =     -201.74067000  energy(sigma->0) =     -201.74810765


--------------------------------------------------------------------------------------------------------




--------------------------------------- Iteration      1(  10)  ---------------------------------------


    POTLOK:  cpu time    0.0525: real time    0.0545
    SETDIJ:  cpu time    0.0049: real time    0.0049
    EDDIAG:  cpu time    1.2162: real time    1.2166
  RMM-DIIS:  cpu time    6.7259: real time    6.7292
    ORTHCH:  cpu time    0.1230: real time    0.1231
       DOS:  cpu time    0.0041: real time    0.0041
    CHARGE:  cpu time    0.4003: real time    0.4007
    MIXING:  cpu time    0.0018: real time    0.0018
    --------------------------------------------
      LOOP:  cpu time    8.5287: real time    8.5348

 eigenvalue-minimisations  :  7040
 total energy-change (2. order) : 0.8970521E-02  (-0.1772052E-01)
 number of electron     123.9999980 magnetization 
 augmentation part       -0.6888650 magnetization 

 Broyden mixing:
  rms(total) = 0.53173E-01    rms(broyden)= 0.53132E-01
  rms(prec ) = 0.85422E-01
  weight for this iteration     100.00

 eigenvalues of (default mixing * dielectric matrix)
  average eigenvalue GAMMA=   1.4216
  2.2590  2.2590  1.0129  1.0129  0.5641

 Free energy of the ion-electron system (eV)
  ---------------------------------------------------
  alpha Z        PSCENC =       132.80870079
  Ewald energy   TEWEN  =     -4157.87301349
  -Hartree energ DENC   =     -1307.76635969
  -exchange      EXHF   =         0.00000000
  -V(xc)+E(xc)   XCENC  =       111.88715466
  PAW double counting   =     15694.43378545   -15431.29579845
  entropy T*S    EENTRO =        -0.00730854
  eigenvalues    EBANDS =       -66.68074570
  atomic energy  EATOM  =      4822.75196862
  Solvation  Ediel_sol  =         0.00000000
  ---------------------------------------------------
  free energy    TOTEN  =      -201.74161634 eV

  energy without entropy =     -201.73430780  energy(sigma->0) =     -201.73978921


--------------------------------------------------------------------------------------------------------




--------------------------------------- Iteration      1(  11)  ---------------------------------------


    POTLOK:  cpu time    0.0506: real time    0.0527
    SETDIJ:  cpu time    0.0050: real time    0.0050
    EDDIAG:  cpu time    1.2163: real time    1.2162
  RMM-DIIS:  cpu time    6.7327: real time    6.7322
    ORTHCH:  cpu time    0.1193: real time    0.1192
       DOS:  cpu time    0.0040: real time    0.0040
    CHARGE:  cpu time    0.3902: real time    0.3902
    MIXING:  cpu time    0.0019: real time    0.0019
    --------------------------------------------
      LOOP:  cpu time    8.5199: real time    8.5214

 eigenvalue-minimisations  :  7040
 total energy-change (2. order) : 0.2113581E-02  (-0.1097111E-02)
 number of electron     123.9999980 magnetization 
 augmentation part       -0.6813809 magnetization 

 Broyden mixing:
  rms(total) = 0.24027E-01    rms(broyden)= 0.24026E-01
  rms(prec ) = 0.45267E-01
  weight for this iteration     100.00

 eigenvalues of (default mixing * dielectric matrix)
  average eigenvalue GAMMA=   1.4399
  2.4045  2.4045  1.1548  1.0715  1.0715  0.5326

 Free energy of the ion-electron system (eV)
  ---------------------------------------------------
  alpha Z        PSCENC =       132.80870079
  Ewald energy   TEWEN  =     -4157.87301349
  -Hartree energ DENC   =     -1306.43749037
  -exchange      EXHF   =         0.00000000
  -V(xc)+E(xc)   XCENC  =       111.80668092
  PAW double counting   =     15575.28155812   -15312.11421063
  entropy T*S    EENTRO =        -0.00943967
  eigenvalues    EBANDS =       -67.95425705
  atomic energy  EATOM  =      4822.75196862
  Solvation  Ediel_sol  =         0.00000000
  ---------------------------------------------------
  free energy    TOTEN  =      -201.73950276 eV

  energy without entropy =     -201.73006309  energy(sigma->0) =     -201.73714284


--------------------------------------------------------------------------------------------------------




--------------------------------------- Iteration      1(  12)  ---------------------------------------


    POTLOK:  cpu time    0.0558: real time    0.0560
    SETDIJ:  cpu time    0.0050: real time    0.0050
    EDDIAG:  cpu time    1.1171: real time    1.1171
  RMM-DIIS:  cpu time    6.4012: real time    6.4011
    ORTHCH:  cpu time    0.1223: real time    0.1223
       DOS:  cpu time    0.0039: real time    0.0039
    CHARGE:  cpu time    0.4119: real time    0.4124
    MIXING:  cpu time    0.0018: real time    0.0018
    --------------------------------------------
      LOOP:  cpu time    8.1189: real time    8.1195

 eigenvalue-minimisations  :  7040
 total energy-change (2. order) : 0.7072679E-03  (-0.5785339E-03)
 number of electron     123.9999980 magnetization 
 augmentation part       -0.6747010 magnetization 

 Broyden mixing:
  rms(total) = 0.10799E-01    rms(broyden)= 0.10796E-01
  rms(prec ) = 0.27744E-01
  weight for this iteration     100.00

 eigenvalues of (default mixing * dielectric matrix)
  average eigenvalue GAMMA=   1.4617
  2.5280  2.5280  1.7243  1.0211  1.0211  0.8952  0.5137

 Free energy of the ion-electron system (eV)
  ---------------------------------------------------
  alpha Z        PSCENC =       132.80870079
  Ewald energy   TEWEN  =     -4157.87301349
  -Hartree energ DENC   =     -1305.69483425
  -exchange      EXHF   =         0.00000000
  -V(xc)+E(xc)   XCENC  =       111.77180242
  PAW double counting   =     15553.96093375   -15290.79121492
  entropy T*S    EENTRO =        -0.00832278
  eigenvalues    EBANDS =       -68.66481564
  atomic energy  EATOM  =      4822.75196862
  Solvation  Ediel_sol  =         0.00000000
  ---------------------------------------------------
  free energy    TOTEN  =      -201.73879549 eV

  energy without entropy =     -201.73047271  energy(sigma->0) =     -201.73671480


--------------------------------------------------------------------------------------------------------




--------------------------------------- Iteration      1(  13)  ---------------------------------------


    POTLOK:  cpu time    0.1225: real time    0.1226
    SETDIJ:  cpu time    0.0047: real time    0.0047
    EDDIAG:  cpu time    1.3150: real time    1.3149
  RMM-DIIS:  cpu time    5.7318: real time    5.7319
    ORTHCH:  cpu time    0.1219: real time    0.1219
       DOS:  cpu time    0.0040: real time    0.0040
    CHARGE:  cpu time    0.4033: real time    0.4033
    MIXING:  cpu time    0.0018: real time    0.0018
    --------------------------------------------
      LOOP:  cpu time    7.7049: real time    7.7050

 eigenvalue-minimisations  :  6100
 total energy-change (2. order) : 0.2368424E-03  (-0.6980594E-04)
 number of electron     123.9999980 magnetization 
 augmentation part       -0.6721378 magnetization 

 Broyden mixing:
  rms(total) = 0.32046E-02    rms(broyden)= 0.31995E-02
  rms(prec ) = 0.48185E-02
  weight for this iteration     100.00

 eigenvalues of (default mixing * dielectric matrix)
  average eigenvalue GAMMA=   1.4467
  2.7660  2.4491  1.7877  1.0421  1.0421  1.0920  0.8810  0.5139

 Free energy of the ion-electron system (eV)
  ---------------------------------------------------
  alpha Z        PSCENC =       132.80870079
  Ewald energy   TEWEN  =     -4157.87301349
  -Hartree energ DENC   =     -1305.66809494
  -exchange      EXHF   =         0.00000000
  -V(xc)+E(xc)   XCENC  =       111.77802546
  PAW double counting   =     15523.06851555   -15259.89675946
  entropy T*S    EENTRO =        -0.00899547
  eigenvalues    EBANDS =       -68.69890571
  atomic energy  EATOM  =      4822.75196862
  Solvation  Ediel_sol  =         0.00000000
  ---------------------------------------------------
  free energy    TOTEN  =      -201.73855865 eV

  energy without entropy =     -201.72956318  energy(sigma->0) =     -201.73630978


--------------------------------------------------------------------------------------------------------




--------------------------------------- Iteration      1(  14)  ---------------------------------------


    POTLOK:  cpu time    0.0528: real time    0.0535
    SETDIJ:  cpu time    0.0055: real time    0.0056
    EDDIAG:  cpu time    1.2140: real time    1.2142
  RMM-DIIS:  cpu time    4.4576: real time    4.4589
    ORTHCH:  cpu time    0.1245: real time    0.1245
       DOS:  cpu time    0.0040: real time    0.0040
    --------------------------------------------
      LOOP:  cpu time    5.8584: real time    5.8607

 eigenvalue-minimisations  :  4261
 total energy-change (2. order) : 0.1701204E-04  (-0.5387259E-05)
 number of electron     123.9999980 magnetization 
 augmentation part       -0.6721378 magnetization 

 Free energy of the ion-electron system (eV)
  ---------------------------------------------------
  alpha Z        PSCENC =       132.80870079
  Ewald energy   TEWEN  =     -4157.87301349
  -Hartree energ DENC   =     -1305.84855447
  -exchange      EXHF   =         0.00000000
  -V(xc)+E(xc)   XCENC  =       111.78971646
  PAW double counting   =     15519.54155019   -15256.37003529
  entropy T*S    EENTRO =        -0.00898044
  eigenvalues    EBANDS =       -68.52989401
  atomic energy  EATOM  =      4822.75196862
  Solvation  Ediel_sol  =         0.00000000
  ---------------------------------------------------
  free energy    TOTEN  =      -201.73854164 eV

  energy without entropy =     -201.72956120  energy(sigma->0) =     -201.73629653


--------------------------------------------------------------------------------------------------------




 average (electrostatic) potential at core
  the test charge radii are     0.7089  0.9892
  (the norm of the test charge is              1.0000)
       1 -62.0477       2 -62.0477       3 -62.0406       4 -62.0477       5 -62.0406
       6 -62.0406       7 -62.0477       8 -62.0406       9 -62.0477      10 -62.0477
      11 -62.0406      12 -62.0406      13 -83.3108      14 -83.3108      15 -83.3108
      16 -83.3108      17 -82.2208      18 -83.1324      19 -82.2208      20 -81.5972
      21 -83.1324      22 -83.3108      23 -83.3108      24 -81.5972      25 -83.1324
      26 -83.1324      27 -83.1324      28 -83.1324
 
 
 
 E-fermi :   6.9766     XC(G=0): -10.2714     alpha+bet :-13.2916


 k-point     1 :       0.0000    0.0000    0.0000
  band No.  band energies     occupation 
      1     -11.2601      2.00000
      2     -10.6344      2.00000
      3     -10.6344      2.00000
      4      -9.8532      2.00000
      5      -9.8532      2.00000
      6      -9.1977      2.00000
      7      -8.8605      2.00000
      8      -8.8291      2.00000
      9      -8.8291      2.00000
     10      -8.7889      2.00000
     11      -8.7225      2.00000
     12      -8.7225      2.00000
     13      -4.3187      2.00000
     14      -3.4114      2.00000
     15      -3.4114      2.00000
     16      -3.1181      2.00000
     17      -2.5406      2.00000
     18      -2.2424      2.00000
     19      -2.2424      2.00000
     20      -1.8150      2.00000
     21      -1.3203      2.00000
     22      -1.3203      2.00000
     23      -0.9694      2.00000
     24      -0.7091      2.00000
     25      -0.7091      2.00000
     26      -0.3542      2.00000
     27      -0.2904      2.00000
     28       0.3879      2.00000
     29       0.5006      2.00000
     30       0.5006      2.00000
     31       0.7031      2.00000
     32       1.1122      2.00000
     33       1.2417      2.00000
     34       1.2417      2.00000
     35       1.4351      2.00000
     36       1.4351      2.00000
     37       1.7740      2.00000
     38       1.8525      2.00000
     39       1.8525      2.00000
     40       2.1198      2.00000
     41       2.1198      2.00000
     42       2.8750      2.00000
     43       2.8842      2.00000
     44       2.8842      2.00000
     45       3.0188      2.00000
     46       3.0188      2.00000
     47       3.5285      2.00000
     48       3.6289      2.00000
     49       3.8142      2.00000
     50       3.8365      2.00000
     51       3.8365      2.00000
     52       4.3150      2.00000
     53       4.4966      2.00000
     54       4.5825      2.00000
     55       4.5825      2.00000
     56       4.9449      2.00000
     57       4.9449      2.00000
     58       5.5575      2.00000
     59       5.5575      2.00000
     60       6.0324      2.00000
     61       6.0324      2.00000
     62       6.6339      1.99994
     63       7.2212      0.00486
     64       8.7348      0.00000
     65       8.7348      0.00000
     66       9.4248      0.00000
     67       9.5285      0.00000
     68       9.5285      0.00000
     69       9.8537      0.00000
     70       9.8538      0.00000
     71      10.6762      0.00000
     72      10.6829      0.00000
     73      10.9194      0.00000
     74      10.9201      0.00000
     75      11.2208      0.00000
     76      11.4802      0.00000
     77      11.7133      0.00000
     78      11.7815      0.00000
     79      11.8556      0.00000
     80      11.8753      0.00000

 k-point     2 :       0.1667    0.0000    0.0000
  band No.  band energies     occupation 
      1     -11.2307      2.00000
      2     -10.6941      2.00000
      3     -10.6568      2.00000
      4      -9.8226      2.00000
      5      -9.7889      2.00000
      6      -9.1710      2.00000
      7      -8.9766      2.00000
      8      -8.8444      2.00000
      9      -8.8175      2.00000
     10      -8.7817      2.00000
     11      -8.7221      2.00000
     12      -8.6873      2.00000
     13      -4.2419      2.00000
     14      -3.4234      2.00000
     15      -3.3357      2.00000
     16      -3.0715      2.00000
     17      -2.5984      2.00000
     18      -2.3257      2.00000
     19      -2.2448      2.00000
     20      -1.9931      2.00000
     21      -1.5506      2.00000
     22      -1.2868      2.00000
     23      -0.9961      2.00000
     24      -0.7161      2.00000
     25      -0.5232      2.00000
     26      -0.2447      2.00000
     27      -0.1273      2.00000
     28       0.4170      2.00000
     29       0.4247      2.00000
     30       0.4472      2.00000
     31       0.7622      2.00000
     32       1.0025      2.00000
     33       1.2362      2.00000
     34       1.2653      2.00000
     35       1.4418      2.00000
     36       1.4678      2.00000
     37       1.7712      2.00000
     38       1.8496      2.00000
     39       2.0170      2.00000
     40       2.1538      2.00000
     41       2.1779      2.00000
     42       2.7473      2.00000
     43       2.7956      2.00000
     44       2.8769      2.00000
     45       3.0576      2.00000
     46       3.1052      2.00000
     47       3.4395      2.00000
     48       3.5261      2.00000
     49       3.6404      2.00000
     50       3.9271      2.00000
     51       4.1295      2.00000
     52       4.3238      2.00000
     53       4.4648      2.00000
     54       4.6155      2.00000
     55       4.6536      2.00000
     56       4.8701      2.00000
     57       4.9396      2.00000
     58       5.4515      2.00000
     59       5.4933      2.00000
     60       5.9131      2.00000
     61       6.0237      2.00000
     62       6.6682      1.99960
     63       7.1623      0.00779
     64       8.8445      0.00000
     65       8.9111      0.00000
     66       9.4481      0.00000
     67       9.5105      0.00000
     68       9.6335      0.00000
     69       9.9285      0.00000
     70      10.0082      0.00000
     71      10.3486      0.00000
     72      10.6795      0.00000
     73      10.8125      0.00000
     74      11.1512      0.00000
     75      11.3293      0.00000
     76      11.4343      0.00000
     77      11.5839      0.00000
     78      11.6308      0.00000
     79      11.6870      0.00000
     80      11.9718      0.00000

 k-point     3 :       0.3333    0.0000    0.0000
  band No.  band energies     occupation 
      1     -11.1485      2.00000
      2     -10.8299      2.00000
      3     -10.6958      2.00000
      4      -9.7743      2.00000
      5      -9.6219      2.00000
      6      -9.1759      2.00000
      7      -9.0991      2.00000
      8      -8.8926      2.00000
      9      -8.8221      2.00000
     10      -8.7697      2.00000
     11      -8.7208      2.00000
     12      -8.6614      2.00000
     13      -4.0243      2.00000
     14      -3.4617      2.00000
     15      -3.1837      2.00000
     16      -3.0192      2.00000
     17      -2.7418      2.00000
     18      -2.4439      2.00000
     19      -2.2936      2.00000
     20      -2.2035      2.00000
     21      -1.9096      2.00000
     22      -1.1717      2.00000
     23      -1.0266      2.00000
     24      -0.8410      2.00000
     25      -0.3441      2.00000
     26      -0.0123      2.00000
     27       0.0774      2.00000
     28       0.2690      2.00000
     29       0.5022      2.00000
     30       0.5520      2.00000
     31       0.8672      2.00000
     32       0.9368      2.00000
     33       1.1793      2.00000
     34       1.2204      2.00000
     35       1.3680      2.00000
     36       1.5233      2.00000
     37       1.7286      2.00000
     38       1.8805      2.00000
     39       2.1568      2.00000
     40       2.2420      2.00000
     41       2.3080      2.00000
     42       2.6230      2.00000
     43       2.6490      2.00000
     44       2.8641      2.00000
     45       3.0532      2.00000
     46       3.2377      2.00000
     47       3.4368      2.00000
     48       3.5737      2.00000
     49       3.6352      2.00000
     50       3.9811      2.00000
     51       4.1195      2.00000
     52       4.3563      2.00000
     53       4.3623      2.00000
     54       4.5558      2.00000
     55       4.7176      2.00000
     56       4.8744      2.00000
     57       4.9278      2.00000
     58       5.2528      2.00000
     59       5.3882      2.00000
     60       5.6977      2.00000
     61       6.0631      2.00000
     62       6.7532      1.99202
     63       7.0414     -0.01052
     64       9.0690      0.00000
     65       9.2701      0.00000
     66       9.3557      0.00000
     67       9.5718      0.00000
     68       9.8411      0.00000
     69      10.0898      0.00000
     70      10.2201      0.00000
     71      10.2523      0.00000
     72      10.5093      0.00000
     73      10.7712      0.00000
     74      11.0574      0.00000
     75      11.2156      0.00000
     76      11.3050      0.00000
     77      11.3437      0.00000
     78      11.5151      0.00000
     79      11.6852      0.00000
     80      11.7598      0.00000

 k-point     4 :       0.5000    0.0000    0.0000
  band No.  band energies     occupation 
      1     -11.0648      2.00000
      2     -10.9375      2.00000
      3     -10.7130      2.00000
      4      -9.7547      2.00000
      5      -9.4049      2.00000
      6      -9.4012      2.00000
      7      -9.0343      2.00000
      8      -8.9449      2.00000
      9      -8.8244      2.00000
     10      -8.7639      2.00000
     11      -8.7196      2.00000
     12      -8.6572      2.00000
     13      -3.8043      2.00000
     14      -3.5641      2.00000
     15      -3.2121      2.00000
     16      -2.9834      2.00000
     17      -2.6706      2.00000
     18      -2.5126      2.00000
     19      -2.4199      2.00000
     20      -2.2186      2.00000
     21      -2.0837      2.00000
     22      -1.1159      2.00000
     23      -1.0123      2.00000
     24      -0.9385      2.00000
     25      -0.2006      2.00000
     26      -0.0895      2.00000
     27       0.1836      2.00000
     28       0.2323      2.00000
     29       0.6053      2.00000
     30       0.6668      2.00000
     31       0.7873      2.00000
     32       1.0555      2.00000
     33       1.1695      2.00000
     34       1.2397      2.00000
     35       1.2578      2.00000
     36       1.5691      2.00000
     37       1.5955      2.00000
     38       1.9062      2.00000
     39       2.1341      2.00000
     40       2.2778      2.00000
     41       2.4100      2.00000
     42       2.5652      2.00000
     43       2.6695      2.00000
     44       2.7885      2.00000
     45       3.0528      2.00000
     46       3.3538      2.00000
     47       3.4733      2.00000
     48       3.6682      2.00000
     49       3.7710      2.00000
     50       3.9598      2.00000
     51       3.9789      2.00000
     52       4.2513      2.00000
     53       4.4037      2.00000
     54       4.4692      2.00000
     55       4.7062      2.00000
     56       4.8451      2.00000
     57       4.8833      2.00000
     58       5.1786      2.00000
     59       5.4978      2.00000
     60       5.5363      2.00000
     61       6.1022      2.00000
     62       6.8258      2.02072
     63       6.9575      1.39277
     64       9.2118      0.00000
     65       9.2491      0.00000
     66       9.5346      0.00000
     67       9.6285      0.00000
     68       9.7991      0.00000
     69      10.1510      0.00000
     70      10.2332      0.00000
     71      10.2628      0.00000
     72      10.7045      0.00000
     73      10.7390      0.00000
     74      10.9765      0.00000
     75      11.1056      0.00000
     76      11.1855      0.00000
     77      11.3150      0.00000
     78      11.3488      0.00000
     79      11.5840      0.00000
     80      11.6402      0.00000

 k-point     5 :       0.1667    0.1667    0.0000
  band No.  band energies     occupation 
      1     -11.1746      2.00000
      2     -10.7806      2.00000
      3     -10.6993      2.00000
      4      -9.7542      2.00000
      5      -9.7031      2.00000
      6      -9.1206      2.00000
      7      -9.1203      2.00000
      8      -8.8648      2.00000
      9      -8.8297      2.00000
     10      -8.7725      2.00000
     11      -8.7198      2.00000
     12      -8.6678      2.00000
     13      -4.0928      2.00000
     14      -3.4223      2.00000
     15      -3.2455      2.00000
     16      -3.0285      2.00000
     17      -2.6806      2.00000
     18      -2.4787      2.00000
     19      -2.2417      2.00000
     20      -2.1834      2.00000
     21      -1.7596      2.00000
     22      -1.2743      2.00000
     23      -1.0133      2.00000
     24      -0.7837      2.00000
     25      -0.4006      2.00000
     26      -0.0382      2.00000
     27       0.0602      2.00000
     28       0.2941      2.00000
     29       0.4410      2.00000
     30       0.5227      2.00000
     31       0.8738      2.00000
     32       0.9237      2.00000
     33       1.1624      2.00000
     34       1.3320      2.00000
     35       1.3345      2.00000
     36       1.4978      2.00000
     37       1.7538      2.00000
     38       1.8819      2.00000
     39       2.1672      2.00000
     40       2.2089      2.00000
     41       2.2108      2.00000
     42       2.6530      2.00000
     43       2.6826      2.00000
     44       2.8858      2.00000
     45       3.0869      2.00000
     46       3.1586      2.00000
     47       3.4166      2.00000
     48       3.5627      2.00000
     49       3.6271      2.00000
     50       4.0425      2.00000
     51       4.1136      2.00000
     52       4.3283      2.00000
     53       4.4004      2.00000
     54       4.6245      2.00000
     55       4.7139      2.00000
     56       4.7696      2.00000
     57       4.9543      2.00000
     58       5.2731      2.00000
     59       5.4265      2.00000
     60       5.7801      2.00000
     61       6.0371      2.00000
     62       6.7269      1.99581
     63       7.0741     -0.10306
     64       9.0318      0.00000
     65       9.1562      0.00000
     66       9.4165      0.00000
     67       9.4642      0.00000
     68       9.8605      0.00000
     69      10.1090      0.00000
     70      10.1786      0.00000
     71      10.1900      0.00000
     72      10.5411      0.00000
     73      10.8442      0.00000
     74      11.0622      0.00000
     75      11.1855      0.00000
     76      11.3291      0.00000
     77      11.4093      0.00000
     78      11.4255      0.00000
     79      11.7346      0.00000
     80      11.9242      0.00000

 k-point     6 :       0.3333    0.1667    0.0000
  band No.  band energies     occupation 
      1     -11.0769      2.00000
      2     -10.9042      2.00000
      3     -10.7403      2.00000
      4      -9.6956      2.00000
      5      -9.5397      2.00000
      6      -9.3256      2.00000
      7      -9.0419      2.00000
      8      -8.9100      2.00000
      9      -8.8424      2.00000
     10      -8.7639      2.00000
     11      -8.7133      2.00000
     12      -8.6671      2.00000
     13      -3.8328      2.00000
     14      -3.4551      2.00000
     15      -3.2407      2.00000
     16      -3.0952      2.00000
     17      -2.6793      2.00000
     18      -2.5078      2.00000
     19      -2.3572      2.00000
     20      -2.2284      2.00000
     21      -2.0269      2.00000
     22      -1.1959      2.00000
     23      -1.0223      2.00000
     24      -0.9241      2.00000
     25      -0.2424      2.00000
     26       0.0215      2.00000
     27       0.1623      2.00000
     28       0.2109      2.00000
     29       0.6198      2.00000
     30       0.6545      2.00000
     31       0.8585      2.00000
     32       1.0350      2.00000
     33       1.0906      2.00000
     34       1.2425      2.00000
     35       1.3437      2.00000
     36       1.4922      2.00000
     37       1.6186      2.00000
     38       1.9635      2.00000
     39       2.1455      2.00000
     40       2.1992      2.00000
     41       2.3267      2.00000
     42       2.5423      2.00000
     43       2.5871      2.00000
     44       2.9297      2.00000
     45       3.0658      2.00000
     46       3.3723      2.00000
     47       3.5155      2.00000
     48       3.6807      2.00000
     49       3.7099      2.00000
     50       4.0075      2.00000
     51       4.0970      2.00000
[...]
     33       0.8482      2.00000
     34       0.8739      2.00000
     35       1.1961      2.00000
     36       1.2686      2.00000
     37       1.3148      2.00000
     38       1.5203      2.00000
     39       1.6172      2.00000
     40       1.7679      2.00000
     41       2.3214      2.00000
     42       2.4036      2.00000
     43       2.4578      2.00000
     44       2.5319      2.00000
     45       2.8647      2.00000
     46       3.1364      2.00000
     47       3.1517      2.00000
     48       3.5177      2.00000
     49       3.5422      2.00000
     50       3.6783      2.00000
     51       4.1081      2.00000
     52       4.1283      2.00000
     53       4.6427      2.00000
     54       4.6453      2.00000
     55       4.8382      2.00000
     56       4.8463      2.00000
     57       5.4403      2.00000
     58       5.4525      2.00000
     59       5.5649      2.00000
     60       5.5981      2.00000
     61       6.9377      2.10275
     62       6.9594      2.04963
     63       7.1845     -0.01686
     64       7.1910     -0.00906
     65       9.5187      0.00000
     66       9.5831      0.00000
     67       9.7901      0.00000
     68       9.8439      0.00000
     69      10.4592      0.00000
     70      10.5094      0.00000
     71      10.6002      0.00000
     72      10.7547      0.00000
     73      10.9472      0.00000
     74      11.0661      0.00000
     75      11.1194      0.00000
     76      11.1981      0.00000
     77      11.3913      0.00000
     78      11.4107      0.00000
     79      11.5624      0.00000
     80      11.6964      0.00000

 k-point    43 :       0.3333    0.1667    0.5000
  band No.  band energies     occupation 
      1     -10.5493      2.00000
      2     -10.5490      2.00000
      3     -10.2128      2.00000
      4     -10.2075      2.00000
      5     -10.1623      2.00000
      6     -10.1528      2.00000
      7      -9.2595      2.00000
      8      -9.2443      2.00000
      9      -9.2047      2.00000
     10      -9.1943      2.00000
     11      -8.7540      2.00000
     12      -8.7534      2.00000
     13      -3.2363      2.00000
     14      -3.2078      2.00000
     15      -2.8404      2.00000
     16      -2.7922      2.00000
     17      -2.4991      2.00000
     18      -2.4594      2.00000
     19      -1.8761      2.00000
     20      -1.8608      2.00000
     21      -1.3788      2.00000
     22      -1.3620      2.00000
     23      -0.7389      2.00000
     24      -0.5608      2.00000
     25      -0.4731      2.00000
     26      -0.3193      2.00000
     27      -0.1803      2.00000
     28      -0.1260      2.00000
     29       0.0567      2.00000
     30       0.2544      2.00000
     31       0.5366      2.00000
     32       0.5846      2.00000
     33       0.7151      2.00000
     34       0.8455      2.00000
     35       1.1160      2.00000
     36       1.1434      2.00000
     37       1.2488      2.00000
     38       1.6016      2.00000
     39       1.7725      2.00000
     40       1.9449      2.00000
     41       2.3652      2.00000
     42       2.3790      2.00000
     43       2.5114      2.00000
     44       2.5714      2.00000
     45       2.9774      2.00000
     46       3.1944      2.00000
     47       3.4524      2.00000
     48       3.6522      2.00000
     49       3.8173      2.00000
     50       3.9147      2.00000
     51       4.0763      2.00000
     52       4.1128      2.00000
     53       4.3959      2.00000
     54       4.4380      2.00000
     55       4.7843      2.00000
     56       4.7936      2.00000
     57       5.2158      2.00000
     58       5.2339      2.00000
     59       5.4803      2.00000
     60       5.5349      2.00000
     61       7.0094      1.43934
     62       7.0303      1.01316
     63       7.1471     -0.08225
     64       7.1582     -0.06172
     65       9.4261      0.00000
     66       9.4777      0.00000
     67       9.8036      0.00000
     68       9.8627      0.00000
     69      10.2143      0.00000
     70      10.3787      0.00000
     71      10.6184      0.00000
     72      10.7283      0.00000
     73      10.9632      0.00000
     74      11.1308      0.00000
     75      11.2084      0.00000
     76      11.3016      0.00000
     77      11.4080      0.00000
     78      11.4827      0.00000
     79      11.7006      0.00000
     80      11.7881      0.00000

 k-point    44 :       0.3333    0.3333    0.5000
  band No.  band energies     occupation 
      1     -10.5375      2.00000
      2     -10.5375      2.00000
      3     -10.2033      2.00000
      4     -10.2033      2.00000
      5     -10.1949      2.00000
      6     -10.1755      2.00000
      7      -9.2406      2.00000
      8      -9.2114      2.00000
      9      -9.2114      2.00000
     10      -9.2055      2.00000
     11      -8.7624      2.00000
     12      -8.7624      2.00000
     13      -3.0827      2.00000
     14      -2.9498      2.00000
     15      -2.9498      2.00000
     16      -2.9422      2.00000
     17      -2.6281      2.00000
     18      -2.6281      2.00000
     19      -1.7524      2.00000
     20      -1.7325      2.00000
     21      -1.4825      2.00000
     22      -1.4825      2.00000
     23      -0.5564      2.00000
     24      -0.5564      2.00000
     25      -0.3356      2.00000
     26      -0.3011      2.00000
     27      -0.3011      2.00000
     28      -0.2592      2.00000
     29       0.1508      2.00000
     30       0.1508      2.00000
     31       0.5708      2.00000
     32       0.5708      2.00000
     33       0.6712      2.00000
     34       0.9661      2.00000
     35       1.0094      2.00000
     36       1.0094      2.00000
     37       1.1572      2.00000
     38       1.7491      2.00000
     39       1.7491      2.00000
     40       2.0098      2.00000
     41       2.3757      2.00000
     42       2.3757      2.00000
     43       2.6054      2.00000
     44       2.8830      2.00000
     45       2.9108      2.00000
     46       2.9108      2.00000
     47       3.6990      2.00000
     48       3.6990      2.00000
     49       3.8318      2.00000
     50       4.0021      2.00000
     51       4.0021      2.00000
     52       4.0837      2.00000
     53       4.3777      2.00000
     54       4.3777      2.00000
     55       4.7924      2.00000
     56       4.7924      2.00000
     57       5.2006      2.00000
     58       5.2006      2.00000
     59       5.3707      2.00000
     60       5.4515      2.00000
     61       7.0323      0.97063
     62       7.0447      0.71297
     63       7.1449     -0.08607
     64       7.1449     -0.08607
     65       9.4711      0.00000
     66       9.4711      0.00000
     67       9.7957      0.00000
     68       9.7957      0.00000
     69      10.0417      0.00000
     70      10.3049      0.00000
     71      10.6634      0.00000
     72      10.6634      0.00000
     73      11.1008      0.00000
     74      11.2820      0.00000
     75      11.2893      0.00000
     76      11.2893      0.00000
     77      11.5314      0.00000
     78      11.5314      0.00000
     79      11.5459      0.00000
     80      11.7410      0.00000


--------------------------------------------------------------------------------------------------------


 soft charge-density along one line, spin component           1
         0         1         2         3         4         5         6         7         8         9
 total charge-density along one line
 
 pseudopotential strength for first ion, spin component:           1
 12.534  15.025  -0.001  -0.001   0.001  -0.003  -0.002   0.002
 15.025  18.013  -0.001  -0.001   0.001  -0.003  -0.003   0.003
 -0.001  -0.001  -5.931   0.012  -0.015  -7.925   0.019  -0.023
 -0.001  -0.001   0.012  -5.940  -0.013   0.019  -7.940  -0.020
  0.001   0.001  -0.015  -0.013  -5.928  -0.023  -0.020  -7.920
 -0.003  -0.003  -7.925   0.019  -0.023  -9.877   0.029  -0.036
 -0.002  -0.003   0.019  -7.940  -0.020   0.029  -9.901  -0.032
  0.002   0.003  -0.023  -0.020  -7.920  -0.036  -0.032  -9.870
 total augmentation occupancy for first ion, spin component:           1
  7.270  -3.312   0.149   0.132  -0.139  -0.043  -0.041   0.044
 -3.312   1.630  -0.129  -0.110   0.120   0.029   0.027  -0.030
  0.149  -0.129   2.165  -0.086   0.123  -0.344   0.053  -0.068
  0.132  -0.110  -0.086   2.290   0.095   0.053  -0.395  -0.056
 -0.139   0.120   0.123   0.095   2.159  -0.068  -0.057  -0.334
 -0.043   0.029  -0.344   0.053  -0.068   0.064  -0.014   0.019
 -0.041   0.027   0.053  -0.395  -0.057  -0.014   0.078   0.015
  0.044  -0.030  -0.068  -0.056  -0.334   0.019   0.015   0.062


------------------------ aborting loop because EDIFF is reached ----------------------------------------


    CHARGE:  cpu time    0.4089: real time    0.4090
    FORLOC:  cpu time    0.0118: real time    0.0118
    FORNL :  cpu time    2.8755: real time    2.8761
    STRESS:  cpu time    9.0610: real time    9.0657
    FORCOR:  cpu time    0.0601: real time    0.0601
    FORHAR:  cpu time    0.0222: real time    0.0222
    MIXING:  cpu time    0.0014: real time    0.0014
    OFIELD:  cpu time    0.0000: real time    0.0000

  FORCE on cell =-STRESS in cart. coord.  units (eV):
  Direction    XX          YY          ZZ          XY          YZ          ZX
  --------------------------------------------------------------------------------------
  Alpha Z   132.80870   132.80870   132.80870
  Ewald   -1637.41631 -1637.41631  -861.83569     0.00000     0.00000     0.00000
  Hartree   318.58200   318.58200   683.54459     0.00000     0.00000    -0.00000
  E(xc)    -471.97379  -471.97379  -469.94503     0.00000     0.00000     0.00000
  Local    -399.72092  -399.72042 -1479.03630     0.00000     0.00000    -0.00000
  n-local   432.32011   432.31920   428.01446     0.02994     0.03230     0.21489
  augment   -75.22274   -75.22321   -74.51749    -0.00000     0.00000    -0.00000
  Kinetic  1691.71703  1693.05710  1623.40884     0.23566     0.28454    -0.45957
  Fock        0.00000     0.00000     0.00000     0.00000     0.00000     0.00000
  -------------------------------------------------------------------------------------
  Total      -8.23632    -8.23632   -17.55793     0.00000     0.00000     0.00000
  in kB     -35.94080   -35.94080   -76.61747     0.00000     0.00000     0.00000
  external pressure =      -49.50 kB  Pullay stress =        0.00 kB


 VOLUME and BASIS-vectors are now :
 -----------------------------------------------------------------------------
  energy-cutoff  :      400.00
  volume of cell :      367.16
      direct lattice vectors                 reciprocal lattice vectors
     4.356946888 -7.546453377  0.000000000     0.114759260 -0.066256290  0.000000000
     4.356946888  7.546453377  0.000000000     0.114759260  0.066256290  0.000000000
     0.000000000  0.000000000  5.583427291     0.000000000  0.000000000  0.179101464

  length of vectors
     8.713893777  8.713893777  5.583427291     0.132512579  0.132512579  0.179101464


 FORCES acting on ions
    electron-ion (+dipol)            ewald-force                    non-local-force                 convergence-correction
 -----------------------------------------------------------------------------------------------
   -.353E+02 -.106E+02 0.727E+01   0.386E+02 0.718E+01 -.997E+01   -.320E+01 0.346E+01 0.268E+01   -.467E-01 -.198E-01 0.106E-01
   0.845E+01 0.359E+02 0.727E+01   -.131E+02 -.370E+02 -.997E+01   0.459E+01 0.104E+01 0.268E+01   0.619E-02 0.503E-01 0.106E-01
   0.161E+02 0.184E+02 0.142E+02   -.176E+02 -.169E+02 -.165E+02   0.158E+01 -.144E+01 0.230E+01   -.723E-02 0.157E-01 -.511E-04
   -.353E+02 0.106E+02 0.727E+01   0.386E+02 -.718E+01 -.997E+01   -.320E+01 -.346E+01 0.268E+01   -.467E-01 0.198E-01 0.106E-01
   0.788E+01 0.231E+02 0.142E+02   -.586E+01 -.237E+02 -.165E+02   -.204E+01 0.643E+00 0.230E+01   0.173E-01 0.161E-02 -.512E-04
   0.161E+02 -.184E+02 0.142E+02   -.176E+02 0.169E+02 -.165E+02   0.158E+01 0.144E+01 0.230E+01   -.723E-02 -.157E-01 -.511E-04
   0.269E+02 -.253E+02 0.727E+01   -.255E+02 0.298E+02 -.997E+01   -.140E+01 -.450E+01 0.268E+01   0.405E-01 -.305E-01 0.106E-01
   -.239E+02 -.472E+01 0.142E+02   0.235E+02 0.680E+01 -.165E+02   0.462E+00 -.209E+01 0.230E+01   -.100E-01 0.141E-01 -.513E-04
   0.845E+01 -.359E+02 0.727E+01   -.131E+02 0.370E+02 -.997E+01   0.459E+01 -.104E+01 0.268E+01   0.619E-02 -.503E-01 0.106E-01
   0.269E+02 0.253E+02 0.727E+01   -.255E+02 -.298E+02 -.997E+01   -.140E+01 0.450E+01 0.268E+01   0.405E-01 0.305E-01 0.106E-01
   -.239E+02 0.472E+01 0.142E+02   0.235E+02 -.680E+01 -.165E+02   0.462E+00 0.209E+01 0.230E+01   -.100E-01 -.141E-01 -.513E-04
   0.788E+01 -.231E+02 0.142E+02   -.586E+01 0.237E+02 -.165E+02   -.204E+01 -.643E+00 0.230E+01   0.173E-01 -.161E-02 -.512E-04
   0.693E+02 0.924E+01 0.533E+01   -.710E+02 -.112E+02 -.558E+01   0.164E+01 0.193E+01 0.235E+00   0.317E-01 0.108E-01 0.133E-02
   -.267E+02 -.647E+02 0.533E+01   0.258E+02 0.671E+02 -.558E+01   0.852E+00 -.238E+01 0.235E+00   -.646E-02 -.329E-01 0.133E-02
   0.693E+02 -.924E+01 0.533E+01   -.710E+02 0.112E+02 -.558E+01   0.164E+01 -.193E+01 0.235E+00   0.317E-01 -.108E-01 0.133E-02
   -.427E+02 0.554E+02 0.533E+01   0.452E+02 -.559E+02 -.558E+01   -.249E+01 0.453E+00 0.235E+00   -.253E-01 0.220E-01 0.133E-02
   0.532E-07 -.758E-07 0.101E+01   -.604E-13 -.653E-13 -.735E+00   0.748E-18 -.335E-17 -.240E+00   -.907E-07 0.135E-07 -.230E-02
   -.162E+02 0.359E+02 -.190E+02   0.215E+02 -.372E+02 0.203E+02   -.535E+01 0.132E+01 -.125E+01   0.109E-01 0.468E-02 0.149E-02
   0.532E-07 0.758E-07 0.101E+01   0.511E-13 0.804E-13 -.735E+00   0.217E-17 0.593E-17 -.240E+00   -.907E-07 -.135E-07 -.230E-02
   -.222E-06 -.355E-07 -.402E+02   -.966E-12 -.103E-10 0.359E+02   0.116E-17 0.102E-17 0.424E+01   -.248E-06 0.110E-07 0.354E-02
   -.230E+02 0.319E+02 -.190E+02   0.215E+02 -.373E+02 0.203E+02   0.153E+01 0.529E+01 -.125E+01   -.949E-02 -.708E-02 0.149E-02
   -.267E+02 0.647E+02 0.533E+01   0.258E+02 -.671E+02 -.558E+01   0.852E+00 0.238E+01 0.235E+00   -.646E-02 0.329E-01 0.133E-02
   -.427E+02 -.554E+02 0.533E+01   0.452E+02 0.559E+02 -.558E+01   -.249E+01 -.453E+00 0.235E+00   -.253E-01 -.220E-01 0.133E-02
   -.222E-06 0.355E-07 -.402E+02   0.300E-11 0.113E-10 0.359E+02   0.179E-17 0.501E-19 0.424E+01   -.248E-06 -.110E-07 0.354E-02
   0.392E+02 0.395E+01 -.190E+02   -.430E+02 0.461E-01 0.203E+02   0.382E+01 -.397E+01 -.125E+01   -.139E-02 0.118E-01 0.149E-02
   0.392E+02 -.395E+01 -.190E+02   -.430E+02 -.461E-01 0.203E+02   0.382E+01 0.397E+01 -.125E+01   -.139E-02 -.118E-01 0.149E-02
   -.230E+02 -.319E+02 -.190E+02   0.215E+02 0.373E+02 0.203E+02   0.153E+01 -.529E+01 -.125E+01   -.949E-02 0.708E-02 0.149E-02
   -.162E+02 -.359E+02 -.190E+02   0.215E+02 0.372E+02 0.203E+02   -.535E+01 -.132E+01 -.125E+01   0.109E-01 -.468E-02 0.149E-02
 -----------------------------------------------------------------------------------------------
   0.308E-05 0.230E-09 -.319E+02   0.391E-13 -.142E-13 -.284E-13   0.178E-14 0.000E+00 0.318E+02   -.162E-05 -.100E-11 0.829E-01
 
 
 POSITION                                       TOTAL-FORCE (eV/Angst)
 -----------------------------------------------------------------------------------
      2.84727      4.84842      1.21925        -0.007324     -0.013739     -0.005539
      7.13217      2.65644      1.21925        -0.008236      0.013213     -0.005539
      5.39820     -4.47831      5.53736        -0.011547      0.002862      0.002545
      2.84727     -4.84842      4.01097        -0.007324      0.013739     -0.005539
      2.13646      2.43582      2.74565         0.008252     -0.008569      0.002545
      5.39820      4.47831      2.74565        -0.011547     -0.002862      0.002545
      3.09141      0.04159      1.21925         0.015561      0.000527     -0.005539
      5.53618      0.63232      2.74565         0.003295      0.011431      0.002545
      7.13217     -2.65644      4.01097        -0.008236     -0.013213     -0.005539
      3.09141     -0.04159      4.01097         0.015561     -0.000527     -0.005539
      5.53618     -0.63232      5.53736         0.003295     -0.011431      0.002545
      2.13646     -2.43582      5.53736         0.008252      0.008569      0.002545
      2.23554      0.66351      2.62521         0.003892     -0.014658     -0.014226
      3.81379      5.27866      2.62521        -0.014640      0.003958     -0.014226
      2.23554     -0.66351      5.41693         0.003892      0.014658     -0.014226
      7.02151      1.60428      2.62521         0.010748      0.010700     -0.014226
     -0.00000     -0.00000      5.37371         0.000000      0.000000      0.035589
      2.38250      3.17154      4.34974         0.032964      0.024986      0.014013
     -0.00000     -0.00000      2.58199         0.000000      0.000000      0.035589
      4.35695     -2.51548      2.54413         0.000000      0.000000     -0.025969
      4.77601     -0.47754      1.55802        -0.038120     -0.016054      0.014013
      3.81379     -5.27866      5.41693        -0.014640     -0.003958     -0.014226
      7.02151     -1.60428      5.41693         0.010748     -0.010700     -0.014226
      4.35695      2.51548      5.33584         0.000000      0.000000     -0.025969
      5.91233     -3.89738      1.55802         0.005157      0.041040      0.014013
      5.91233      3.89738      4.34974         0.005157     -0.041040      0.014013
      4.77601      0.47754      4.34974        -0.038120      0.016054      0.014013
      2.38250     -3.17154      1.55802         0.032964     -0.024986      0.014013
 -----------------------------------------------------------------------------------
    total drift:                                0.000001      0.000000      0.005801


--------------------------------------------------------------------------------------------------------



  FREE ENERGIE OF THE ION-ELECTRON SYSTEM (eV)
  ---------------------------------------------------
  free  energy   TOTEN  =      -201.85555959 eV

  energy  without entropy=     -201.84679127  energy(sigma->0) =     -201.85336751
 
 d Force = 0.7889907E-04[-0.575E-04, 0.215E-03]  d Energy = 0.8356701E-04-0.467E-05
 d Force =-0.2359013E-01[-0.234E-01,-0.238E-01]  d Ewald  =-0.2359005E-01-0.830E-07


--------------------------------------------------------------------------------------------------------


    POTLOK:  cpu time    0.0583: real time    0.0583


--------------------------------------------------------------------------------------------------------




--------------------------------------------------------------------------------------------------------


  
 reached required accuracy - stopping structural energy minimisation
     LOOP+:  cpu time   30.3791: real time   30.6354
    4ORBIT:  cpu time    0.0000: real time    0.0000

 total amount of memory used by VASP MPI-rank0    69493. kBytes
=======================================================================

   base      :      30000. kBytes
   nonlr-proj:       6239. kBytes
   fftplans  :       3308. kBytes
   grid      :       5257. kBytes
   one-center:         21. kBytes
   wavefun   :      24668. kBytes
 
  
  
 General timing and accounting informations for this job:
 ========================================================
  
                  Total CPU time used (sec):      679.647
                            User time (sec):      678.498
                          System time (sec):        1.149
                         Elapsed time (sec):      682.477
  
                   Maximum memory used (kb):       91816.
                   Average memory used (kb):           0.
  
                          Minor page faults:       260272
                          Major page faults:            0
                 Voluntary context switches:        10236
