<?xml version="1.0" encoding="ISO-8859-1"?>
<modeling>
 <generator>
  <i name="program" type="string">vasp </i>
  <i name="version" type="string">5.4.4.18Apr17-6-g9f103f2a35  </i>
  <i name="subversion" type="string">(build Nov 01 2019 12:17:22) complex            parallel </i>
  <i name="platform" type="string">LinuxIFC </i>
  <i name="date" type="string">2023 05 19 </i>
  <i name="time" type="string">18:21:56 </i>
 </generator>
 <incar>
  <i type="string" name="PREC">accurate</i>
  <i type="string" name="ALGO"> Fast</i>
  <i type="int" name="IBRION">     2</i>
  <i type="int" name="NSW">   100</i>
  <i type="int" name="ISIF">     2</i>
  <i type="string" name="LREAL"> Auto</i>
  <i type="int" name="ISMEAR">     2</i>
  <i name="SIGMA">      0.10000000</i>
  <i type="logical" name="LWAVE"> F  </i>
  <i type="logical" name="LCHARG"> F  </i>
  <v type="int" name="KPOINT_BSE">    -1     0     0     0</v>
 </incar>
 <structure name="primitive_cell" >
  <crystal>
   <varray name="basis" >
    <v>       4.35694689      -7.54645338       0.00000000 </v>
    <v>       4.35694689       7.54645338       0.00000000 </v>
    <v>       0.00000000       0.00000000       5.58342729 </v>
   </varray>
   <i name="volume">    367.16055676 </i>
   <varray name="rec_basis" >
    <v>       0.11475926      -0.06625629       0.00000000 </v>
    <v>       0.11475926       0.06625629       0.00000000 </v>
    <v>       0.00000000       0.00000000       0.17910146 </v>
   </varray>
  </crystal>
  <varray name="positions" >
   <v>       0.00847736      -0.35287377       0.21326215 </v>
   <v>       0.08729345      -0.21311138       0.46674092 </v>
   <v>      -0.08729345      -0.30040483      -0.03325908 </v>
   <v>      -0.06686359       0.41763405       0.28259872 </v>
   <v>      -0.00847736      -0.36135113      -0.28673785 </v>
   <v>      -0.08582195       0.32157747      -0.00812732 </v>
   <v>       0.08582195       0.40739942       0.49187268 </v>
   <v>      -0.32157747      -0.40739942      -0.00812732 </v>
   <v>       0.06686359       0.48449764      -0.21740128 </v>
   <v>       0.32157747      -0.08582195       0.49187268 </v>
   <v>       0.33333333      -0.33333333      -0.02422298 </v>
   <v>      -0.33333333       0.33333333       0.47577702 </v>
   <v>      -0.41763405      -0.48449764       0.28259872 </v>
   <v>       0.00000000       0.00000000       0.45692726 </v>
   <v>       0.00000000       0.00000000      -0.04307274 </v>
   <v>       0.40739942       0.08582195      -0.00812732 </v>
   <v>       0.48449764       0.06686359       0.28259872 </v>
   <v>       0.41763405      -0.06686359      -0.21740128 </v>
   <v>      -0.40739942      -0.32157747       0.49187268 </v>
   <v>       0.21311138       0.30040483       0.46674092 </v>
   <v>      -0.21311138       0.08729345      -0.03325908 </v>
   <v>       0.30040483       0.21311138      -0.03325908 </v>
   <v>      -0.30040483      -0.08729345       0.46674092 </v>
   <v>      -0.48449764      -0.41763405      -0.21740128 </v>
   <v>       0.35287377       0.36135113       0.21326215 </v>
   <v>      -0.36135113      -0.00847736       0.21326215 </v>
   <v>      -0.35287377       0.00847736      -0.28673785 </v>
   <v>       0.36135113       0.35287377      -0.28673785 </v>
  </varray>
 </structure>
 <varray name="primitive_index" >
  <v type="int" >        1 </v>
  <v type="int" >       14 </v>
  <v type="int" >       23 </v>
  <v type="int" >       25 </v>
  <v type="int" >        9 </v>
  <v type="int" >        3 </v>
  <v type="int" >        5 </v>
  <v type="int" >       11 </v>
  <v type="int" >       18 </v>
  <v type="int" >        6 </v>
  <v type="int" >       24 </v>
  <v type="int" >       20 </v>
  <v type="int" >       21 </v>
  <v type="int" >       19 </v>
  <v type="int" >       17 </v>
  <v type="int" >       12 </v>
  <v type="int" >       28 </v>
  <v type="int" >       26 </v>
  <v type="int" >        8 </v>
  <v type="int" >       13 </v>
  <v type="int" >       22 </v>
  <v type="int" >       15 </v>
  <v type="int" >       16 </v>
  <v type="int" >       27 </v>
  <v type="int" >        7 </v>
  <v type="int" >        2 </v>
  <v type="int" >        4 </v>
  <v type="int" >       10 </v>
 </varray>
 <kpoints>
  <generation param="Auto">
   <i name="subdivisionlength">     45.00000000 </i>
   <v type="int" name="divisions">       6        6        8 </v>
   <v name="usershift">      0.00000000       0.00000000       0.00000000 </v>
   <v name="genvec1">      0.16666667       0.00000000       0.00000000 </v>
   <v name="genvec2">      0.00000000       0.16666667       0.00000000 </v>
   <v name="genvec3">      0.00000000       0.00000000       0.12500000 </v>
   <v name="shift">      0.00000000       0.00000000       0.00000000 </v>
  </generation>
  <varray name="kpointlist" >
   <v>       0.00000000       0.00000000       0.00000000 </v>
   <v>       0.16666667       0.00000000       0.00000000 </v>
   <v>       0.33333333       0.00000000       0.00000000 </v>
   <v>       0.50000000       0.00000000       0.00000000 </v>
   <v>       0.16666667       0.16666667       0.00000000 </v>
   <v>       0.33333333       0.16666667       0.00000000 </v>
   <v>       0.33333333       0.33333333       0.00000000 </v>
   <v>       0.00000000       0.00000000       0.12500000 </v>
   <v>       0.16666667       0.00000000       0.12500000 </v>
   <v>       0.33333333       0.00000000       0.12500000 </v>
   <v>       0.50000000       0.00000000       0.12500000 </v>
   <v>       0.16666667       0.16666667       0.12500000 </v>
   <v>       0.33333333       0.16666667       0.12500000 </v>
   <v>       0.33333333       0.33333333       0.12500000 </v>
   <v>      -0.16666667       0.33333333       0.12500000 </v>
   <v>      -0.33333333       0.50000000       0.12500000 </v>
   <v>      -0.33333333      -0.33333333       0.12500000 </v>
   <v>       0.00000000       0.00000000       0.25000000 </v>
   <v>       0.16666667       0.00000000       0.25000000 </v>
   <v>       0.33333333       0.00000000       0.25000000 </v>
   <v>       0.50000000       0.00000000       0.25000000 </v>
   <v>       0.16666667       0.16666667       0.25000000 </v>
   <v>       0.33333333       0.16666667       0.25000000 </v>
   <v>       0.33333333       0.33333333       0.25000000 </v>
   <v>      -0.16666667       0.33333333       0.25000000 </v>
   <v>      -0.33333333       0.50000000       0.25000000 </v>
   <v>      -0.33333333      -0.33333333       0.25000000 </v>
   <v>       0.00000000       0.00000000       0.37500000 </v>
   <v>       0.16666667       0.00000000       0.37500000 </v>
   <v>       0.33333333       0.00000000       0.37500000 </v>
   <v>       0.50000000       0.00000000       0.37500000 </v>
   <v>       0.16666667       0.16666667       0.37500000 </v>
   <v>       0.33333333       0.16666667       0.37500000 </v>
   <v>       0.33333333       0.33333333       0.37500000 </v>
   <v>      -0.16666667       0.33333333       0.37500000 </v>
   <v>      -0.33333333       0.50000000       0.37500000 </v>
   <v>      -0.33333333      -0.33333333       0.37500000 </v>
   <v>       0.00000000       0.00000000       0.50000000 </v>
   <v>       0.16666667       0.00000000       0.50000000 </v>
   <v>       0.33333333       0.00000000       0.50000000 </v>
   <v>       0.50000000       0.00000000       0.50000000 </v>
   <v>       0.16666667       0.16666667       0.50000000 </v>
   <v>       0.33333333       0.16666667       0.50000000 </v>
   <v>       0.33333333       0.33333333       0.50000000 </v>
  </varray>
  <varray name="weights" >
   <v>       0.00347222 </v>
   <v>       0.02083333 </v>
   <v>       0.02083333 </v>
   <v>       0.01041667 </v>
   <v>       0.02083333 </v>
   <v>       0.04166667 </v>
   <v>       0.00694444 </v>
   <v>       0.00694444 </v>
   <v>       0.04166667 </v>
   <v>       0.04166667 </v>
   <v>       0.02083333 </v>
   <v>       0.02083333 </v>
   <v>       0.04166667 </v>
   <v>       0.00694444 </v>
   <v>       0.02083333 </v>
   <v>       0.04166667 </v>
   <v>       0.00694444 </v>
   <v>       0.00694444 </v>
   <v>       0.04166667 </v>
   <v>       0.04166667 </v>
   <v>       0.02083333 </v>
   <v>       0.02083333 </v>
   <v>       0.04166667 </v>
   <v>       0.00694444 </v>
   <v>       0.02083333 </v>
   <v>       0.04166667 </v>
   <v>       0.00694444 </v>
   <v>       0.00694444 </v>
   <v>       0.04166667 </v>
   <v>       0.04166667 </v>
   <v>       0.02083333 </v>
   <v>       0.02083333 </v>
   <v>       0.04166667 </v>
   <v>       0.00694444 </v>
   <v>       0.02083333 </v>
   <v>       0.04166667 </v>
   <v>       0.00694444 </v>
   <v>       0.00347222 </v>
   <v>       0.02083333 </v>
   <v>       0.02083333 </v>
   <v>       0.01041667 </v>
   <v>       0.02083333 </v>
   <v>       0.04166667 </v>
   <v>       0.00694444 </v>
  </varray>
 </kpoints>
 <parameters>
  <separator name="general" >
   <i type="string" name="SYSTEM">unknown system</i>
   <i type="logical" name="LCOMPAT"> F  </i>
  </separator>
  <separator name="electronic" >
   <i type="string" name="PREC">accura</i>
   <i name="ENMAX">    400.00000000</i>
   <i name="ENAUG">    627.11200000</i>
   <i name="EDIFF">      0.00010000</i>
   <i type="int" name="IALGO">    68</i>
   <i type="int" name="IWAVPR">    11</i>
   <i type="int" name="NBANDS">    80</i>
   <i name="NELECT">    124.00000000</i>
   <i type="int" name="TURBO">     0</i>
   <i type="int" name="IRESTART">     0</i>
   <i type="int" name="NREBOOT">     0</i>
   <i type="int" name="NMIN">     0</i>
   <i name="EREF">      0.00000000</i>
   <separator name="electronic smearing" >
    <i type="int" name="ISMEAR">     2</i>
    <i name="SIGMA">      0.10000000</i>
    <i name="KSPACING">      0.50000000</i>
    <i type="logical" name="KGAMMA"> T  </i>
   </separator>
   <separator name="electronic projectors" >
    <i type="logical" name="LREAL"> T  </i>
    <v name="ROPT">     -0.00025000     -0.00025000</v>
    <i type="int" name="LMAXPAW">  -100</i>
    <i type="int" name="LMAXMIX">     2</i>
    <i type="logical" name="NLSPLINE"> F  </i>
   </separator>
   <separator name="electronic startup" >
    <i type="int" name="ISTART">     0</i>
    <i type="int" name="ICHARG">     2</i>
    <i type="int" name="INIWAV">     1</i>
   </separator>
   <separator name="electronic spin" >
    <i type="int" name="ISPIN">     1</i>
    <i type="logical" name="LNONCOLLINEAR"> F  </i>
    <v name="MAGMOM">      1.00000000      1.00000000      1.00000000      1.00000000      1.00000000      1.00000000      1.00000000      1.00000000      1.00000000      1.00000000      1.00000000      1.00000000      1.00000000      1.00000000      1.00000000      1.00000000      1.00000000      1.00000000      1.00000000      1.00000000
      1.00000000      1.00000000      1.00000000      1.00000000      1.00000000      1.00000000      1.00000000      1.00000000</v>
    <i name="NUPDOWN">     -1.00000000</i>
    <i type="logical" name="LSORBIT"> F  </i>
    <v name="SAXIS">      0.00000000      0.00000000      1.00000000</v>
    <i type="logical" name="LSPIRAL"> F  </i>
    <v name="QSPIRAL">      0.00000000      0.00000000      0.00000000</v>
    <i type="logical" name="LZEROZ"> F  </i>
   </separator>
   <separator name="electronic exchange-correlation" >
    <i type="logical" name="LASPH"> F  </i>
    <i type="logical" name="LMETAGGA"> F  </i>
   </separator>
   <separator name="electronic convergence" >
    <i type="int" name="NELM">    60</i>
    <i type="int" name="NELMDL">    -5</i>
    <i type="int" name="NELMIN">     2</i>
    <i name="ENINI">    400.00000000</i>
    <separator name="electronic convergence detail" >
     <i type="logical" name="LDIAG"> T  </i>
     <i type="logical" name="LSUBROT"> F  </i>
     <i name="WEIMIN">      0.00100000</i>
     <i name="EBREAK">      0.00000031</i>
     <i name="DEPER">      0.30000000</i>
     <i type="int" name="NRMM">     4</i>
     <i name="TIME">      0.40000000</i>
    </separator>
   </separator>
   <separator name="electronic mixer" >
    <i name="AMIX">      0.40000000</i>
    <i name="BMIX">      1.00000000</i>
    <i name="AMIN">      0.10000000</i>
    <i name="AMIX_MAG">      1.60000000</i>
    <i name="BMIX_MAG">      1.00000000</i>
    <separator name="electronic mixer details" >
     <i type="int" name="IMIX">     4</i>
     <i type="logical" name="MIXFIRST"> F  </i>
     <i type="int" name="MAXMIX">   -45</i>
     <i name="WC">    100.00000000</i>
     <i type="int" name="INIMIX">     1</i>
     <i type="int" name="MIXPRE">     1</i>
     <i type="int" name="MREMOVE">     5</i>
    </separator>
   </separator>
   <separator name="electronic dipolcorrection" >
    <i type="logical" name="LDIPOL"> F  </i>
    <i type="logical" name="LMONO"> F  </i>
    <i type="int" name="IDIPOL">     0</i>
    <i name="EPSILON">      1.00000000</i>
    <v name="DIPOL">   -100.00000000   -100.00000000   -100.00000000</v>
    <i name="EFIELD">      0.00000000</i>
   </separator>
  </separator>
  <separator name="grids" >
   <i type="int" name="NGX">    60</i>
   <i type="int" name="NGY">    60</i>
   <i type="int" name="NGZ">    36</i>
   <i type="int" name="NGXF">   120</i>
   <i type="int" name="NGYF">   120</i>
   <i type="int" name="NGZF">    72</i>
   <i type="logical" name="ADDGRID"> F  </i>
  </separator>
  <separator name="ionic" >
   <i type="int" name="NSW">   100</i>
   <i type="int" name="IBRION">     2</i>
   <i type="int" name="MDALGO">     0</i>
   <i type="int" name="ISIF">     2</i>
   <i name="PSTRESS">      0.00000000</i>
   <i name="EDIFFG">      0.00100000</i>
   <i type="int" name="NFREE">     1</i>
   <i name="POTIM">      0.50000000</i>
   <i name="SMASS">     -3.00000000</i>
   <i name="SCALEE">      1.00000000</i>
  </separator>
  <separator name="ionic md" >
   <i name="TEBEG">      0.00010000</i>
   <i name="TEEND">      0.00010000</i>
   <i type="int" name="NBLOCK">     1</i>
   <i type="int" name="KBLOCK">   100</i>
   <i type="int" name="NPACO">   256</i>
   <i name="APACO">     16.00000000</i>
  </separator>
  <separator name="symmetry" >
   <i type="int" name="ISYM">     2</i>
   <i name="SYMPREC">      0.00001000</i>
  </separator>
  <separator name="dos" >
   <i type="int" name="LORBIT">     0</i>
   <v name="RWIGS">     -1.00000000     -1.00000000</v>
   <i type="int" name="NEDOS">   301</i>
   <i name="EMIN">     10.00000000</i>
   <i name="EMAX">    -10.00000000</i>
   <i name="EFERMI">      0.00000000</i>
  </separator>
  <separator name="writing" >
   <i type="int" name="NWRITE">     2</i>
   <i type="logical" name="LWAVE"> F  </i>
   <i type="logical" name="LDOWNSAMPLE"> F  </i>
   <i type="logical" name="LCHARG"> F  </i>
   <i type="logical" name="LPARD"> F  </i>
   <i type="logical" name="LVTOT"> F  </i>
   <i type="logical" name="LVHAR"> F  </i>
   <i type="logical" name="LELF"> F  </i>
   <i type="logical" name="LOPTICS"> F  </i>
   <v name="STM">      0.00000000      0.00000000      0.00000000      0.00000000      0.00000000      0.00000000      0.00000000</v>
  </separator>
  <separator name="performance" >
   <i type="int" name="NPAR">     4</i>
   <i type="int" name="NSIM">     4</i>
   <i type="int" name="NBLK">    -1</i>
   <i type="logical" name="LPLANE"> T  </i>
   <i type="logical" name="LSCALAPACK"> F  </i>
   <i type="logical" name="LSCAAWARE"> F  </i>
   <i type="logical" name="LSCALU"> F  </i>
   <i type="logical" name="LASYNC"> F  </i>
   <i type="logical" name="LORBITALREAL"> F  </i>
  </separator>
  <separator name="miscellaneous" >
   <i type="int" name="IDIOT">     3</i>
   <i type="int" name="ISPECIAL">     0</i>
   <i type="logical" name="LMUSIC"> F  </i>
   <v name="POMASS">     14.00100000     28.08500000</v>
   <v name="DARWINR">      0.00000000      0.00000000</v>
   <v name="DARWINV">      1.00000000      1.00000000</v>
   <i type="logical" name="LCORR"> T  </i>
  </separator>
  <i type="logical" name="GGA_COMPAT"> T  </i>
  <i type="logical" name="LBERRY"> F  </i>
  <i type="int" name="ICORELEVEL">     0</i>
  <i type="logical" name="LDAU"> F  </i>
  <i type="int" name="I_CONSTRAINED_M">     0</i>
  <separator name="electronic exchange-correlation" >
   <i type="string" name="GGA">--</i>
   <i type="int" name="VOSKOWN">     0</i>
   <i type="logical" name="LHFCALC"> F  </i>
   <i type="string" name="PRECFOCK"></i>
   <i type="logical" name="LSYMGRAD"> F  </i>
   <i type="logical" name="LHFONE"> F  </i>
   <i type="logical" name="LRHFCALC"> F  </i>
   <i type="logical" name="LTHOMAS"> F  </i>
   <i type="logical" name="LMODELHF"> F  </i>
   <i name="ENCUT4O">     -1.00000000</i>
   <i type="int" name="EXXOEP">     0</i>
   <i type="int" name="FOURORBIT">     0</i>
   <i name="AEXX">      0.00000000</i>
   <i name="HFALPHA">      0.00000000</i>
   <i name="MCALPHA">      0.00000000</i>
   <i name="ALDAX">      1.00000000</i>
   <i name="AGGAX">      1.00000000</i>
   <i name="ALDAC">      1.00000000</i>
   <i name="AGGAC">      1.00000000</i>
   <i type="int" name="NKREDX">     1</i>
   <i type="int" name="NKREDY">     1</i>
   <i type="int" name="NKREDZ">     1</i>
   <i type="logical" name="SHIFTRED"> F  </i>
   <i type="logical" name="ODDONLY"> F  </i>
   <i type="logical" name="EVENONLY"> F  </i>
   <i type="int" name="LMAXFOCK">     0</i>
   <i type="int" name="NMAXFOCKAE">     0</i>
   <i type="logical" name="LFOCKAEDFT"> F  </i>
   <i name="HFSCREEN">      0.00000000</i>
   <i name="HFSCREENC">      0.00000000</i>
   <i type="int" name="NBANDSGWLOW">     0</i>
  </separator>
  <separator name="vdW DFT" >
   <i type="logical" name="LUSE_VDW"> F  </i>
   <i name="Zab_VDW">     -0.84910000</i>
   <i name="PARAM1">      0.12340000</i>
   <i name="PARAM2">      1.00000000</i>
   <i name="PARAM3">      0.00000000</i>
  </separator>
  <separator name="model GW" >
   <i type="int" name="MODEL_GW">     0</i>
   <i name="MODEL_EPS0">      7.86772622</i>
   <i name="MODEL_ALPHA">      1.00000000</i>
  </separator>
  <separator name="linear response parameters" >
   <i type="logical" name="LEPSILON"> F  </i>
   <i type="logical" name="LRPA"> F  </i>
   <i type="logical" name="LNABLA"> F  </i>
   <i type="logical" name="LVEL"> F  </i>
   <i type="int" name="KINTER">     0</i>
   <i name="CSHIFT">      0.10000000</i>
   <i name="OMEGAMAX">     -1.00000000</i>
   <i name="DEG_THRESHOLD">      0.00200000</i>
   <i name="RTIME">     -0.10000000</i>
   <i name="WPLASMAI">      0.00000000</i>
   <v name="DFIELD">      0.00000000      0.00000000      0.00000000</v>
   <v name="WPLASMA">      0.00000000      0.00000000      0.00000000      0.00000000      0.00000000      0.00000000      0.00000000      0.00000000      0.00000000</v>
  </separator>
  <separator name="orbital magnetization" >
   <i type="logical" name="NUCIND"> F  </i>
   <v name="MAGPOS">      0.00000000      0.00000000      0.00000000</v>
   <i type="logical" name="LNICSALL"> T  </i>
   <i type="logical" name="ORBITALMAG"> F  </i>
   <i type="logical" name="LMAGBLOCH"> F  </i>
   <i type="logical" name="LCHIMAG"> F  </i>
   <i type="logical" name="LGAUGE"> T  </i>
   <i type="int" name="MAGATOM">     0</i>
   <v name="MAGDIPOL">      0.00000000      0.00000000      0.00000000</v>
   <v name="AVECCONST">      0.00000000      0.00000000      0.00000000</v>
  </separator>
  <separator name="response functions" >
   <i type="logical" name="LADDER"> F  </i>
   <i type="logical" name="LRPAFORCE"> F  </i>
   <i type="logical" name="LFXC"> F  </i>
   <i type="logical" name="LHARTREE"> T  </i>
   <i type="int" name="IBSE">     0</i>
   <v type="int" name="KPOINT">    -1     0     0     0</v>
   <i type="logical" name="LTCTE"> F  </i>
   <i type="logical" name="LTETE"> F  </i>
   <i type="logical" name="LTRIPLET"> F  </i>
   <i type="logical" name="LFXCEPS"> F  </i>
   <i type="logical" name="LFXHEG"> F  </i>
   <i type="int" name="NATURALO">     2</i>
   <i type="logical" name="L2ORDER"> F  </i>
   <i type="logical" name="LMP2LT"> F  </i>
   <i type="logical" name="LUSEW"> F  </i>
   <i name="ENCUTGW">     -2.00000000</i>
   <i name="ENCUTGWSOFT">     -2.00000000</i>
   <i name="ENCUTLF">     -1.00000000</i>
   <i type="int" name="LMAXMP2">    -1</i>
   <i name="SCISSOR">      0.00000000</i>
   <i type="int" name="NOMEGA">     0</i>
   <i type="int" name="NOMEGAR">     0</i>
   <i type="int" name="NBANDSGW">    -1</i>
   <i type="int" name="NBANDSO">    -1</i>
   <i type="int" name="NBANDSV">    -1</i>
   <i type="int" name="NELM">     1</i>
   <i type="int" name="NELMHF">     1</i>
   <i type="int" name="DIM">     3</i>
   <i type="int" name="ANTIRES">     0</i>
   <i name="OMEGAMAX">    -30.00000000</i>
   <i name="OMEGAMIN">    -30.00000000</i>
   <i name="OMEGATL">   -200.00000000</i>
   <i type="int" name="OMEGAGRID">   140</i>
   <i name="CSHIFT">     -0.10000000</i>
   <i type="logical" name="SELFENERGY"> F  </i>
   <i type="logical" name="LSPECTRAL"> F  </i>
   <i type="logical" name="LSPECTRALGW"> F  </i>
   <i type="logical" name="LSINGLES"> F  </i>
   <i type="logical" name="LFERMIGW"> F  </i>
   <i type="logical" name="ODDONLYGW"> F  </i>
   <i type="logical" name="EVENONLYGW"> F  </i>
   <i type="int" name="NKREDLFX">     1</i>
   <i type="int" name="NKREDLFY">     1</i>
   <i type="int" name="NKREDLFZ">     1</i>
   <i type="int" name="MAXMEM">  2800</i>
   <i type="int" name="TELESCOPE">     0</i>
   <i type="int" name="TAUPAR">     1</i>
   <i type="int" name="OMEGAPAR">    -1</i>
   <i name="LAMBDA">      1.00000000</i>
  </separator>
  <separator name="External order field" >
   <i name="OFIELD_KAPPA">      0.00000000</i>
   <v name="OFIELD_K">      0.00000000      0.00000000      0.00000000</v>
   <i name="OFIELD_Q6_NEAR">      0.00000000</i>
   <i name="OFIELD_Q6_FAR">      0.00000000</i>
   <i name="OFIELD_A">      0.00000000</i>
  </separator>
 </parameters>
 <atominfo>
  <atoms>      28 </atoms>
  <types>       2 </types>
  <array name="atoms" >
   <dimension dim="1">ion</dimension>
   <field type="string">element</field>
   <field type="int">atomtype</field>
   <set>
    <rc><c>N </c><c>   1</c></rc>
    <rc><c>N </c><c>   1</c></rc>
    <rc><c>N </c><c>   1</c></rc>
    <rc><c>N </c><c>   1</c></rc>
    <rc><c>N </c><c>   1</c></rc>
    <rc><c>N </c><c>   1</c></rc>
    <rc><c>N </c><c>   1</c></rc>
    <rc><c>N </c><c>   1</c></rc>
    <rc><c>N </c><c>   1</c></rc>
    <rc><c>N </c><c>   1</c></rc>
    <rc><c>N </c><c>   1</c></rc>
    <rc><c>N </c><c>   1</c></rc>
    <rc><c>Si</c><c>   2</c></rc>
    <rc><c>Si</c><c>   2</c></rc>
    <rc><c>Si</c><c>   2</c></rc>
    <rc><c>Si</c><c>   2</c></rc>
    <rc><c>Si</c><c>   2</c></rc>
    <rc><c>Si</c><c>   2</c></rc>
    <rc><c>Si</c><c>   2</c></rc>
    <rc><c>Si</c><c>   2</c></rc>
    <rc><c>Si</c><c>   2</c></rc>
    <rc><c>Si</c><c>   2</c></rc>
    <rc><c>Si</c><c>   2</c></rc>
    <rc><c>Si</c><c>   2</c></rc>
    <rc><c>Si</c><c>   2</c></rc>
    <rc><c>Si</c><c>   2</c></rc>
    <rc><c>Si</c><c>   2</c></rc>
    <rc><c>Si</c><c>   2</c></rc>
   </set>
  </array>
  <array name="atomtypes" >
   <dimension dim="1">type</dimension>
   <field type="int">atomspertype</field>
   <field type="string">element</field>
   <field>mass</field>
   <field>valence</field>
   <field type="string">pseudopotential</field>
   <set>
    <rc><c>  12</c><c>N </c><c>     14.00100000</c><c>      5.00000000</c><c>  PAW_PBE N 08Apr2002                   </c></rc>
    <rc><c>  16</c><c>Si</c><c>     28.08500000</c><c>      4.00000000</c><c>  PAW_PBE Si 05Jan2001                  </c></rc>
   </set>
  </array>
 </atominfo>
 <structure name="initialpos" >
  <crystal>
   <varray name="basis" >
    <v>       4.35694689      -7.54645338       0.00000000 </v>
    <v>       4.35694689       7.54645338       0.00000000 </v>
    <v>       0.00000000       0.00000000       5.58342729 </v>
   </varray>
   <i name="volume">    367.16055676 </i>
   <varray name="rec_basis" >
    <v>       0.11475926      -0.06625629       0.00000000 </v>
    <v>       0.11475926       0.06625629       0.00000000 </v>
    <v>       0.00000000       0.00000000       0.17910146 </v>
   </varray>
  </crystal>
  <varray name="positions" >
   <v>       0.00847736       0.64712623       0.21326215 </v>
   <v>       0.63864887       0.99152264       0.21326215 </v>
   <v>       0.91417805       0.32157747       0.99187268 </v>
   <v>       0.64712623       0.00847736       0.71326215 </v>
   <v>       0.08582195       0.40739942       0.49187268 </v>
   <v>       0.32157747       0.91417805       0.49187268 </v>
   <v>       0.35287377       0.36135113       0.21326215 </v>
   <v>       0.59260058       0.67842253       0.49187268 </v>
   <v>       0.99152264       0.63864887       0.71326215 </v>
   <v>       0.36135113       0.35287377       0.71326215 </v>
   <v>       0.67842253       0.59260058       0.99187268 </v>
   <v>       0.40739942       0.08582195       0.99187268 </v>
   <v>       0.21311138       0.30040483       0.46674092 </v>
   <v>       0.08729345       0.78688862       0.46674092 </v>
   <v>       0.30040483       0.21311138       0.96674092 </v>
   <v>       0.69959517       0.91270655       0.46674092 </v>
   <v>       0.00000000       0.00000000       0.95692726 </v>
   <v>       0.06686359       0.48449764       0.78259872 </v>
   <v>       0.00000000       0.00000000       0.45692726 </v>
   <v>       0.66666667       0.33333333       0.47577702 </v>
   <v>       0.58236595       0.51550236       0.28259872 </v>
   <v>       0.78688862       0.08729345       0.96674092 </v>
   <v>       0.91270655       0.69959517       0.96674092 </v>
   <v>       0.33333333       0.66666667       0.97577702 </v>
   <v>       0.93313641       0.41763405       0.28259872 </v>
   <v>       0.41763405       0.93313641       0.78259872 </v>
   <v>       0.51550236       0.58236595       0.78259872 </v>
   <v>       0.48449764       0.06686359       0.28259872 </v>
  </varray>
 </structure>
 <calculation>
  <scstep>
   <time name="dav">   11.03   11.29</time>
   <time name="total">   11.57   11.83</time>
   <energy>
    <i name="alphaZ">    132.80870079 </i>
    <i name="ewald">  -4157.87301349 </i>
    <i name="hartreedc">  -1097.26875333 </i>
    <i name="XCdc">     95.26663660 </i>
    <i name="pawpsdc">   3869.17357318 </i>
    <i name="pawaedc">  -3601.97287308 </i>
    <i name="eentropy">     -0.00085226 </i>
    <i name="bandstr">    407.00916754 </i>
    <i name="atom">   4822.75196862 </i>
    <i name="e_fr_energy">    469.89455457 </i>
    <i name="e_wo_entrp">    469.89540682 </i>
    <i name="e_0_energy">    469.89476763 </i>
   </energy>
  </scstep>
  <scstep>
   <time name="dav">   11.56   11.57</time>
   <time name="total">   11.57   11.57</time>
   <energy>
    <i name="e_fr_energy">   -170.63087852 </i>
    <i name="e_wo_entrp">   -170.63008531 </i>
    <i name="e_0_energy">   -170.63068022 </i>
   </energy>
  </scstep>
  <scstep>
   <time name="dav">   10.68   10.68</time>
   <time name="total">   10.69   10.69</time>
   <energy>
    <i name="e_fr_energy">   -223.79615289 </i>
    <i name="e_wo_entrp">   -223.77263941 </i>
    <i name="e_0_energy">   -223.79027452 </i>
   </energy>
  </scstep>
  <scstep>
   <time name="dav">   11.73   11.73</time>
   <time name="total">   11.73   11.73</time>
   <energy>
    <i name="e_fr_energy">   -225.13605518 </i>
    <i name="e_wo_entrp">   -225.10874804 </i>
    <i name="e_0_energy">   -225.12922839 </i>
   </energy>
  </scstep>
  <scstep>
   <time name="dav">   11.00   11.00</time>
   <time name="total">   11.40   11.40</time>
   <energy>
    <i name="e_fr_energy">   -225.16934655 </i>
    <i name="e_wo_entrp">   -225.14205033 </i>
    <i name="e_0_energy">   -225.16252249 </i>
   </energy>
  </scstep>
  <scstep>
   <time name="diag">    1.21    1.21</time>
   <time name="diis">    6.21    6.21</time>
   <time name="orth">    0.12    0.12</time>
   <time name="total">    8.01    8.01</time>
   <energy>
    <i name="e_fr_energy">   -202.33614995 </i>
    <i name="e_wo_entrp">   -202.33255676 </i>
    <i name="e_0_energy">   -202.33525165 </i>
   </energy>
  </scstep>
  <scstep>
   <time name="diag">    1.22    1.22</time>
   <time name="diis">    7.02    7.03</time>
   <time name="orth">    0.12    0.12</time>
   <time name="total">    8.83    8.83</time>
   <energy>
    <i name="e_fr_energy">   -201.94879659 </i>
    <i name="e_wo_entrp">   -201.93944978 </i>
    <i name="e_0_energy">   -201.94645989 </i>
   </energy>
  </scstep>
  <scstep>
   <time name="diag">    1.22    1.22</time>
   <time name="diis">    6.28    6.29</time>
   <time name="orth">    0.12    0.12</time>
   <time name="total">    8.07    8.07</time>
   <energy>
    <i name="e_fr_energy">   -201.80693046 </i>
    <i name="e_wo_entrp">   -201.80216202 </i>
    <i name="e_0_energy">   -201.80573835 </i>
   </energy>
  </scstep>
  <scstep>
   <time name="diag">    1.20    1.20</time>
   <time name="diis">    6.15    6.15</time>
   <time name="orth">    0.12    0.12</time>
   <time name="total">    7.93    7.93</time>
   <energy>
    <i name="e_fr_energy">   -201.75058686 </i>
    <i name="e_wo_entrp">   -201.74067000 </i>
    <i name="e_0_energy">   -201.74810765 </i>
   </energy>
  </scstep>
  <scstep>
   <time name="diag">    1.22    1.22</time>
   <time name="diis">    6.73    6.73</time>
   <time name="orth">    0.12    0.12</time>
   <time name="total">    8.53    8.53</time>
   <energy>
    <i name="e_fr_energy">   -201.74161634 </i>
    <i name="e_wo_entrp">   -201.73430780 </i>
    <i name="e_0_energy">   -201.73978921 </i>
   </energy>
  </scstep>
  <scstep>
   <time name="diag">    1.22    1.22</time>
   <time name="diis">    6.73    6.73</time>
   <time name="orth">    0.12    0.12</time>
   <time name="total">    8.52    8.52</time>
   <energy>
    <i name="e_fr_energy">   -201.73950276 </i>
    <i name="e_wo_entrp">   -201.73006309 </i>
    <i name="e_0_energy">   -201.73714284 </i>
   </energy>
  </scstep>
  <scstep>
   <time name="diag">    1.12    1.12</time>
   <time name="diis">    6.40    6.40</time>
   <time name="orth">    0.12    0.12</time>
   <time name="total">    8.12    8.12</time>
   <energy>
    <i name="e_fr_energy">   -201.73879549 </i>
    <i name="e_wo_entrp">   -201.73047271 </i>
    <i name="e_0_energy">   -201.73671480 </i>
   </energy>
  </scstep>
  <scstep>
   <time name="diag">    1.31    1.31</time>
   <time name="diis">    5.73    5.73</time>
   <time name="orth">    0.12    0.12</time>
   <time name="total">    7.70    7.71</time>
   <energy>
    <i name="e_fr_energy">   -201.73855865 </i>
    <i name="e_wo_entrp">   -201.72956318 </i>
    <i name="e_0_energy">   -201.73630978 </i>
   </energy>
  </scstep>
  <scstep>
   <time name="diag">    1.21    1.21</time>
   <time name="diis">    4.46    4.46</time>
   <time name="orth">    0.12    0.12</time>
   <time name="total">    5.86    5.86</time>
   <energy>
    <i name="alphaZ">    132.80870079 </i>
    <i name="ewald">  -4157.87301349 </i>
    <i name="hartreedc">  -1305.84855447 </i>
    <i name="XCdc">    111.78971646 </i>
    <i name="pawpsdc">  15519.54155019 </i>
    <i name="pawaedc"> -15256.37003529 </i>
    <i name="eentropy">     -0.00898044 </i>
    <i name="bandstr">    -68.52989401 </i>
    <i name="atom">   4822.75196862 </i>
    <i name="e_fr_energy">   -201.73854164 </i>
    <i name="e_wo_entrp">   -201.72956120 </i>
    <i name="e_0_energy">   -201.73629653 </i>
   </energy>
  </scstep>
  <structure>
   <crystal>
    <varray name="basis" >
     <v>       4.35694689      -7.54645338       0.00000000 </v>
     <v>       4.35694689       7.54645338       0.00000000 </v>
     <v>       0.00000000       0.00000000       5.58342729 </v>
    </varray>
    <i name="volume">    367.16055676 </i>
    <varray name="rec_basis" >
     <v>       0.11475926      -0.06625629       0.00000000 </v>
     <v>       0.11475926       0.06625629       0.00000000 </v>
     <v>       0.00000000       0.00000000       0.17910146 </v>
    </varray>
   </crystal>
   <varray name="positions" >
    <v>       0.00847736       0.64712623       0.21326215 </v>
    <v>       0.63864887       0.99152264       0.21326215 </v>
    <v>       0.91417805       0.32157747       0.99187268 </v>
    <v>       0.64712623       0.00847736       0.71326215 </v>
    <v>       0.08582195       0.40739942       0.49187268 </v>
    <v>       0.32157747       0.91417805       0.49187268 </v>
    <v>       0.35287377       0.36135113       0.21326215 </v>
    <v>       0.59260058       0.67842253       0.49187268 </v>
    <v>       0.99152264       0.63864887       0.71326215 </v>
    <v>       0.36135113       0.35287377       0.71326215 </v>
    <v>       0.67842253       0.59260058       0.99187268 </v>
    <v>       0.40739942       0.08582195       0.99187268 </v>
    <v>       0.21311138       0.30040483       0.46674092 </v>
    <v>       0.08729345       0.78688862       0.46674092 </v>
    <v>       0.30040483       0.21311138       0.96674092 </v>
    <v>       0.69959517       0.91270655       0.46674092 </v>
    <v>       0.00000000       0.00000000       0.95692726 </v>
    <v>       0.06686359       0.48449764       0.78259872 </v>
    <v>       0.00000000       0.00000000       0.45692726 </v>
    <v>       0.66666667       0.33333333       0.47577702 </v>
    <v>       0.58236595       0.51550236       0.28259872 </v>
    <v>       0.78688862       0.08729345       0.96674092 </v>
    <v>       0.91270655       0.69959517       0.96674092 </v>
    <v>       0.33333333       0.66666667       0.97577702 </v>
    <v>       0.93313641       0.41763405       0.28259872 </v>
    <v>       0.41763405       0.93313641       0.78259872 </v>
    <v>       0.51550236       0.58236595       0.78259872 </v>
    <v>       0.48449764       0.06686359       0.28259872 </v>
   </varray>
  </structure>
  <varray name="forces" >
   <v>      -0.12241083       0.20650079       0.13191360 </v>
   <v>       0.24004034       0.00276049       0.13191360 </v>
   <v>       0.10137526      -0.02357450       0.16022693 </v>
   <v>      -0.12241083      -0.20650079       0.13191360 </v>
   <v>      -0.07110375       0.07600630       0.16022693 </v>
   <v>       0.10137526       0.02357450       0.16022693 </v>
   <v>      -0.11762952      -0.20926128       0.13191360 </v>
   <v>      -0.03027151      -0.09958080       0.16022693 </v>
   <v>       0.24004034      -0.00276049       0.13191360 </v>
   <v>      -0.11762952       0.20926128       0.13191360 </v>
   <v>      -0.03027151       0.09958080       0.16022693 </v>
   <v>      -0.07110375      -0.07600630       0.16022693 </v>
   <v>       0.30527876       0.03081732       0.01173814 </v>
   <v>      -0.12595079      -0.27978782       0.01173814 </v>
   <v>       0.30527876      -0.03081732       0.01173814 </v>
   <v>      -0.17932796       0.24897050       0.01173814 </v>
   <v>       0.00000000       0.00000000       0.04589767 </v>
   <v>      -0.10645892       0.15059724      -0.15398211 </v>
   <v>       0.00000000       0.00000000       0.04589767 </v>
   <v>       0.00000000       0.00000000      -0.49558734 </v>
   <v>      -0.07719158       0.16749475      -0.15398211 </v>
   <v>      -0.12595079       0.27978782       0.01173814 </v>
   <v>      -0.17932796      -0.24897050       0.01173814 </v>
   <v>       0.00000000       0.00000000      -0.49558734 </v>
   <v>       0.18365050      -0.01689751      -0.15398211 </v>
   <v>       0.18365050       0.01689751      -0.15398211 </v>
   <v>      -0.07719158      -0.16749475      -0.15398211 </v>
   <v>      -0.10645892      -0.15059724      -0.15398211 </v>
  </varray>
  <varray name="stress" >
   <v>     -47.39667151       0.00000000       0.00000000 </v>
   <v>       0.00000000     -47.39667151       0.00000000 </v>
   <v>      -0.00000000      -0.00000000     -98.71536233 </v>
  </varray>
  <energy>
   <i name="e_fr_energy">   -201.73854164 </i>
   <i name="e_wo_entrp">   -201.73629653 </i>
   <i name="e_0_energy">     -0.00898044 </i>
  </energy>
  <time name="totalsc">  142.66  142.97</time>
 </calculation>
 <calculation>
  <scstep>
   <time name="dav">   10.04   10.05</time>
   <time name="total">   10.49   10.50</time>
   <energy>
    <i name="alphaZ">    132.80870079 </i>
    <i name="ewald">  -4143.83087620 </i>
    <i name="hartreedc">  -1315.35817588 </i>
    <i name="XCdc">    112.03687672 </i>
    <i name="pawpsdc">  15522.26417379 </i>
    <i name="pawaedc"> -15259.09286630 </i>
    <i name="eentropy">     -0.00982135 </i>
    <i name="bandstr">    -73.35801436 </i>
    <i name="atom">   4822.75196862 </i>
    <i name="e_fr_energy">   -201.78803417 </i>
    <i name="e_wo_entrp">   -201.77821282 </i>
    <i name="e_0_energy">   -201.78557883 </i>
   </energy>
  </scstep>
  <scstep>
   <time name="diag">    1.21    1.22</time>
   <time name="diis">    6.64    6.65</time>
   <time name="orth">    0.12    0.12</time>
   <time name="total">    8.42    8.43</time>
   <energy>
    <i name="e_fr_energy">   -201.79880813 </i>
    <i name="e_wo_entrp">   -201.78940320 </i>
    <i name="e_0_energy">   -201.79645690 </i>
   </energy>
  </scstep>
  <scstep>
   <time name="diag">    1.22    1.22</time>
   <time name="diis">    6.22    6.22</time>
   <time name="orth">    0.12    0.12</time>
   <time name="total">    8.02    8.02</time>
   <energy>
    <i name="e_fr_energy">   -201.79678287 </i>
    <i name="e_wo_entrp">   -201.78703608 </i>
    <i name="e_0_energy">   -201.79434618 </i>
   </energy>
  </scstep>
  <scstep>
   <time name="diag">    2.95    2.95</time>
   <time name="diis">    6.82    6.82</time>
   <time name="orth">    0.12    0.12</time>
   <time name="total">   10.42   10.42</time>
   <energy>
    <i name="e_fr_energy">   -201.79593176 </i>
    <i name="e_wo_entrp">   -201.78636643 </i>
    <i name="e_0_energy">   -201.79354042 </i>
   </energy>
  </scstep>
  <scstep>
   <time name="diag">    1.21    1.21</time>
   <time name="diis">    5.70    5.70</time>
   <time name="orth">    0.12    0.12</time>
   <time name="total">    7.49    7.49</time>
   <energy>
    <i name="e_fr_energy">   -201.79582115 </i>
    <i name="e_wo_entrp">   -201.78613323 </i>
    <i name="e_0_energy">   -201.79339917 </i>
   </energy>
  </scstep>
  <scstep>
   <time name="diag">    1.21    1.21</time>
   <time name="diis">    3.96    3.97</time>
   <time name="orth">    0.12    0.12</time>
   <time name="total">    5.42    5.52</time>
   <energy>
    <i name="alphaZ">    132.80870079 </i>
    <i name="ewald">  -4143.83087620 </i>
    <i name="hartreedc">  -1316.81599834 </i>
    <i name="XCdc">    112.15155313 </i>
    <i name="pawpsdc">  15700.52956886 </i>
    <i name="pawaedc"> -15437.41990952 </i>
    <i name="eentropy">     -0.00968146 </i>
    <i name="bandstr">    -71.96115956 </i>
    <i name="atom">   4822.75196862 </i>
    <i name="e_fr_energy">   -201.79583369 </i>
    <i name="e_wo_entrp">   -201.78615222 </i>
    <i name="e_0_energy">   -201.79341332 </i>
   </energy>
  </scstep>
  <structure>
   <crystal>
    <varray name="basis" >
     <v>       4.35694689      -7.54645338       0.00000000 </v>
     <v>       4.35694689       7.54645338       0.00000000 </v>
     <v>       0.00000000       0.00000000       5.58342729 </v>
    </varray>
    <i name="volume">    367.16055676 </i>
    <varray name="rec_basis" >
     <v>       0.11475926      -0.06625629       0.00000000 </v>
     <v>       0.11475926       0.06625629       0.00000000 </v>
     <v>       0.00000000       0.00000000       0.17910146 </v>
    </varray>
   </crystal>
   <varray name="positions" >
    <v>       0.00713960       0.64710858       0.21440193 </v>
    <v>       0.63996898       0.99286040       0.21440193 </v>
    <v>       0.91481465       0.32206336       0.99325709 </v>
    <v>       0.64710858       0.00713960       0.71440193 </v>
    <v>       0.08518535       0.40724871       0.49325709 </v>
    <v>       0.32206336       0.91481465       0.49325709 </v>
    <v>       0.35289142       0.36003102       0.21440193 </v>
    <v>       0.59275129       0.67793664       0.49325709 </v>
    <v>       0.99286040       0.63996898       0.71440193 </v>
    <v>       0.36003102       0.35289142       0.71440193 </v>
    <v>       0.67793664       0.59275129       0.99325709 </v>
    <v>       0.40724871       0.08518535       0.99325709 </v>
    <v>       0.21470299       0.30219344       0.46684234 </v>
    <v>       0.08749045       0.78529701       0.46684234 </v>
    <v>       0.30219344       0.21470299       0.96684234 </v>
    <v>       0.69780656       0.91250955       0.46684234 </v>
    <v>      -0.00000000       0.00000000       0.95732383 </v>
    <v>       0.06579284       0.48438961       0.78126827 </v>
    <v>      -0.00000000       0.00000000       0.45732383 </v>
    <v>       0.66666667       0.33333333       0.47149498 </v>
    <v>       0.58140322       0.51561039       0.28126827 </v>
    <v>       0.78529701       0.08749045       0.96684234 </v>
    <v>       0.91250955       0.69780656       0.96684234 </v>
    <v>       0.33333333       0.66666667       0.97149498 </v>
    <v>       0.93420716       0.41859678       0.28126827 </v>
    <v>       0.41859678       0.93420716       0.78126827 </v>
    <v>       0.51561039       0.58140322       0.78126827 </v>
    <v>       0.48438961       0.06579284       0.28126827 </v>
   </varray>
  </structure>
  <varray name="forces" >
   <v>      -0.10956810       0.01841279       0.07613977 </v>
   <v>       0.07073000       0.08568236       0.07613977 </v>
   <v>       0.02615379      -0.02540889      -0.07720957 </v>
   <v>      -0.10956810      -0.01841279       0.07613977 </v>
   <v>      -0.03508164       0.00994540      -0.07720957 </v>
   <v>       0.02615379       0.02540889      -0.07720957 </v>
   <v>       0.03883810      -0.10409516       0.07613977 </v>
   <v>       0.00892785      -0.03535429      -0.07720957 </v>
   <v>       0.07073000      -0.08568236       0.07613977 </v>
   <v>       0.03883810       0.10409516       0.07613977 </v>
   <v>       0.00892785       0.03535429      -0.07720957 </v>
   <v>      -0.03508164      -0.00994540      -0.07720957 </v>
   <v>      -0.13721331       0.09685526       0.06884240 </v>
   <v>       0.15248577       0.07040258       0.06884240 </v>
   <v>      -0.13721331      -0.09685526       0.06884240 </v>
   <v>      -0.01527246      -0.16725784       0.06884240 </v>
   <v>       0.00000000      -0.00000000       0.05049224 </v>
   <v>      -0.04913102       0.01793226       0.05308849 </v>
   <v>       0.00000000      -0.00000000       0.05049224 </v>
   <v>       0.00000000      -0.00000000      -0.41307551 </v>
   <v>       0.00903572       0.05151484       0.05308849 </v>
   <v>       0.15248577      -0.07040258       0.06884240 </v>
   <v>      -0.01527246       0.16725784       0.06884240 </v>
   <v>       0.00000000      -0.00000000      -0.41307551 </v>
   <v>       0.04009530      -0.03358258       0.05308849 </v>
   <v>       0.04009530       0.03358258       0.05308849 </v>
   <v>       0.00903572      -0.05151484       0.05308849 </v>
   <v>      -0.04913102      -0.01793226       0.05308849 </v>
  </varray>
  <varray name="stress" >
   <v>     -44.01485452       0.00000000       0.00000000 </v>
   <v>       0.00000000     -44.01485452      -0.00000000 </v>
   <v>       0.00000000       0.00000000     -86.95959621 </v>
  </varray>
  <energy>
   <i name="e_fr_energy">   -201.79583369 </i>
   <i name="e_wo_entrp">   -201.79341332 </i>
   <i name="e_0_energy">     -0.00968146 </i>
  </energy>
  <time name="totalsc">   64.27   64.41</time>
 </calculation>
 <calculation>
  <scstep>
   <time name="dav">   11.07   11.07</time>
   <time name="total">   11.95   11.95</time>
   <energy>
    <i name="alphaZ">    132.80870079 </i>
    <i name="ewald">  -4141.52256424 </i>
    <i name="hartreedc">  -1318.40245464 </i>
    <i name="XCdc">    112.19360116 </i>
    <i name="pawpsdc">  15709.48912506 </i>
    <i name="pawaedc"> -15446.38088896 </i>
    <i name="eentropy">     -0.00974949 </i>
    <i name="bandstr">    -72.72450770 </i>
    <i name="atom">   4822.75196862 </i>
    <i name="e_fr_energy">   -201.79676940 </i>
    <i name="e_wo_entrp">   -201.78701992 </i>
    <i name="e_0_energy">   -201.79433203 </i>
   </energy>
  </scstep>
  <scstep>
   <time name="diag">    1.14    1.14</time>
   <time name="diis">    6.31    6.31</time>
   <time name="orth">    0.12    0.12</time>
   <time name="total">    8.03    8.03</time>
   <energy>
    <i name="e_fr_energy">   -201.79706721 </i>
    <i name="e_wo_entrp">   -201.78736753 </i>
    <i name="e_0_energy">   -201.79464229 </i>
   </energy>
  </scstep>
  <scstep>
   <time name="diag">    1.07    1.07</time>
   <time name="diis">    4.46    4.46</time>
   <time name="orth">    0.20    0.20</time>
   <time name="total">    5.79    5.79</time>
   <energy>
    <i name="alphaZ">    132.80870079 </i>
    <i name="ewald">  -4141.52256424 </i>
    <i name="hartreedc">  -1318.58549254 </i>
    <i name="XCdc">    112.20763154 </i>
    <i name="pawpsdc">  15720.78802349 </i>
    <i name="pawaedc"> -15457.68557439 </i>
    <i name="eentropy">     -0.00973550 </i>
    <i name="bandstr">    -72.54997466 </i>
    <i name="atom">   4822.75196862 </i>
    <i name="e_fr_energy">   -201.79701688 </i>
    <i name="e_wo_entrp">   -201.78728138 </i>
    <i name="e_0_energy">   -201.79458300 </i>
   </energy>
  </scstep>
  <structure>
   <crystal>
    <varray name="basis" >
     <v>       4.35694689      -7.54645338       0.00000000 </v>
     <v>       4.35694689       7.54645338       0.00000000 </v>
     <v>       0.00000000       0.00000000       5.58342729 </v>
    </varray>
    <i name="volume">    367.16055676 </i>
    <varray name="rec_basis" >
     <v>       0.11475926      -0.06625629       0.00000000 </v>
     <v>       0.11475926       0.06625629       0.00000000 </v>
     <v>       0.00000000       0.00000000       0.17910146 </v>
    </varray>
   </crystal>
   <varray name="positions" >
    <v>       0.00691998       0.64710569       0.21458905 </v>
    <v>       0.64018571       0.99308002       0.21458905 </v>
    <v>       0.91491916       0.32214313       0.99348438 </v>
    <v>       0.64710569       0.00691998       0.71458905 </v>
    <v>       0.08508084       0.40722397       0.49348438 </v>
    <v>       0.32214313       0.91491916       0.49348438 </v>
    <v>       0.35289431       0.35981429       0.21458905 </v>
    <v>       0.59277603       0.67785687       0.49348438 </v>
    <v>       0.99308002       0.64018571       0.71458905 </v>
    <v>       0.35981429       0.35289431       0.71458905 </v>
    <v>       0.67785687       0.59277603       0.99348438 </v>
    <v>       0.40722397       0.08508084       0.99348438 </v>
    <v>       0.21496429       0.30248709       0.46685899 </v>
    <v>       0.08752280       0.78503571       0.46685899 </v>
    <v>       0.30248709       0.21496429       0.96685899 </v>
    <v>       0.69751291       0.91247720       0.46685899 </v>
    <v>      -0.00000000       0.00000000       0.95738894 </v>
    <v>       0.06561705       0.48437188       0.78104984 </v>
    <v>      -0.00000000       0.00000000       0.45738894 </v>
    <v>       0.66666667       0.33333333       0.47079197 </v>
    <v>       0.58124517       0.51562812       0.28104984 </v>
    <v>       0.78503571       0.08752280       0.96685899 </v>
    <v>       0.91247720       0.69751291       0.96685899 </v>
    <v>       0.33333333       0.66666667       0.97079197 </v>
    <v>       0.93438295       0.41875483       0.28104984 </v>
    <v>       0.41875483       0.93438295       0.78104984 </v>
    <v>       0.51562812       0.58124517       0.78104984 </v>
    <v>       0.48437188       0.06561705       0.28104984 </v>
   </varray>
  </structure>
  <varray name="forces" >
   <v>      -0.11031016      -0.01036458       0.06596734 </v>
   <v>       0.04617909       0.10071369       0.06596734 </v>
   <v>       0.01566142      -0.02616680      -0.11346479 </v>
   <v>      -0.11031016       0.01036458       0.06596734 </v>
   <v>      -0.03049183       0.00047979      -0.11346479 </v>
   <v>       0.01566142       0.02616680      -0.11346479 </v>
   <v>       0.06413107      -0.09034911       0.06596734 </v>
   <v>       0.01483041      -0.02664659      -0.11346479 </v>
   <v>       0.04617909      -0.10071369       0.06596734 </v>
   <v>       0.06413107       0.09034911       0.06596734 </v>
   <v>       0.01483041       0.02664659      -0.11346479 </v>
   <v>      -0.03049183      -0.00047979      -0.11346479 </v>
   <v>      -0.20793452       0.10757047       0.07813940 </v>
   <v>       0.19712602       0.12629134       0.07813940 </v>
   <v>      -0.20793452      -0.10757047       0.07813940 </v>
   <v>       0.01080850      -0.23386182       0.07813940 </v>
   <v>      -0.00000000       0.00000000       0.05073244 </v>
   <v>      -0.04035072      -0.00257616       0.08600146 </v>
   <v>      -0.00000000       0.00000000       0.05073244 </v>
   <v>      -0.00000000       0.00000000      -0.40066269 </v>
   <v>       0.02240638       0.03365667       0.08600146 </v>
   <v>       0.19712602      -0.12629134       0.07813940 </v>
   <v>       0.01080850       0.23386182       0.07813940 </v>
   <v>      -0.00000000       0.00000000      -0.40066269 </v>
   <v>       0.01794434      -0.03623283       0.08600146 </v>
   <v>       0.01794434       0.03623283       0.08600146 </v>
   <v>       0.02240638      -0.03365667       0.08600146 </v>
   <v>      -0.04035072       0.00257616       0.08600146 </v>
  </varray>
  <varray name="stress" >
   <v>     -43.10604558      -0.00000000      -0.00000000 </v>
   <v>      -0.00000000     -43.10604558      -0.00000000 </v>
   <v>       0.00000000      -0.00000000     -84.84609682 </v>
  </varray>
  <energy>
   <i name="e_fr_energy">   -201.79701688 </i>
   <i name="e_wo_entrp">   -201.79458300 </i>
   <i name="e_0_energy">     -0.00973550 </i>
  </energy>
  <time name="totalsc">   40.54   40.55</time>
 </calculation>
 <calculation>
  <scstep>
   <time name="dav">    9.26    9.27</time>
   <time name="total">   10.31   10.46</time>
   <energy>
    <i name="alphaZ">    132.80870079 </i>
    <i name="ewald">  -4137.21830478 </i>
    <i name="hartreedc">  -1321.37580246 </i>
    <i name="XCdc">    112.31727544 </i>
    <i name="pawpsdc">  15731.13207651 </i>
    <i name="pawaedc"> -15468.03230782 </i>
    <i name="eentropy">     -0.00914950 </i>
    <i name="bandstr">    -74.19780974 </i>
    <i name="atom">   4822.75196862 </i>
    <i name="e_fr_energy">   -201.82335293 </i>
    <i name="e_wo_entrp">   -201.81420343 </i>
    <i name="e_0_energy">   -201.82106556 </i>
   </energy>
  </scstep>
  <scstep>
   <time name="diag">    1.21    1.21</time>
   <time name="diis">    6.61    6.61</time>
   <time name="orth">    0.12    0.12</time>
   <time name="total">    8.39    8.39</time>
   <energy>
    <i name="e_fr_energy">   -201.83046725 </i>
    <i name="e_wo_entrp">   -201.82066316 </i>
    <i name="e_0_energy">   -201.82801623 </i>
   </energy>
  </scstep>
  <scstep>
   <time name="diag">    1.21    1.21</time>
   <time name="diis">    6.07    6.07</time>
   <time name="orth">    0.11    0.11</time>
   <time name="total">    7.86    7.86</time>
   <energy>
    <i name="e_fr_energy">   -201.82947888 </i>
    <i name="e_wo_entrp">   -201.81998480 </i>
    <i name="e_0_energy">   -201.82710536 </i>
   </energy>
  </scstep>
  <scstep>
   <time name="diag">    1.14    1.14</time>
   <time name="diis">    5.86    5.86</time>
   <time name="orth">    0.10    0.10</time>
   <time name="total">    7.53    7.57</time>
   <energy>
    <i name="e_fr_energy">   -201.82892171 </i>
    <i name="e_wo_entrp">   -201.81931183 </i>
    <i name="e_0_energy">   -201.82651924 </i>
   </energy>
  </scstep>
  <scstep>
   <time name="diag">    1.03    1.03</time>
   <time name="diis">    4.42    4.42</time>
   <time name="orth">    0.11    0.11</time>
   <time name="total">    5.61    5.62</time>
   <energy>
    <i name="alphaZ">    132.80870079 </i>
    <i name="ewald">  -4137.21830478 </i>
    <i name="hartreedc">  -1321.91353651 </i>
    <i name="XCdc">    112.36364928 </i>
    <i name="pawpsdc">  15818.64428437 </i>
    <i name="pawaedc"> -15555.57806015 </i>
    <i name="eentropy">     -0.00954459 </i>
    <i name="bandstr">    -73.67802187 </i>
    <i name="atom">   4822.75196862 </i>
    <i name="e_fr_energy">   -201.82886484 </i>
    <i name="e_wo_entrp">   -201.81932025 </i>
    <i name="e_0_energy">   -201.82647869 </i>
   </energy>
  </scstep>
  <structure>
   <crystal>
    <varray name="basis" >
     <v>       4.35694689      -7.54645338       0.00000000 </v>
     <v>       4.35694689       7.54645338       0.00000000 </v>
     <v>       0.00000000       0.00000000       5.58342729 </v>
    </varray>
    <i name="volume">    367.16055676 </i>
    <varray name="rec_basis" >
     <v>       0.11475926      -0.06625629       0.00000000 </v>
     <v>       0.11475926       0.06625629       0.00000000 </v>
     <v>       0.00000000       0.00000000       0.17910146 </v>
    </varray>
   </crystal>
   <varray name="positions" >
    <v>       0.00571556       0.64643269       0.21569566 </v>
    <v>       0.64071713       0.99428444       0.21569566 </v>
    <v>       0.91538437       0.32236709       0.99310089 </v>
    <v>       0.64643269       0.00571556       0.71569566 </v>
    <v>       0.08461563       0.40698272       0.49310089 </v>
    <v>       0.32236709       0.91538437       0.49310089 </v>
    <v>       0.35356731       0.35928287       0.21569566 </v>
    <v>       0.59301728       0.67763291       0.49310089 </v>
    <v>       0.99428444       0.64071713       0.71569566 </v>
    <v>       0.35928287       0.35356731       0.71569566 </v>
    <v>       0.67763291       0.59301728       0.99310089 </v>
    <v>       0.40698272       0.08461563       0.99310089 </v>
    <v>       0.21414340       0.30246597       0.46760239 </v>
    <v>       0.08832257       0.78585660       0.46760239 </v>
    <v>       0.30246597       0.21414340       0.96760239 </v>
    <v>       0.69753403       0.91167743       0.46760239 </v>
    <v>      -0.00000000       0.00000000       0.95802188 </v>
    <v>       0.06490827       0.48408356       0.78121276 </v>
    <v>      -0.00000000       0.00000000       0.45802188 </v>
    <v>       0.66666667       0.33333333       0.46527070 </v>
    <v>       0.58082471       0.51591644       0.28121276 </v>
    <v>       0.78585660       0.08832257       0.96760239 </v>
    <v>       0.91167743       0.69753403       0.96760239 </v>
    <v>       0.33333333       0.66666667       0.96527070 </v>
    <v>       0.93509173       0.41917529       0.28121276 </v>
    <v>       0.41917529       0.93509173       0.78121276 </v>
    <v>       0.51591644       0.58082471       0.78121276 </v>
    <v>       0.48408356       0.06490827       0.28121276 </v>
   </varray>
  </structure>
  <varray name="forces" >
   <v>       0.04553299       0.05404327       0.07640227 </v>
   <v>       0.02403635      -0.06645436       0.07640227 </v>
   <v>       0.03114077       0.00873748      -0.05403691 </v>
   <v>       0.04553299      -0.05404327       0.07640227 </v>
   <v>      -0.00800350       0.03133744      -0.05403691 </v>
   <v>       0.03114077      -0.00873748      -0.05403691 </v>
   <v>      -0.06956934       0.01241109       0.07640227 </v>
   <v>      -0.02313726      -0.02259996      -0.05403691 </v>
   <v>       0.02403635       0.06645436       0.07640227 </v>
   <v>      -0.06956934      -0.01241109       0.07640227 </v>
   <v>      -0.02313726       0.02259996      -0.05403691 </v>
   <v>      -0.00800350      -0.03133744      -0.05403691 </v>
   <v>      -0.12311398      -0.05404642       0.02720780 </v>
   <v>       0.01475141       0.13364304       0.02720780 </v>
   <v>      -0.12311398       0.05404642       0.02720780 </v>
   <v>       0.10836256      -0.07959662       0.02720780 </v>
   <v>       0.00000000      -0.00000000       0.05495214 </v>
   <v>      -0.01813005      -0.04068969       0.00247610 </v>
   <v>       0.00000000      -0.00000000       0.05495214 </v>
   <v>       0.00000000      -0.00000000      -0.21109995 </v>
   <v>       0.04430333      -0.00464376       0.00247610 </v>
   <v>       0.01475141      -0.13364304       0.02720780 </v>
   <v>       0.10836256       0.07959662       0.02720780 </v>
   <v>       0.00000000      -0.00000000      -0.21109995 </v>
   <v>      -0.02617328      -0.03604593       0.00247610 </v>
   <v>      -0.02617328       0.03604593       0.00247610 </v>
   <v>       0.04430333       0.00464376       0.00247610 </v>
   <v>      -0.01813005       0.04068969       0.00247610 </v>
  </varray>
  <varray name="stress" >
   <v>     -38.96438992       0.00000000      -0.00000000 </v>
   <v>       0.00000000     -38.96438992      -0.00000000 </v>
   <v>       0.00000000       0.00000000     -84.85982207 </v>
  </varray>
  <energy>
   <i name="e_fr_energy">   -201.82886484 </i>
   <i name="e_wo_entrp">   -201.82647869 </i>
   <i name="e_0_energy">     -0.00954459 </i>
  </energy>
  <time name="totalsc">   49.67   49.87</time>
 </calculation>
 <calculation>
  <scstep>
   <time name="dav">    9.34    9.34</time>
   <time name="total">   10.51   10.52</time>
   <energy>
    <i name="alphaZ">    132.80870079 </i>
    <i name="ewald">  -4134.55772608 </i>
    <i name="hartreedc">  -1323.58129927 </i>
    <i name="XCdc">    112.42671653 </i>
    <i name="pawpsdc">  15821.90033959 </i>
    <i name="pawaedc"> -15558.83465253 </i>
    <i name="eentropy">     -0.00913583 </i>
    <i name="bandstr">    -74.73663528 </i>
    <i name="atom">   4822.75196862 </i>
    <i name="e_fr_energy">   -201.83172346 </i>
    <i name="e_wo_entrp">   -201.82258763 </i>
    <i name="e_0_energy">   -201.82943950 </i>
   </energy>
  </scstep>
  <scstep>
   <time name="diag">    1.21    1.21</time>
   <time name="diis">    6.68    6.68</time>
   <time name="orth">    0.12    0.12</time>
   <time name="total">    8.46    8.47</time>
   <energy>
    <i name="e_fr_energy">   -201.83449864 </i>
    <i name="e_wo_entrp">   -201.82486364 </i>
    <i name="e_0_energy">   -201.83208989 </i>
   </energy>
  </scstep>
  <scstep>
   <time name="diag">    1.20    1.20</time>
   <time name="diis">    6.65    6.65</time>
   <time name="orth">    0.12    0.12</time>
   <time name="total">    8.43    8.43</time>
   <energy>
    <i name="e_fr_energy">   -201.83412787 </i>
    <i name="e_wo_entrp">   -201.82478313 </i>
    <i name="e_0_energy">   -201.83179169 </i>
   </energy>
  </scstep>
  <scstep>
   <time name="diag">    1.19    1.19</time>
   <time name="diis">    5.39    5.39</time>
   <time name="orth">    0.12    0.12</time>
   <time name="total">    7.17    7.17</time>
   <energy>
    <i name="e_fr_energy">   -201.83391826 </i>
    <i name="e_wo_entrp">   -201.82445721 </i>
    <i name="e_0_energy">   -201.83155299 </i>
   </energy>
  </scstep>
  <scstep>
   <time name="diag">    1.20    1.20</time>
   <time name="diis">    4.20    4.20</time>
   <time name="orth">    0.12    0.12</time>
   <time name="total">    5.58    5.58</time>
   <energy>
    <i name="alphaZ">    132.80870079 </i>
    <i name="ewald">  -4134.55772608 </i>
    <i name="hartreedc">  -1323.92652395 </i>
    <i name="XCdc">    112.45588727 </i>
    <i name="pawpsdc">  15873.22497113 </i>
    <i name="pawaedc"> -15610.17936476 </i>
    <i name="eentropy">     -0.00940813 </i>
    <i name="bandstr">    -74.40239458 </i>
    <i name="atom">   4822.75196862 </i>
    <i name="e_fr_energy">   -201.83388968 </i>
    <i name="e_wo_entrp">   -201.82448155 </i>
    <i name="e_0_energy">   -201.83153765 </i>
   </energy>
  </scstep>
  <structure>
   <crystal>
    <varray name="basis" >
     <v>       4.35694689      -7.54645338       0.00000000 </v>
     <v>       4.35694689       7.54645338       0.00000000 </v>
     <v>       0.00000000       0.00000000       5.58342729 </v>
    </varray>
    <i name="volume">    367.16055676 </i>
    <varray name="rec_basis" >
     <v>       0.11475926      -0.06625629       0.00000000 </v>
     <v>       0.11475926       0.06625629       0.00000000 </v>
     <v>       0.00000000       0.00000000       0.17910146 </v>
    </varray>
   </crystal>
   <varray name="positions" >
    <v>       0.00498406       0.64602395       0.21636775 </v>
    <v>       0.64103989       0.99501594       0.21636775 </v>
    <v>       0.91566691       0.32250310       0.99286798 </v>
    <v>       0.64602395       0.00498406       0.71636775 </v>
    <v>       0.08433309       0.40683619       0.49286798 </v>
    <v>       0.32250310       0.91566691       0.49286798 </v>
    <v>       0.35397605       0.35896011       0.21636775 </v>
    <v>       0.59316381       0.67749690       0.49286798 </v>
    <v>       0.99501594       0.64103989       0.71636775 </v>
    <v>       0.35896011       0.35397605       0.71636775 </v>
    <v>       0.67749690       0.59316381       0.99286798 </v>
    <v>       0.40683619       0.08433309       0.99286798 </v>
    <v>       0.21364484       0.30245315       0.46805390 </v>
    <v>       0.08880831       0.78635516       0.46805390 </v>
    <v>       0.30245315       0.21364484       0.96805390 </v>
    <v>       0.69754685       0.91119169       0.46805390 </v>
    <v>      -0.00000000       0.00000000       0.95840629 </v>
    <v>       0.06447780       0.48390845       0.78131171 </v>
    <v>      -0.00000000       0.00000000       0.45840629 </v>
    <v>       0.66666667       0.33333333       0.46191737 </v>
    <v>       0.58056935       0.51609155       0.28131171 </v>
    <v>       0.78635516       0.08880831       0.96805390 </v>
    <v>       0.91119169       0.69754685       0.96805390 </v>
    <v>       0.33333333       0.66666667       0.96191737 </v>
    <v>       0.93552220       0.41943065       0.28131171 </v>
    <v>       0.41943065       0.93552220       0.78131171 </v>
    <v>       0.51609155       0.58056935       0.78131171 </v>
    <v>       0.48390845       0.06447780       0.28131171 </v>
   </varray>
  </structure>
  <varray name="forces" >
   <v>       0.14042105       0.09577090       0.07940257 </v>
   <v>       0.01272951      -0.16949364       0.07940257 </v>
   <v>       0.04123065       0.03089252      -0.01299056 </v>
   <v>       0.14042105      -0.09577090       0.07940257 </v>
   <v>       0.00613838       0.05115305      -0.01299056 </v>
   <v>       0.04123065      -0.03089252      -0.01299056 </v>
   <v>      -0.15315056       0.07372274       0.07940257 </v>
   <v>      -0.04736903      -0.02026053      -0.01299056 </v>
   <v>       0.01272951       0.16949364       0.07940257 </v>
   <v>      -0.15315056      -0.07372274       0.07940257 </v>
   <v>      -0.04736903       0.02026053      -0.01299056 </v>
   <v>       0.00613838      -0.05115305      -0.01299056 </v>
   <v>      -0.07279943      -0.15353055      -0.00343710 </v>
   <v>      -0.09656164       0.13981143      -0.00343710 </v>
   <v>      -0.07279943       0.15353055      -0.00343710 </v>
   <v>       0.16936107       0.01371912      -0.00343710 </v>
   <v>      -0.00000000      -0.00000000       0.05673049 </v>
   <v>      -0.00411221      -0.06535623      -0.05117893 </v>
   <v>      -0.00000000      -0.00000000       0.05673049 </v>
   <v>      -0.00000000      -0.00000000      -0.09211843 </v>
   <v>       0.05865626      -0.02911684      -0.05117893 </v>
   <v>      -0.09656164      -0.13981143      -0.00343710 </v>
   <v>       0.16936107      -0.01371912      -0.00343710 </v>
   <v>      -0.00000000      -0.00000000      -0.09211843 </v>
   <v>      -0.05454405      -0.03623939      -0.05117893 </v>
   <v>      -0.05454405       0.03623939      -0.05117893 </v>
   <v>       0.05865626       0.02911684      -0.05117893 </v>
   <v>      -0.00411221       0.06535623      -0.05117893 </v>
  </varray>
  <varray name="stress" >
   <v>     -36.06698853       0.00000000       0.00000000 </v>
   <v>       0.00000000     -36.06698853      -0.00000000 </v>
   <v>       0.00000000      -0.00000000     -84.66119329 </v>
  </varray>
  <energy>
   <i name="e_fr_energy">   -201.83388968 </i>
   <i name="e_wo_entrp">   -201.83153765 </i>
   <i name="e_0_energy">     -0.00940813 </i>
  </energy>
  <time name="totalsc">   55.13   55.14</time>
 </calculation>
 <calculation>
  <scstep>
   <time name="dav">    9.18    9.18</time>
   <time name="total">   10.25   10.26</time>
   <energy>
    <i name="alphaZ">    132.80870079 </i>
    <i name="ewald">  -4135.94538694 </i>
    <i name="hartreedc">  -1322.14417532 </i>
    <i name="XCdc">    112.48563636 </i>
    <i name="pawpsdc">  15875.31902794 </i>
    <i name="pawaedc"> -15612.27382768 </i>
    <i name="eentropy">     -0.00793603 </i>
    <i name="bandstr">    -74.83448984 </i>
    <i name="atom">   4822.75196862 </i>
    <i name="e_fr_energy">   -201.84048209 </i>
    <i name="e_wo_entrp">   -201.83254606 </i>
    <i name="e_0_energy">   -201.83849808 </i>
   </energy>
  </scstep>
  <scstep>
   <time name="diag">    1.18    1.18</time>
   <time name="diis">    6.72    6.72</time>
   <time name="orth">    0.12    0.12</time>
   <time name="total">    8.47    8.47</time>
   <energy>
    <i name="e_fr_energy">   -201.84920572 </i>
    <i name="e_wo_entrp">   -201.83953705 </i>
    <i name="e_0_energy">   -201.84678855 </i>
   </energy>
  </scstep>
  <scstep>
   <time name="diag">    1.22    1.22</time>
   <time name="diis">    6.96    6.97</time>
   <time name="orth">    0.13    0.13</time>
   <time name="total">    8.77    8.77</time>
   <energy>
    <i name="e_fr_energy">   -201.84715203 </i>
    <i name="e_wo_entrp">   -201.83822489 </i>
    <i name="e_0_energy">   -201.84492024 </i>
   </energy>
  </scstep>
  <scstep>
   <time name="diag">    1.21    1.21</time>
   <time name="diis">    6.03    6.03</time>
   <time name="orth">    0.13    0.13</time>
   <time name="total">    7.83    7.84</time>
   <energy>
    <i name="e_fr_energy">   -201.84635663 </i>
    <i name="e_wo_entrp">   -201.83716293 </i>
    <i name="e_0_energy">   -201.84405820 </i>
   </energy>
  </scstep>
  <scstep>
   <time name="diag">    1.21    1.21</time>
   <time name="diis">    6.08    6.09</time>
   <time name="orth">    0.12    0.12</time>
   <time name="total">    7.87    7.88</time>
   <energy>
    <i name="e_fr_energy">   -201.84621851 </i>
    <i name="e_wo_entrp">   -201.83711063 </i>
    <i name="e_0_energy">   -201.84394154 </i>
   </energy>
  </scstep>
  <scstep>
   <time name="diag">    1.20    1.20</time>
   <time name="diis">    4.25    4.25</time>
   <time name="orth">    0.12    0.12</time>
   <time name="total">    5.64    5.64</time>
   <energy>
    <i name="alphaZ">    132.80870079 </i>
    <i name="ewald">  -4135.94538694 </i>
    <i name="hartreedc">  -1322.21267571 </i>
    <i name="XCdc">    112.50451026 </i>
    <i name="pawpsdc">  15920.75582300 </i>
    <i name="pawaedc"> -15657.73110308 </i>
    <i name="eentropy">     -0.00913709 </i>
    <i name="bandstr">    -74.76891351 </i>
    <i name="atom">   4822.75196862 </i>
    <i name="e_fr_energy">   -201.84621365 </i>
    <i name="e_wo_entrp">   -201.83707656 </i>
    <i name="e_0_energy">   -201.84392938 </i>
   </energy>
  </scstep>
  <structure>
   <crystal>
    <varray name="basis" >
     <v>       4.35694689      -7.54645338       0.00000000 </v>
     <v>       4.35694689       7.54645338       0.00000000 </v>
     <v>       0.00000000       0.00000000       5.58342729 </v>
    </varray>
    <i name="volume">    367.16055676 </i>
    <varray name="rec_basis" >
     <v>       0.11475926      -0.06625629       0.00000000 </v>
     <v>       0.11475926       0.06625629       0.00000000 </v>
     <v>       0.00000000       0.00000000       0.17910146 </v>
    </varray>
   </crystal>
   <varray name="positions" >
    <v>       0.00483083       0.64688834       0.21780476 </v>
    <v>       0.64205751       0.99516917       0.21780476 </v>
    <v>       0.91608697       0.32301188       0.99251537 </v>
    <v>       0.64688834       0.00483083       0.71780476 </v>
    <v>       0.08391303       0.40692491       0.49251537 </v>
    <v>       0.32301188       0.91608697       0.49251537 </v>
    <v>       0.35311166       0.35794249       0.21780476 </v>
    <v>       0.59307509       0.67698812       0.49251537 </v>
    <v>       0.99516917       0.64205751       0.71780476 </v>
    <v>       0.35794249       0.35311166       0.71780476 </v>
    <v>       0.67698812       0.59307509       0.99251537 </v>
    <v>       0.40692491       0.08391303       0.99251537 </v>
    <v>       0.21326993       0.30140563       0.46845102 </v>
    <v>       0.08813570       0.78673007       0.46845102 </v>
    <v>       0.30140563       0.21326993       0.96845102 </v>
    <v>       0.69859437       0.91186430       0.46845102 </v>
    <v>      -0.00000000      -0.00000000       0.95934145 </v>
    <v>       0.06428199       0.48347275       0.78089408 </v>
    <v>      -0.00000000      -0.00000000       0.45934145 </v>
    <v>       0.66666667       0.33333333       0.45779054 </v>
    <v>       0.58080923       0.51652725       0.28089408 </v>
    <v>       0.78673007       0.08813570       0.96845102 </v>
    <v>       0.91186430       0.69859437       0.96845102 </v>
    <v>       0.33333333       0.66666667       0.95779054 </v>
    <v>       0.93571801       0.41919077       0.28089408 </v>
    <v>       0.41919077       0.93571801       0.78089408 </v>
    <v>       0.51652725       0.58080923       0.78089408 </v>
    <v>       0.48347275       0.06428199       0.28089408 </v>
   </varray>
  </structure>
  <varray name="forces" >
   <v>       0.01023649       0.00944633      -0.03311043 </v>
   <v>       0.00306252      -0.01358823      -0.03311043 </v>
   <v>      -0.08467826      -0.04804733       0.00233412 </v>
   <v>       0.01023649      -0.00944633      -0.03311043 </v>
   <v>       0.00072892      -0.09735719       0.00233412 </v>
   <v>      -0.08467826       0.04804733       0.00233412 </v>
   <v>      -0.01329901       0.00414190      -0.03311043 </v>
   <v>       0.08394934       0.04930986       0.00233412 </v>
   <v>       0.00306252       0.01358823      -0.03311043 </v>
   <v>      -0.01329901      -0.00414190      -0.03311043 </v>
   <v>       0.08394934      -0.04930986       0.00233412 </v>
   <v>       0.00072892       0.09735719       0.00233412 </v>
   <v>      -0.03973706      -0.00998874       0.08880236 </v>
   <v>       0.01121803       0.03940767       0.08880236 </v>
   <v>      -0.03973706       0.00998874       0.08880236 </v>
   <v>       0.02851903      -0.02941894       0.08880236 </v>
   <v>       0.00000000       0.00000000       0.05726531 </v>
   <v>       0.00866443       0.08923205      -0.08804544 </v>
   <v>       0.00000000       0.00000000       0.05726531 </v>
   <v>       0.00000000       0.00000000       0.03279283 </v>
   <v>      -0.08160944       0.03711240      -0.08804544 </v>
   <v>       0.01121803      -0.03940767       0.08880236 </v>
   <v>       0.02851903       0.02941894       0.08880236 </v>
   <v>       0.00000000       0.00000000       0.03279283 </v>
   <v>       0.07294500       0.05211964      -0.08804544 </v>
   <v>       0.07294500      -0.05211964      -0.08804544 </v>
   <v>      -0.08160944      -0.03711240      -0.08804544 </v>
   <v>       0.00866443      -0.08923205      -0.08804544 </v>
  </varray>
  <varray name="stress" >
   <v>     -36.34908973       0.00000000       0.00000000 </v>
   <v>       0.00000000     -36.34908973      -0.00000000 </v>
   <v>       0.00000000      -0.00000000     -79.13658012 </v>
  </varray>
  <energy>
   <i name="e_fr_energy">   -201.84621365 </i>
   <i name="e_wo_entrp">   -201.84392938 </i>
   <i name="e_0_energy">     -0.00913709 </i>
  </energy>
  <time name="totalsc">   62.12   62.16</time>
 </calculation>
 <calculation>
  <scstep>
   <time name="dav">    8.42    8.42</time>
   <time name="total">    9.09    9.09</time>
   <energy>
    <i name="alphaZ">    132.80870079 </i>
    <i name="ewald">  -4135.89357106 </i>
    <i name="hartreedc">  -1322.27874931 </i>
    <i name="XCdc">    112.50333556 </i>
    <i name="pawpsdc">  15921.06779360 </i>
    <i name="pawaedc"> -15658.04342337 </i>
    <i name="eentropy">     -0.00916335 </i>
    <i name="bandstr">    -74.75311686 </i>
    <i name="atom">   4822.75196862 </i>
    <i name="e_fr_energy">   -201.84622537 </i>
    <i name="e_wo_entrp">   -201.83706203 </i>
    <i name="e_0_energy">   -201.84393454 </i>
   </energy>
  </scstep>
  <scstep>
   <time name="diag">    1.03    1.03</time>
   <time name="diis">    3.37    3.37</time>
   <time name="orth">    0.12    0.12</time>
   <time name="total">    4.57    4.57</time>
   <energy>
    <i name="alphaZ">    132.80870079 </i>
    <i name="ewald">  -4135.89357106 </i>
    <i name="hartreedc">  -1322.27098419 </i>
    <i name="XCdc">    112.50230767 </i>
    <i name="pawpsdc">  15919.69555843 </i>
    <i name="pawaedc"> -15656.67079567 </i>
    <i name="eentropy">     -0.00910156 </i>
    <i name="bandstr">    -74.76031938 </i>
    <i name="atom">   4822.75196862 </i>
    <i name="e_fr_energy">   -201.84623635 </i>
    <i name="e_wo_entrp">   -201.83713478 </i>
    <i name="e_0_energy">   -201.84396096 </i>
   </energy>
  </scstep>
  <structure>
   <crystal>
    <varray name="basis" >
     <v>       4.35694689      -7.54645338       0.00000000 </v>
     <v>       4.35694689       7.54645338       0.00000000 </v>
     <v>       0.00000000       0.00000000       5.58342729 </v>
    </varray>
    <i name="volume">    367.16055676 </i>
    <varray name="rec_basis" >
     <v>       0.11475926      -0.06625629       0.00000000 </v>
     <v>       0.11475926       0.06625629       0.00000000 </v>
     <v>       0.00000000       0.00000000       0.17910146 </v>
    </varray>
   </crystal>
   <varray name="positions" >
    <v>       0.00483696       0.64685374       0.21774724 </v>
    <v>       0.64201678       0.99516304       0.21774724 </v>
    <v>       0.91607016       0.32299151       0.99252948 </v>
    <v>       0.64685374       0.00483696       0.71774724 </v>
    <v>       0.08392984       0.40692135       0.49252948 </v>
    <v>       0.32299151       0.91607016       0.49252948 </v>
    <v>       0.35314626       0.35798322       0.21774724 </v>
    <v>       0.59307865       0.67700849       0.49252948 </v>
    <v>       0.99516304       0.64201678       0.71774724 </v>
    <v>       0.35798322       0.35314626       0.71774724 </v>
    <v>       0.67700849       0.59307865       0.99252948 </v>
    <v>       0.40692135       0.08392984       0.99252948 </v>
    <v>       0.21328494       0.30144756       0.46843512 </v>
    <v>       0.08816262       0.78671506       0.46843512 </v>
    <v>       0.30144756       0.21328494       0.96843512 </v>
    <v>       0.69855244       0.91183738       0.46843512 </v>
    <v>      -0.00000000      -0.00000000       0.95930402 </v>
    <v>       0.06428982       0.48349019       0.78091080 </v>
    <v>      -0.00000000      -0.00000000       0.45930402 </v>
    <v>       0.66666667       0.33333333       0.45795572 </v>
    <v>       0.58079963       0.51650981       0.28091080 </v>
    <v>       0.78671506       0.08816262       0.96843512 </v>
    <v>       0.91183738       0.69855244       0.96843512 </v>
    <v>       0.33333333       0.66666667       0.95795572 </v>
    <v>       0.93571018       0.41920037       0.28091080 </v>
    <v>       0.41920037       0.93571018       0.78091080 </v>
    <v>       0.51650981       0.58079963       0.78091080 </v>
    <v>       0.48349019       0.06428982       0.28091080 </v>
   </varray>
  </structure>
  <varray name="forces" >
   <v>       0.01590696       0.01309263      -0.02756141 </v>
   <v>       0.00338506      -0.02032215      -0.02756141 </v>
   <v>      -0.07956185      -0.04479192       0.00149949 </v>
   <v>       0.01590696      -0.01309263      -0.02756141 </v>
   <v>       0.00098999      -0.09129854       0.00149949 </v>
   <v>      -0.07956185       0.04479192       0.00149949 </v>
   <v>      -0.01929203       0.00722952      -0.02756141 </v>
   <v>       0.07857186       0.04650662       0.00149949 </v>
   <v>       0.00338506       0.02032215      -0.02756141 </v>
   <v>      -0.01929203      -0.00722952      -0.02756141 </v>
   <v>       0.07857186      -0.04650662       0.00149949 </v>
   <v>       0.00098999       0.09129854       0.00149949 </v>
   <v>      -0.04339743      -0.01568790       0.08527889 </v>
   <v>       0.00811260       0.04542723       0.08527889 </v>
   <v>      -0.04339743       0.01568790       0.08527889 </v>
   <v>       0.03528483      -0.02973933       0.08527889 </v>
   <v>      -0.00000000      -0.00000000       0.05700670 </v>
   <v>       0.00758410       0.08351214      -0.08693730 </v>
   <v>      -0.00000000      -0.00000000       0.05700670 </v>
   <v>      -0.00000000      -0.00000000       0.02615429 </v>
   <v>      -0.07611568       0.03518805      -0.08693730 </v>
   <v>       0.00811260      -0.04542723       0.08527889 </v>
   <v>       0.03528483       0.02973933       0.08527889 </v>
   <v>      -0.00000000      -0.00000000       0.02615429 </v>
   <v>       0.06853158       0.04832409      -0.08693730 </v>
   <v>       0.06853158      -0.04832409      -0.08693730 </v>
   <v>      -0.07611568      -0.03518805      -0.08693730 </v>
   <v>       0.00758410      -0.08351214      -0.08693730 </v>
  </varray>
  <varray name="stress" >
   <v>     -36.41169420       0.00000000       0.00000000 </v>
   <v>       0.00000000     -36.41169420       0.00000000 </v>
   <v>       0.00000000      -0.00000000     -79.30385734 </v>
  </varray>
  <energy>
   <i name="e_fr_energy">   -201.84623635 </i>
   <i name="e_wo_entrp">   -201.84396096 </i>
   <i name="e_0_energy">     -0.00910156 </i>
  </energy>
  <time name="totalsc">   27.55   27.57</time>
 </calculation>
 <calculation>
  <scstep>
   <time name="dav">    9.84    9.84</time>
   <time name="total">   10.31   10.39</time>
   <energy>
    <i name="alphaZ">    132.80870079 </i>
    <i name="ewald">  -4136.93119033 </i>
    <i name="hartreedc">  -1320.93395776 </i>
    <i name="XCdc">    112.52415229 </i>
    <i name="pawpsdc">  15919.43205893 </i>
    <i name="pawaedc"> -15656.40713242 </i>
    <i name="eentropy">     -0.00789152 </i>
    <i name="bandstr">    -75.08857584 </i>
    <i name="atom">   4822.75196862 </i>
    <i name="e_fr_energy">   -201.85186724 </i>
    <i name="e_wo_entrp">   -201.84397572 </i>
    <i name="e_0_energy">   -201.84989436 </i>
   </energy>
  </scstep>
  <scstep>
   <time name="diag">    1.21    1.21</time>
   <time name="diis">    6.11    6.11</time>
   <time name="orth">    0.12    0.12</time>
   <time name="total">    7.91    7.91</time>
   <energy>
    <i name="e_fr_energy">   -201.85393088 </i>
    <i name="e_wo_entrp">   -201.84438472 </i>
    <i name="e_0_energy">   -201.85154434 </i>
   </energy>
  </scstep>
  <scstep>
   <time name="diag">    1.22    1.22</time>
   <time name="diis">    6.08    6.08</time>
   <time name="orth">    0.13    0.13</time>
   <time name="total">    7.88    7.89</time>
   <energy>
    <i name="e_fr_energy">   -201.85280491 </i>
    <i name="e_wo_entrp">   -201.84401895 </i>
    <i name="e_0_energy">   -201.85060842 </i>
   </energy>
  </scstep>
  <scstep>
[...]
       <r>   -2.6281    1.0000 </r>
       <r>   -1.7524    1.0000 </r>
       <r>   -1.7325    1.0000 </r>
       <r>   -1.4825    1.0000 </r>
       <r>   -1.4825    1.0000 </r>
       <r>   -0.5564    1.0000 </r>
       <r>   -0.5564    1.0000 </r>
       <r>   -0.3356    1.0000 </r>
       <r>   -0.3011    1.0000 </r>
       <r>   -0.3011    1.0000 </r>
       <r>   -0.2592    1.0000 </r>
       <r>    0.1508    1.0000 </r>
       <r>    0.1508    1.0000 </r>
       <r>    0.5708    1.0000 </r>
       <r>    0.5708    1.0000 </r>
       <r>    0.6712    1.0000 </r>
       <r>    0.9661    1.0000 </r>
       <r>    1.0094    1.0000 </r>
       <r>    1.0094    1.0000 </r>
       <r>    1.1572    1.0000 </r>
       <r>    1.7491    1.0000 </r>
       <r>    1.7491    1.0000 </r>
       <r>    2.0098    1.0000 </r>
       <r>    2.3757    1.0000 </r>
       <r>    2.3757    1.0000 </r>
       <r>    2.6054    1.0000 </r>
       <r>    2.8830    1.0000 </r>
       <r>    2.9108    1.0000 </r>
       <r>    2.9108    1.0000 </r>
       <r>    3.6990    1.0000 </r>
       <r>    3.6990    1.0000 </r>
       <r>    3.8318    1.0000 </r>
       <r>    4.0021    1.0000 </r>
       <r>    4.0021    1.0000 </r>
       <r>    4.0837    1.0000 </r>
       <r>    4.3777    1.0000 </r>
       <r>    4.3777    1.0000 </r>
       <r>    4.7924    1.0000 </r>
       <r>    4.7924    1.0000 </r>
       <r>    5.2006    1.0000 </r>
       <r>    5.2006    1.0000 </r>
       <r>    5.3707    1.0000 </r>
       <r>    5.4515    1.0000 </r>
       <r>    7.0323    0.4853 </r>
       <r>    7.0447    0.3565 </r>
       <r>    7.1449   -0.0430 </r>
       <r>    7.1449   -0.0430 </r>
       <r>    9.4711    0.0000 </r>
       <r>    9.4711    0.0000 </r>
       <r>    9.7957    0.0000 </r>
       <r>    9.7957    0.0000 </r>
       <r>   10.0417    0.0000 </r>
       <r>   10.3049    0.0000 </r>
       <r>   10.6634    0.0000 </r>
       <r>   10.6634    0.0000 </r>
       <r>   11.1008    0.0000 </r>
       <r>   11.2820    0.0000 </r>
       <r>   11.2893    0.0000 </r>
       <r>   11.2893    0.0000 </r>
       <r>   11.5314    0.0000 </r>
       <r>   11.5314    0.0000 </r>
       <r>   11.5459    0.0000 </r>
       <r>   11.7410    0.0000 </r>
      </set>
     </set>
    </set>
   </array>
  </eigenvalues>
  <separator name="orbital magnetization" >
   <v name="MAGDIPOLOUT">      0.00000000      0.00000000      0.00000000</v>
  </separator>
  <dos>
   <i name="efermi">      7.03090690 </i>
   <total>
    <array>
     <dimension dim="1">gridpoints</dimension>
     <dimension dim="2">spin</dimension>
     <field>energy</field>
     <field>total</field>
     <field>integrated</field>
     <set>
      <set comment="spin 1">
       <r>   -12.5099     0.0000     0.0000 </r>
       <r>   -12.4242     0.0000     0.0000 </r>
       <r>   -12.3386     0.0000     0.0000 </r>
       <r>   -12.2530     0.0000     0.0000 </r>
       <r>   -12.1673     0.0000     0.0000 </r>
       <r>   -12.0817     0.0000     0.0000 </r>
       <r>   -11.9961     0.0000     0.0000 </r>
       <r>   -11.9105     0.0000     0.0000 </r>
       <r>   -11.8248     0.0000     0.0000 </r>
       <r>   -11.7392     0.0000     0.0000 </r>
       <r>   -11.6536     0.0000     0.0000 </r>
       <r>   -11.5679     0.0017     0.0001 </r>
       <r>   -11.4823     0.0059     0.0007 </r>
       <r>   -11.3967    -0.0573    -0.0043 </r>
       <r>   -11.3110     0.4389     0.0333 </r>
       <r>   -11.2254     2.1801     0.2200 </r>
       <r>   -11.1398     3.8036     0.5457 </r>
       <r>   -11.0541     4.4161     0.9239 </r>
       <r>   -10.9685     4.6679     1.3236 </r>
       <r>   -10.8829     5.2902     1.7766 </r>
       <r>   -10.7972     8.6740     2.5194 </r>
       <r>   -10.7116    10.3130     3.4025 </r>
       <r>   -10.6260     8.0268     4.0898 </r>
       <r>   -10.5403     9.6389     4.9152 </r>
       <r>   -10.4547     4.3006     5.2835 </r>
       <r>   -10.3691     4.3449     5.6556 </r>
       <r>   -10.2835     0.9614     5.7379 </r>
       <r>   -10.1978     3.5838     6.0448 </r>
       <r>   -10.1122    10.0320     6.9038 </r>
       <r>   -10.0266     3.7785     7.2274 </r>
       <r>    -9.9409     3.5573     7.5320 </r>
       <r>    -9.8553    15.0875     8.8240 </r>
       <r>    -9.7697    12.8403     9.9235 </r>
       <r>    -9.6840     6.2599    10.4596 </r>
       <r>    -9.5984     6.2520    10.9949 </r>
       <r>    -9.5128     3.5160    11.2960 </r>
       <r>    -9.4271     6.6837    11.8683 </r>
       <r>    -9.3415    11.6992    12.8702 </r>
       <r>    -9.2559    17.7601    14.3910 </r>
       <r>    -9.1702    16.4553    15.8001 </r>
       <r>    -9.0846    15.1745    17.0995 </r>
       <r>    -8.9990    12.0280    18.1295 </r>
       <r>    -8.9133     9.4879    18.9420 </r>
       <r>    -8.8277    12.0125    19.9706 </r>
       <r>    -8.7421    21.8666    21.8431 </r>
       <r>    -8.6564    21.8030    23.7101 </r>
       <r>    -8.5708     3.9230    24.0460 </r>
       <r>    -8.4852    -0.6149    23.9934 </r>
       <r>    -8.3996     0.0622    23.9987 </r>
       <r>    -8.3139     0.0149    24.0000 </r>
       <r>    -8.2283     0.0003    24.0000 </r>
       <r>    -8.1427     0.0000    24.0000 </r>
       <r>    -8.0570     0.0000    24.0000 </r>
       <r>    -7.9714     0.0000    24.0000 </r>
       <r>    -7.8858     0.0000    24.0000 </r>
       <r>    -7.8001     0.0000    24.0000 </r>
       <r>    -7.7145     0.0000    24.0000 </r>
       <r>    -7.6289     0.0000    24.0000 </r>
       <r>    -7.5432     0.0000    24.0000 </r>
       <r>    -7.4576     0.0000    24.0000 </r>
       <r>    -7.3720     0.0000    24.0000 </r>
       <r>    -7.2863     0.0000    24.0000 </r>
       <r>    -7.2007     0.0000    24.0000 </r>
       <r>    -7.1151     0.0000    24.0000 </r>
       <r>    -7.0294     0.0000    24.0000 </r>
       <r>    -6.9438     0.0000    24.0000 </r>
       <r>    -6.8582     0.0000    24.0000 </r>
       <r>    -6.7726     0.0000    24.0000 </r>
       <r>    -6.6869     0.0000    24.0000 </r>
       <r>    -6.6013     0.0000    24.0000 </r>
       <r>    -6.5157     0.0000    24.0000 </r>
       <r>    -6.4300     0.0000    24.0000 </r>
       <r>    -6.3444     0.0000    24.0000 </r>
       <r>    -6.2588     0.0000    24.0000 </r>
       <r>    -6.1731     0.0000    24.0000 </r>
       <r>    -6.0875     0.0000    24.0000 </r>
       <r>    -6.0019     0.0000    24.0000 </r>
       <r>    -5.9162     0.0000    24.0000 </r>
       <r>    -5.8306     0.0000    24.0000 </r>
       <r>    -5.7450     0.0000    24.0000 </r>
       <r>    -5.6593     0.0000    24.0000 </r>
       <r>    -5.5737     0.0000    24.0000 </r>
       <r>    -5.4881     0.0000    24.0000 </r>
       <r>    -5.4024     0.0000    24.0000 </r>
       <r>    -5.3168     0.0000    24.0000 </r>
       <r>    -5.2312     0.0000    24.0000 </r>
       <r>    -5.1456     0.0000    24.0000 </r>
       <r>    -5.0599     0.0000    24.0000 </r>
       <r>    -4.9743     0.0000    24.0000 </r>
       <r>    -4.8887     0.0000    24.0000 </r>
       <r>    -4.8030     0.0000    24.0000 </r>
       <r>    -4.7174     0.0000    24.0000 </r>
       <r>    -4.6318     0.0000    24.0000 </r>
       <r>    -4.5461     0.0007    24.0001 </r>
       <r>    -4.4605     0.0016    24.0002 </r>
       <r>    -4.3749    -0.0190    23.9986 </r>
       <r>    -4.2892     0.1775    24.0138 </r>
       <r>    -4.2036     0.9537    24.0954 </r>
       <r>    -4.1180     0.8880    24.1715 </r>
       <r>    -4.0323     2.0469    24.3468 </r>
       <r>    -3.9467     1.6467    24.4878 </r>
       <r>    -3.8611     1.8302    24.6445 </r>
       <r>    -3.7754     3.6955    24.9609 </r>
       <r>    -3.6898     1.9879    25.1312 </r>
       <r>    -3.6042     3.8391    25.4599 </r>
       <r>    -3.5186     3.2013    25.7340 </r>
       <r>    -3.4329     6.1654    26.2620 </r>
       <r>    -3.3473     8.2500    26.9685 </r>
       <r>    -3.2617     7.9291    27.6474 </r>
       <r>    -3.1760     9.7171    28.4795 </r>
       <r>    -3.0904     8.9373    29.2449 </r>
       <r>    -3.0048     8.2701    29.9530 </r>
       <r>    -2.9191     6.8446    30.5391 </r>
       <r>    -2.8335     6.3708    31.0847 </r>
       <r>    -2.7479     6.1269    31.6093 </r>
       <r>    -2.6622     6.0400    32.1266 </r>
       <r>    -2.5766    10.1318    32.9942 </r>
       <r>    -2.4910    12.1920    34.0382 </r>
       <r>    -2.4053    10.4274    34.9311 </r>
       <r>    -2.3197    11.2683    35.8960 </r>
       <r>    -2.2341    12.5174    36.9679 </r>
       <r>    -2.1484    10.8971    37.9010 </r>
       <r>    -2.0628     9.2423    38.6925 </r>
       <r>    -1.9772    11.4661    39.6743 </r>
       <r>    -1.8915     7.0933    40.2817 </r>
       <r>    -1.8059     5.0476    40.7140 </r>
       <r>    -1.7203     1.9535    40.8813 </r>
       <r>    -1.6347     1.4088    41.0019 </r>
       <r>    -1.5490     4.5332    41.3901 </r>
       <r>    -1.4634     2.5767    41.6107 </r>
       <r>    -1.3778     3.1562    41.8810 </r>
       <r>    -1.2921     7.2435    42.5013 </r>
       <r>    -1.2065    10.0139    43.3588 </r>
       <r>    -1.1209     5.8130    43.8566 </r>
       <r>    -1.0352     6.9393    44.4508 </r>
       <r>    -0.9496    10.0249    45.3092 </r>
       <r>    -0.8640     8.7787    46.0610 </r>
       <r>    -0.7783    12.4430    47.1265 </r>
       <r>    -0.6927     9.2785    47.9210 </r>
       <r>    -0.6071     6.1653    48.4490 </r>
       <r>    -0.5214     8.5514    49.1812 </r>
       <r>    -0.4358     6.0290    49.6975 </r>
       <r>    -0.3502     7.4751    50.3376 </r>
       <r>    -0.2645     9.6129    51.1608 </r>
       <r>    -0.1789    11.5668    52.1513 </r>
       <r>    -0.0933     9.1687    52.9364 </r>
       <r>    -0.0077     8.2895    53.6462 </r>
       <r>     0.0780     9.1375    54.4287 </r>
       <r>     0.1636    11.3730    55.4026 </r>
       <r>     0.2492    12.3267    56.4581 </r>
       <r>     0.3349    10.5682    57.3631 </r>
       <r>     0.4205    11.9093    58.3829 </r>
       <r>     0.5061    12.2562    59.4325 </r>
       <r>     0.5918    17.5192    60.9326 </r>
       <r>     0.6774    11.7327    61.9373 </r>
       <r>     0.7630    10.6974    62.8534 </r>
       <r>     0.8487    13.5356    64.0124 </r>
       <r>     0.9343    13.0289    65.1281 </r>
       <r>     1.0199    11.5384    66.1162 </r>
       <r>     1.1056    11.8216    67.1285 </r>
       <r>     1.1912    15.8839    68.4886 </r>
       <r>     1.2768    18.7946    70.0981 </r>
       <r>     1.3625    13.6658    71.2683 </r>
       <r>     1.4481    12.0516    72.3003 </r>
       <r>     1.5337    10.9077    73.2343 </r>
       <r>     1.6193    12.6932    74.3213 </r>
       <r>     1.7050     9.0849    75.0992 </r>
       <r>     1.7906    11.8337    76.1126 </r>
       <r>     1.8762    13.1130    77.2354 </r>
       <r>     1.9619    12.3042    78.2891 </r>
       <r>     2.0475    11.8806    79.3064 </r>
       <r>     2.1331    11.4186    80.2842 </r>
       <r>     2.2188    10.3971    81.1745 </r>
       <r>     2.3044     9.3420    81.9745 </r>
       <r>     2.3900    11.0713    82.9226 </r>
       <r>     2.4757    10.3257    83.8068 </r>
       <r>     2.5613    11.5379    84.7948 </r>
       <r>     2.6469     8.8133    85.5495 </r>
       <r>     2.7326     7.9666    86.2317 </r>
       <r>     2.8182     9.7636    87.0678 </r>
       <r>     2.9038    11.1819    88.0253 </r>
       <r>     2.9895     8.7328    88.7731 </r>
       <r>     3.0751    12.7512    89.8650 </r>
       <r>     3.1607    13.3775    91.0105 </r>
       <r>     3.2464     8.7153    91.7568 </r>
       <r>     3.3320     7.5840    92.4063 </r>
       <r>     3.4176    11.4941    93.3905 </r>
       <r>     3.5032    14.1401    94.6014 </r>
       <r>     3.5889    10.9910    95.5425 </r>
       <r>     3.6745    13.1746    96.6707 </r>
       <r>     3.7601    13.0870    97.7914 </r>
       <r>     3.8458     8.6787    98.5345 </r>
       <r>     3.9314     8.8085    99.2888 </r>
       <r>     4.0170    11.8543   100.3039 </r>
       <r>     4.1027    20.1363   102.0282 </r>
       <r>     4.1883    16.2943   103.4235 </r>
       <r>     4.2739     8.2011   104.1258 </r>
       <r>     4.3596     9.2865   104.9210 </r>
       <r>     4.4452    10.3694   105.8090 </r>
       <r>     4.5308     5.5857   106.2873 </r>
       <r>     4.6165     8.3731   107.0043 </r>
       <r>     4.7021    16.7845   108.4416 </r>
       <r>     4.7877    18.1162   109.9929 </r>
       <r>     4.8734    14.4139   111.2272 </r>
       <r>     4.9590    13.7780   112.4070 </r>
       <r>     5.0446     8.3167   113.1192 </r>
       <r>     5.1302     5.7561   113.6121 </r>
       <r>     5.2159     7.8213   114.2818 </r>
       <r>     5.3015     8.6566   115.0231 </r>
       <r>     5.3871     9.6108   115.8461 </r>
       <r>     5.4728    12.7220   116.9355 </r>
       <r>     5.5584    13.5739   118.0979 </r>
       <r>     5.6440    10.0992   118.9627 </r>
       <r>     5.7297     7.3493   119.5920 </r>
       <r>     5.8153     2.9156   119.8417 </r>
       <r>     5.9009     3.5672   120.1471 </r>
       <r>     5.9866     9.5782   120.9673 </r>
       <r>     6.0722     8.7228   121.7143 </r>
       <r>     6.1578     0.5819   121.7641 </r>
       <r>     6.2435    -0.2036   121.7467 </r>
       <r>     6.3291     0.0360   121.7498 </r>
       <r>     6.4147     0.0027   121.7500 </r>
       <r>     6.5004     0.0010   121.7501 </r>
       <r>     6.5860     0.0091   121.7509 </r>
       <r>     6.6716    -0.0320   121.7481 </r>
       <r>     6.7572     0.1260   121.7589 </r>
       <r>     6.8429     2.4723   121.9706 </r>
       <r>     6.9285     5.8263   122.4695 </r>
       <r>     7.0141    13.8688   123.6572 </r>
       <r>     7.0998    19.0714   125.2903 </r>
       <r>     7.1854     8.8994   126.0523 </r>
       <r>     7.2710     2.3093   126.2501 </r>
       <r>     7.3567     0.0039   126.2504 </r>
       <r>     7.4423    -0.0160   126.2491 </r>
       <r>     7.5279     0.0104   126.2499 </r>
       <r>     7.6136     0.0006   126.2500 </r>
       <r>     7.6992     0.0000   126.2500 </r>
       <r>     7.7848     0.0000   126.2500 </r>
       <r>     7.8705     0.0000   126.2500 </r>
       <r>     7.9561     0.0000   126.2500 </r>
       <r>     8.0417     0.0030   126.2503 </r>
       <r>     8.1274     0.0233   126.2523 </r>
       <r>     8.2130    -0.2479   126.2310 </r>
       <r>     8.2986     1.3244   126.3444 </r>
       <r>     8.3843     4.4030   126.7215 </r>
       <r>     8.4699     0.4562   126.7605 </r>
       <r>     8.5555    -0.1451   126.7481 </r>
       <r>     8.6411     0.0212   126.7499 </r>
       <r>     8.7268    -0.0012   126.7498 </r>
       <r>     8.8124     0.0808   126.7567 </r>
       <r>     8.8980     0.4228   126.7929 </r>
       <r>     8.9837     1.2935   126.9037 </r>
       <r>     9.0693     1.4561   127.0284 </r>
       <r>     9.1549     2.2008   127.2169 </r>
       <r>     9.2406     3.3680   127.5053 </r>
       <r>     9.3262     5.3426   127.9628 </r>
       <r>     9.4118    15.6531   129.3032 </r>
       <r>     9.4975    18.5495   130.8916 </r>
       <r>     9.5831    11.0770   131.8401 </r>
       <r>     9.6687    10.7362   132.7595 </r>
       <r>     9.7544    11.1998   133.7185 </r>
       <r>     9.8400    11.8500   134.7333 </r>
       <r>     9.9256     9.9990   135.5895 </r>
       <r>    10.0113     5.5211   136.0623 </r>
       <r>    10.0969     6.5556   136.6237 </r>
       <r>    10.1825     8.0119   137.3097 </r>
       <r>    10.2681    10.2462   138.1871 </r>
       <r>    10.3538    12.9117   139.2928 </r>
       <r>    10.4394    12.2093   140.3383 </r>
       <r>    10.5250     9.1305   141.1201 </r>
       <r>    10.6107    12.2513   142.1692 </r>
       <r>    10.6963    11.3380   143.1401 </r>
       <r>    10.7819    11.1385   144.0939 </r>
       <r>    10.8676    11.5500   145.0830 </r>
       <r>    10.9532    15.7486   146.4316 </r>
       <r>    11.0388    15.1965   147.7329 </r>
       <r>    11.1245    14.1753   148.9467 </r>
       <r>    11.2101    15.1261   150.2420 </r>
       <r>    11.2957    16.0176   151.6136 </r>
       <r>    11.3814    17.6627   153.1261 </r>
       <r>    11.4670    17.7989   154.6502 </r>
       <r>    11.5526    14.4343   155.8863 </r>
       <r>    11.6383    15.8969   157.2475 </r>
       <r>    11.7239    17.3515   158.7334 </r>
       <r>    11.8095     8.4690   159.4586 </r>
       <r>    11.8951     4.9273   159.8805 </r>
       <r>    11.9808     1.3975   160.0002 </r>
       <r>    12.0664    -0.0255   159.9980 </r>
       <r>    12.1520     0.0216   159.9999 </r>
       <r>    12.2377     0.0009   159.9999 </r>
       <r>    12.3233     0.0007   160.0000 </r>
       <r>    12.4089     0.0000   160.0000 </r>
       <r>    12.4946     0.0000   160.0000 </r>
       <r>    12.5802     0.0000   160.0000 </r>
       <r>    12.6658     0.0000   160.0000 </r>
       <r>    12.7515     0.0000   160.0000 </r>
       <r>    12.8371     0.0000   160.0000 </r>
       <r>    12.9227     0.0000   160.0000 </r>
       <r>    13.0084     0.0000   160.0000 </r>
       <r>    13.0940     0.0000   160.0000 </r>
       <r>    13.1796     0.0000   160.0000 </r>
      </set>
     </set>
    </array>
   </total>
  </dos>
 </calculation>
 <structure name="finalpos" >
  <crystal>
   <varray name="basis" >
    <v>       4.35694689      -7.54645338       0.00000000 </v>
    <v>       4.35694689       7.54645338       0.00000000 </v>
    <v>       0.00000000       0.00000000       5.58342729 </v>
   </varray>
   <i name="volume">    367.16055676 </i>
   <varray name="rec_basis" >
    <v>       0.11475926      -0.06625629       0.00000000 </v>
    <v>       0.11475926       0.06625629       0.00000000 </v>
    <v>       0.00000000       0.00000000       0.17910146 </v>
   </varray>
  </crystal>
  <varray name="positions" >
   <v>       0.00551183       0.64798852       0.21837024 </v>
   <v>       0.64247669       0.99448817       0.21837024 </v>
   <v>       0.91620989       0.32277732       0.99175012 </v>
   <v>       0.64798852       0.00551183       0.71837024 </v>
   <v>       0.08379011       0.40656743       0.49175012 </v>
   <v>       0.32277732       0.91620989       0.49175012 </v>
   <v>       0.35201148       0.35752331       0.21837024 </v>
   <v>       0.59343257       0.67722268       0.49175012 </v>
   <v>       0.99448817       0.64247669       0.71837024 </v>
   <v>       0.35752331       0.35201148       0.71837024 </v>
   <v>       0.67722268       0.59343257       0.99175012 </v>
   <v>       0.40656743       0.08379011       0.99175012 </v>
   <v>       0.21258784       0.30051106       0.47017930 </v>
   <v>       0.08792322       0.78741216       0.47017930 </v>
   <v>       0.30051106       0.21258784       0.97017930 </v>
   <v>       0.69948894       0.91207678       0.47017930 </v>
   <v>      -0.00000000      -0.00000000       0.96243861 </v>
   <v>       0.06327947       0.48354853       0.77904442 </v>
   <v>      -0.00000000      -0.00000000       0.46243861 </v>
   <v>       0.66666667       0.33333333       0.45565681 </v>
   <v>       0.57973095       0.51645147       0.27904442 </v>
   <v>       0.78741216       0.08792322       0.97017930 </v>
   <v>       0.91207678       0.69948894       0.97017930 </v>
   <v>       0.33333333       0.66666667       0.95565681 </v>
   <v>       0.93672053       0.42026905       0.27904442 </v>
   <v>       0.42026905       0.93672053       0.77904442 </v>
   <v>       0.51645147       0.57973095       0.77904442 </v>
   <v>       0.48354853       0.06327947       0.27904442 </v>
  </varray>
 </structure>
</modeling>
