unknown system                          
           1
     4.356947   -7.546453    0.000000
     4.356947    7.546453    0.000000
     0.000000    0.000000    5.583427
   Si   N 
  12  16
Direct configuration=     1
   0.00847736  0.64712623  0.21326215
   0.63864887  0.99152264  0.21326215
   0.91417805  0.32157747  0.99187268
   0.64712623  0.00847736  0.71326215
   0.08582195  0.40739942  0.49187268
   0.32157747  0.91417805  0.49187268
   0.35287377  0.36135113  0.21326215
   0.59260058  0.67842253  0.49187268
   0.99152264  0.63864887  0.71326215
   0.36135113  0.35287377  0.71326215
   0.67842253  0.59260058  0.99187268
   0.40739942  0.08582195  0.99187268
   0.21311138  0.30040483  0.46674092
   0.08729345  0.78688862  0.46674092
   0.30040483  0.21311138  0.96674092
   0.69959517  0.91270655  0.46674092
   0.00000000  0.00000000  0.95692726
   0.06686359  0.48449764  0.78259872
   0.00000000  0.00000000  0.45692726
   0.66666667  0.33333333  0.47577702
   0.58236595  0.51550236  0.28259872
   0.78688862  0.08729345  0.96674092
   0.91270655  0.69959517  0.96674092
   0.33333333  0.66666667  0.97577702
   0.93313641  0.41763405  0.28259872
   0.41763405  0.93313641  0.78259872
   0.51550236  0.58236595  0.78259872
   0.48449764  0.06686359  0.28259872
Direct configuration=     2
   0.00713960  0.64710858  0.21440193
   0.63996898  0.99286040  0.21440193
   0.91481465  0.32206336  0.99325709
   0.64710858  0.00713960  0.71440193
   0.08518535  0.40724871  0.49325709
   0.32206336  0.91481465  0.49325709
   0.35289142  0.36003102  0.21440193
   0.59275129  0.67793664  0.49325709
   0.99286040  0.63996898  0.71440193
   0.36003102  0.35289142  0.71440193
   0.67793664  0.59275129  0.99325709
   0.40724871  0.08518535  0.99325709
   0.21470299  0.30219344  0.46684234
   0.08749045  0.78529701  0.46684234
   0.30219344  0.21470299  0.96684234
   0.69780656  0.91250955  0.46684234
  -0.00000000  0.00000000  0.95732383
   0.06579284  0.48438961  0.78126827
  -0.00000000  0.00000000  0.45732383
   0.66666667  0.33333333  0.47149498
   0.58140322  0.51561039  0.28126827
   0.78529701  0.08749045  0.96684234
   0.91250955  0.69780656  0.96684234
   0.33333333  0.66666667  0.97149498
   0.93420716  0.41859678  0.28126827
   0.41859678  0.93420716  0.78126827
   0.51561039  0.58140322  0.78126827
   0.48438961  0.06579284  0.28126827
Direct configuration=     3
   0.00691998  0.64710569  0.21458905
   0.64018571  0.99308002  0.21458905
   0.91491916  0.32214313  0.99348438
   0.64710569  0.00691998  0.71458905
   0.08508084  0.40722397  0.49348438
   0.32214313  0.91491916  0.49348438
   0.35289431  0.35981429  0.21458905
   0.59277603  0.67785687  0.49348438
   0.99308002  0.64018571  0.71458905
   0.35981429  0.35289431  0.71458905
   0.67785687  0.59277603  0.99348438
   0.40722397  0.08508084  0.99348438
   0.21496429  0.30248709  0.46685899
   0.08752280  0.78503571  0.46685899
   0.30248709  0.21496429  0.96685899
   0.69751291  0.91247720  0.46685899
  -0.00000000  0.00000000  0.95738894
   0.06561705  0.48437188  0.78104984
  -0.00000000  0.00000000  0.45738894
   0.66666667  0.33333333  0.47079197
   0.58124517  0.51562812  0.28104984
   0.78503571  0.08752280  0.96685899
   0.91247720  0.69751291  0.96685899
   0.33333333  0.66666667  0.97079197
   0.93438295  0.41875483  0.28104984
   0.41875483  0.93438295  0.78104984
   0.51562812  0.58124517  0.78104984
   0.48437188  0.06561705  0.28104984
Direct configuration=     4
   0.00571556  0.64643269  0.21569566
   0.64071713  0.99428444  0.21569566
   0.91538437  0.32236709  0.99310089
   0.64643269  0.00571556  0.71569566
   0.08461563  0.40698272  0.49310089
   0.32236709  0.91538437  0.49310089
   0.35356731  0.35928287  0.21569566
   0.59301728  0.67763291  0.49310089
   0.99428444  0.64071713  0.71569566
   0.35928287  0.35356731  0.71569566
   0.67763291  0.59301728  0.99310089
   0.40698272  0.08461563  0.99310089
   0.21414340  0.30246597  0.46760239
   0.08832257  0.78585660  0.46760239
   0.30246597  0.21414340  0.96760239
   0.69753403  0.91167743  0.46760239
  -0.00000000  0.00000000  0.95802188
   0.06490827  0.48408356  0.78121276
  -0.00000000  0.00000000  0.45802188
   0.66666667  0.33333333  0.46527070
   0.58082471  0.51591644  0.28121276
   0.78585660  0.08832257  0.96760239
   0.91167743  0.69753403  0.96760239
   0.33333333  0.66666667  0.96527070
   0.93509173  0.41917529  0.28121276
   0.41917529  0.93509173  0.78121276
   0.51591644  0.58082471  0.78121276
   0.48408356  0.06490827  0.28121276
Direct configuration=     5
   0.00498406  0.64602395  0.21636775
   0.64103989  0.99501594  0.21636775
   0.91566691  0.32250310  0.99286798
   0.64602395  0.00498406  0.71636775
   0.08433309  0.40683619  0.49286798
   0.32250310  0.91566691  0.49286798
   0.35397605  0.35896011  0.21636775
   0.59316381  0.67749690  0.49286798
   0.99501594  0.64103989  0.71636775
   0.35896011  0.35397605  0.71636775
   0.67749690  0.59316381  0.99286798
   0.40683619  0.08433309  0.99286798
   0.21364484  0.30245315  0.46805390
   0.08880831  0.78635516  0.46805390
   0.30245315  0.21364484  0.96805390
   0.69754685  0.91119169  0.46805390
  -0.00000000  0.00000000  0.95840629
   0.06447780  0.48390845  0.78131171
  -0.00000000  0.00000000  0.45840629
   0.66666667  0.33333333  0.46191737
   0.58056935  0.51609155  0.28131171
   0.78635516  0.08880831  0.96805390
   0.91119169  0.69754685  0.96805390
   0.33333333  0.66666667  0.96191737
   0.93552220  0.41943065  0.28131171
   0.41943065  0.93552220  0.78131171
   0.51609155  0.58056935  0.78131171
   0.48390845  0.06447780  0.28131171
Direct configuration=     6
   0.00483083  0.64688834  0.21780476
   0.64205751  0.99516917  0.21780476
   0.91608697  0.32301188  0.99251537
   0.64688834  0.00483083  0.71780476
   0.08391303  0.40692491  0.49251537
   0.32301188  0.91608697  0.49251537
   0.35311166  0.35794249  0.21780476
   0.59307509  0.67698812  0.49251537
   0.99516917  0.64205751  0.71780476
   0.35794249  0.35311166  0.71780476
   0.67698812  0.59307509  0.99251537
   0.40692491  0.08391303  0.99251537
   0.21326993  0.30140563  0.46845102
   0.08813570  0.78673007  0.46845102
   0.30140563  0.21326993  0.96845102
   0.69859437  0.91186430  0.46845102
  -0.00000000 -0.00000000  0.95934145
   0.06428199  0.48347275  0.78089408
  -0.00000000 -0.00000000  0.45934145
   0.66666667  0.33333333  0.45779054
   0.58080923  0.51652725  0.28089408
   0.78673007  0.08813570  0.96845102
   0.91186430  0.69859437  0.96845102
   0.33333333  0.66666667  0.95779054
   0.93571801  0.41919077  0.28089408
   0.41919077  0.93571801  0.78089408
   0.51652725  0.58080923  0.78089408
   0.48347275  0.06428199  0.28089408
Direct configuration=     7
   0.00483696  0.64685374  0.21774724
   0.64201678  0.99516304  0.21774724
   0.91607016  0.32299151  0.99252948
   0.64685374  0.00483696  0.71774724
   0.08392984  0.40692135  0.49252948
   0.32299151  0.91607016  0.49252948
   0.35314626  0.35798322  0.21774724
   0.59307865  0.67700849  0.49252948
   0.99516304  0.64201678  0.71774724
   0.35798322  0.35314626  0.71774724
   0.67700849  0.59307865  0.99252948
   0.40692135  0.08392984  0.99252948
   0.21328494  0.30144756  0.46843512
   0.08816262  0.78671506  0.46843512
   0.30144756  0.21328494  0.96843512
   0.69855244  0.91183738  0.46843512
  -0.00000000 -0.00000000  0.95930402
   0.06428982  0.48349019  0.78091080
  -0.00000000 -0.00000000  0.45930402
   0.66666667  0.33333333  0.45795572
   0.58079963  0.51650981  0.28091080
   0.78671506  0.08816262  0.96843512
   0.91183738  0.69855244  0.96843512
   0.33333333  0.66666667  0.95795572
   0.93571018  0.41920037  0.28091080
   0.41920037  0.93571018  0.78091080
   0.51650981  0.58079963  0.78091080
   0.48349019  0.06428982  0.28091080
Direct configuration=     8
   0.00482415  0.64737488  0.21809181
   0.64255073  0.99517585  0.21809181
   0.91590925  0.32253976  0.99239267
   0.64737488  0.00482415  0.71809181
   0.08409075  0.40663050  0.49239267
   0.32253976  0.91590925  0.49239267
   0.35262512  0.35744927  0.21809181
   0.59336950  0.67746024  0.49239267
   0.99517585  0.64255073  0.71809181
   0.35744927  0.35262512  0.71809181
   0.67746024  0.59336950  0.99239267
   0.40663050  0.08409075  0.99239267
   0.21290520  0.30066324  0.46945260
   0.08775804  0.78709480  0.46945260
   0.30066324  0.21290520  0.96945260
   0.69933676  0.91224196  0.46945260
  -0.00000000 -0.00000000  0.96027228
   0.06394711  0.48365772  0.77986803
  -0.00000000 -0.00000000  0.46027228
   0.66666667  0.33333333  0.45644003
   0.58028940  0.51634228  0.27986803
   0.78709480  0.08775804  0.96945260
   0.91224196  0.69933676  0.96945260
   0.33333333  0.66666667  0.95644003
   0.93605289  0.41971060  0.27986803
   0.41971060  0.93605289  0.77986803
   0.51634228  0.58028940  0.77986803
   0.48365772  0.06394711  0.27986803
Direct configuration=     9
   0.00482229  0.64745025  0.21814165
   0.64262796  0.99517771  0.21814165
   0.91588598  0.32247442  0.99237289
   0.64745025  0.00482229  0.71814165
   0.08411402  0.40658844  0.49237289
   0.32247442  0.91588598  0.49237289
   0.35254975  0.35737204  0.21814165
   0.59341156  0.67752558  0.49237289
   0.99517771  0.64262796  0.71814165
   0.35737204  0.35254975  0.71814165
   0.67752558  0.59341156  0.99237289
   0.40658844  0.08411402  0.99237289
   0.21285028  0.30054980  0.46959976
   0.08769952  0.78714972  0.46959976
   0.30054980  0.21285028  0.96959976
   0.69945020  0.91230048  0.46959976
  -0.00000000 -0.00000000  0.96041232
   0.06389755  0.48368194  0.77971722
  -0.00000000 -0.00000000  0.46041232
   0.66666667  0.33333333  0.45622081
   0.58021560  0.51631806  0.27971722
   0.78714972  0.08769952  0.96959976
   0.91230048  0.69945020  0.96959976
   0.33333333  0.66666667  0.95622081
   0.93610245  0.41978440  0.27971722
   0.41978440  0.93610245  0.77971722
   0.51631806  0.58021560  0.77971722
   0.48368194  0.06389755  0.27971722
Direct configuration=    10
   0.00511606  0.64769017  0.21849683
   0.64257412  0.99488394  0.21849683
   0.91610942  0.32256693  0.99180456
   0.64769017  0.00511606  0.71849683
   0.08389058  0.40645751  0.49180456
   0.32256693  0.91610942  0.49180456
   0.35230983  0.35742588  0.21849683
   0.59354249  0.67743307  0.49180456
   0.99488394  0.64257412  0.71849683
   0.35742588  0.35230983  0.71849683
   0.67743307  0.59354249  0.99180456
   0.40645751  0.08389058  0.99180456
   0.21273625  0.30039242  0.46992900
   0.08765617  0.78726375  0.46992900
   0.30039242  0.21273625  0.96992900
   0.69960758  0.91234383  0.46992900
  -0.00000000 -0.00000000  0.96129471
   0.06334589  0.48363434  0.77935895
  -0.00000000 -0.00000000  0.46129471
   0.66666667  0.33333333  0.45606495
   0.57971156  0.51636566  0.27935895
   0.78726375  0.08765617  0.96992900
   0.91234383  0.69960758  0.96992900
   0.33333333  0.66666667  0.95606495
   0.93665411  0.42028844  0.27935895
   0.42028844  0.93665411  0.77935895
   0.51636566  0.57971156  0.77935895
   0.48363434  0.06334589  0.27935895
Direct configuration=    11
   0.00510514  0.64768126  0.21848363
   0.64257612  0.99489486  0.21848363
   0.91610112  0.32256349  0.99182568
   0.64768126  0.00510514  0.71848363
   0.08389888  0.40646237  0.49182568
   0.32256349  0.91610112  0.49182568
   0.35231874  0.35742388  0.21848363
   0.59353763  0.67743651  0.49182568
   0.99489486  0.64257612  0.71848363
   0.35742388  0.35231874  0.71848363
   0.67743651  0.59353763  0.99182568
   0.40646237  0.08389888  0.99182568
   0.21274049  0.30039827  0.46991676
   0.08765778  0.78725951  0.46991676
   0.30039827  0.21274049  0.96991676
   0.69960173  0.91234222  0.46991676
  -0.00000000 -0.00000000  0.96126192
   0.06336639  0.48363611  0.77937226
  -0.00000000 -0.00000000  0.46126192
   0.66666667  0.33333333  0.45607075
   0.57973029  0.51636389  0.27937226
   0.78725951  0.08765778  0.96991676
   0.91234222  0.69960173  0.96991676
   0.33333333  0.66666667  0.95607075
   0.93663361  0.42026971  0.27937226
   0.42026971  0.93663361  0.77937226
   0.51636389  0.57973029  0.77937226
   0.48363611  0.06336639  0.27937226
Direct configuration=    12
   0.00537152  0.64788252  0.21840936
   0.64251100  0.99462848  0.21840936
   0.91617236  0.32270355  0.99177619
   0.64788252  0.00537152  0.71840936
   0.08382764  0.40653118  0.49177619
   0.32270355  0.91617236  0.49177619
   0.35211748  0.35748900  0.21840936
   0.59346882  0.67729645  0.49177619
   0.99462848  0.64251100  0.71840936
   0.35748900  0.35211748  0.71840936
   0.67729645  0.59346882  0.99177619
   0.40653118  0.08382764  0.99177619
   0.21264050  0.30047215  0.47008873
   0.08783164  0.78735950  0.47008873
   0.30047215  0.21264050  0.97008873
   0.69952785  0.91216836  0.47008873
  -0.00000000 -0.00000000  0.96203265
   0.06330946  0.48357874  0.77915752
  -0.00000000 -0.00000000  0.46203265
   0.66666667  0.33333333  0.45579962
   0.57973072  0.51642126  0.27915752
   0.78735950  0.08783164  0.97008873
   0.91216836  0.69952785  0.97008873
   0.33333333  0.66666667  0.95579962
   0.93669054  0.42026928  0.27915752
   0.42026928  0.93669054  0.77915752
   0.51642126  0.57973072  0.77915752
   0.48357874  0.06330946  0.27915752
Direct configuration=    13
   0.00551183  0.64798852  0.21837024
   0.64247669  0.99448817  0.21837024
   0.91620989  0.32277732  0.99175012
   0.64798852  0.00551183  0.71837024
   0.08379011  0.40656743  0.49175012
   0.32277732  0.91620989  0.49175012
   0.35201148  0.35752331  0.21837024
   0.59343257  0.67722268  0.49175012
   0.99448817  0.64247669  0.71837024
   0.35752331  0.35201148  0.71837024
   0.67722268  0.59343257  0.99175012
   0.40656743  0.08379011  0.99175012
   0.21258784  0.30051106  0.47017930
   0.08792322  0.78741216  0.47017930
   0.30051106  0.21258784  0.97017930
   0.69948894  0.91207678  0.47017930
  -0.00000000 -0.00000000  0.96243861
   0.06327947  0.48354853  0.77904442
  -0.00000000 -0.00000000  0.46243861
   0.66666667  0.33333333  0.45565681
   0.57973095  0.51645147  0.27904442
   0.78741216  0.08792322  0.97017930
   0.91207678  0.69948894  0.97017930
   0.33333333  0.66666667  0.95565681
   0.93672053  0.42026905  0.27904442
   0.42026905  0.93672053  0.77904442
   0.51645147  0.57973095  0.77904442
   0.48354853  0.06327947  0.27904442
