  14  14   0   0
  0.1033632E+02  0.7802815E-09  0.7802815E-09  0.2744485E-09  0.5000000E-15
  1.000000000000000E-004
  CAR 
 unknown system                          
     17.35870707    -11.23619819  301     10.77253783      1.00000000
    -11.236  0.0000E+00  0.0000E+00
    -11.141  0.0000E+00  0.0000E+00
    -11.046  0.0000E+00  0.0000E+00
    -10.950  0.0000E+00  0.0000E+00
    -10.855  0.0000E+00  0.0000E+00
    -10.760  0.7485E-31  0.7134E-32
    -10.664  0.1354E-24  0.1291E-25
    -10.569  0.3794E-19  0.3617E-20
    -10.474  0.1634E-14  0.1558E-15
    -10.378  0.1069E-10  0.1019E-11
    -10.283  0.1045E-07  0.9966E-09
    -10.188  0.1414E-05  0.1358E-06
    -10.092  0.1501E-04  0.1566E-05
     -9.997 -0.1133E-03 -0.9228E-05
     -9.902  0.1049E-02  0.9074E-04
     -9.806  0.5508E-02  0.6157E-03
     -9.711  0.7980E-02  0.1376E-02
     -9.616  0.1145E-01  0.2467E-02
     -9.521  0.1259E-01  0.3667E-02
     -9.425  0.1382E-01  0.4984E-02
     -9.330  0.1619E-01  0.6528E-02
     -9.235  0.1637E-01  0.8088E-02
     -9.139  0.1971E-01  0.9967E-02
     -9.044  0.2107E-01  0.1198E-01
     -8.949  0.2704E-01  0.1455E-01
     -8.853  0.2910E-01  0.1733E-01
     -8.758  0.3413E-01  0.2058E-01
     -8.663  0.3344E-01  0.2377E-01
     -8.567  0.2519E-01  0.2617E-01
     -8.472  0.2524E-01  0.2857E-01
     -8.377  0.2475E-01  0.3093E-01
     -8.281  0.2343E-01  0.3317E-01
     -8.186  0.3451E-01  0.3646E-01
     -8.091  0.4114E-01  0.4038E-01
     -7.995  0.4124E-01  0.4431E-01
     -7.900  0.3291E-01  0.4744E-01
     -7.805  0.5137E-01  0.5234E-01
     -7.709  0.4585E-01  0.5671E-01
     -7.614  0.5246E-01  0.6171E-01
     -7.519  0.4779E-01  0.6627E-01
     -7.424  0.3846E-01  0.6993E-01
     -7.328  0.5105E-01  0.7480E-01
     -7.233  0.7988E-01  0.8241E-01
     -7.138  0.4907E-01  0.8709E-01
     -7.042  0.5637E-01  0.9246E-01
     -6.947  0.5471E-01  0.9768E-01
     -6.852  0.3689E-01  0.1012E+00
     -6.756  0.6967E-01  0.1078E+00
     -6.661  0.6876E-01  0.1144E+00
     -6.566  0.4027E-01  0.1182E+00
     -6.470  0.1887E-01  0.1200E+00
     -6.375 -0.2616E-03  0.1200E+00
     -6.280 -0.4788E-04  0.1200E+00
     -6.184  0.3876E-04  0.1200E+00
     -6.089  0.7328E-06  0.1200E+00
     -5.994  0.1555E-08  0.1200E+00
     -5.898  0.4518E-12  0.1200E+00
     -5.803  0.1925E-16  0.1200E+00
     -5.708  0.0000E+00  0.1200E+00
     -5.613  0.0000E+00  0.1200E+00
     -5.517  0.0000E+00  0.1200E+00
     -5.422  0.0000E+00  0.1200E+00
     -5.327  0.0000E+00  0.1200E+00
     -5.231  0.0000E+00  0.1200E+00
     -5.136  0.0000E+00  0.1200E+00
     -5.041  0.0000E+00  0.1200E+00
     -4.945  0.0000E+00  0.1200E+00
     -4.850  0.0000E+00  0.1200E+00
     -4.755  0.0000E+00  0.1200E+00
     -4.659  0.0000E+00  0.1200E+00
     -4.564  0.0000E+00  0.1200E+00
     -4.469  0.0000E+00  0.1200E+00
     -4.373  0.0000E+00  0.1200E+00
     -4.278  0.0000E+00  0.1200E+00
     -4.183  0.0000E+00  0.1200E+00
     -4.087  0.0000E+00  0.1200E+00
     -3.992  0.0000E+00  0.1200E+00
     -3.897  0.0000E+00  0.1200E+00
     -3.802  0.0000E+00  0.1200E+00
     -3.706  0.0000E+00  0.1200E+00
     -3.611  0.0000E+00  0.1200E+00
     -3.516  0.1380E-33  0.1200E+00
     -3.420  0.6424E-27  0.1200E+00
     -3.325  0.4617E-21  0.1200E+00
     -3.230  0.5048E-16  0.1200E+00
     -3.134  0.8156E-12  0.1200E+00
     -3.039  0.1861E-08  0.1200E+00
     -2.944  0.5458E-06  0.1200E+00
     -2.848  0.1468E-04  0.1200E+00
     -2.753 -0.7600E-04  0.1200E+00
     -2.658  0.4457E-03  0.1200E+00
     -2.562  0.5166E-02  0.1205E+00
     -2.467  0.9123E-02  0.1214E+00
     -2.372  0.1245E-01  0.1226E+00
     -2.276  0.6876E-02  0.1232E+00
     -2.181  0.1146E-01  0.1243E+00
     -2.086  0.7246E-02  0.1250E+00
     -1.991  0.1016E-01  0.1260E+00
     -1.895  0.9937E-02  0.1269E+00
     -1.800  0.3648E-02  0.1273E+00
     -1.705  0.7908E-02  0.1280E+00
     -1.609  0.1125E-01  0.1291E+00
     -1.514  0.1768E-01  0.1308E+00
     -1.419  0.1993E-01  0.1327E+00
     -1.323  0.2780E-01  0.1353E+00
     -1.228  0.1492E-01  0.1368E+00
     -1.133  0.3718E-01  0.1403E+00
     -1.037  0.5070E-01  0.1451E+00
     -0.942  0.4544E-01  0.1495E+00
     -0.847  0.4382E-01  0.1537E+00
     -0.751  0.6034E-01  0.1594E+00
     -0.656  0.5674E-01  0.1648E+00
     -0.561  0.2734E-01  0.1674E+00
     -0.465  0.2211E-01  0.1695E+00
     -0.370  0.3277E-01  0.1727E+00
     -0.275  0.4115E-01  0.1766E+00
     -0.180  0.4565E-01  0.1809E+00
     -0.084  0.4766E-01  0.1855E+00
      0.011  0.4459E-01  0.1897E+00
      0.106  0.4920E-01  0.1944E+00
      0.202  0.4056E-01  0.1983E+00
      0.297  0.3796E-01  0.2019E+00
      0.392  0.5582E-01  0.2072E+00
      0.488  0.4221E-01  0.2112E+00
      0.583  0.4262E-01  0.2153E+00
      0.678  0.3161E-01  0.2183E+00
      0.774  0.3999E-01  0.2221E+00
      0.869  0.2951E-01  0.2249E+00
      0.964  0.2609E-01  0.2274E+00
      1.060  0.4059E-01  0.2313E+00
      1.155  0.3772E-01  0.2349E+00
      1.250  0.4714E-01  0.2394E+00
      1.346  0.4770E-01  0.2439E+00
      1.441  0.3710E-01  0.2475E+00
      1.536  0.3893E-01  0.2512E+00
      1.632  0.3363E-01  0.2544E+00
      1.727  0.3466E-01  0.2577E+00
      1.822  0.3369E-01  0.2609E+00
      1.917  0.3212E-01  0.2640E+00
      2.013  0.4892E-01  0.2686E+00
      2.108  0.5698E-01  0.2740E+00
      2.203  0.3940E-01  0.2778E+00
      2.299  0.5701E-01  0.2832E+00
      2.394  0.8755E-01  0.2916E+00
      2.489  0.6420E-01  0.2977E+00
      2.585  0.5001E-01  0.3025E+00
      2.680  0.4099E-01  0.3064E+00
      2.775  0.2765E-01  0.3090E+00
      2.871  0.3965E-01  0.3128E+00
      2.966  0.4425E-01  0.3170E+00
      3.061  0.5668E-01  0.3224E+00
      3.157  0.6173E-01  0.3283E+00
      3.252  0.7342E-01  0.3353E+00
      3.347  0.5596E-01  0.3406E+00
      3.443  0.5075E-01  0.3455E+00
      3.538  0.3749E-01  0.3490E+00
      3.633  0.6347E-01  0.3551E+00
      3.728  0.5247E-01  0.3601E+00
      3.824  0.4178E-01  0.3641E+00
      3.919  0.4201E-01  0.3681E+00
      4.014  0.3795E-01  0.3717E+00
      4.110  0.4519E-01  0.3760E+00
      4.205  0.5353E-01  0.3811E+00
      4.300  0.4729E-01  0.3856E+00
      4.396  0.5218E-01  0.3906E+00
      4.491  0.4375E-01  0.3948E+00
      4.586  0.4996E-01  0.3995E+00
      4.682  0.5314E-01  0.4046E+00
      4.777  0.5798E-01  0.4101E+00
      4.872  0.7282E-01  0.4170E+00
      4.968  0.5387E-01  0.4222E+00
      5.063  0.6572E-01  0.4284E+00
      5.158  0.9035E-01  0.4371E+00
      5.254  0.8269E-01  0.4449E+00
      5.349  0.6594E-01  0.4512E+00
      5.444  0.7406E-01  0.4583E+00
      5.539  0.6905E-01  0.4649E+00
      5.635  0.3491E-01  0.4682E+00
      5.730  0.1835E-01  0.4699E+00
      5.825  0.1969E-01  0.4718E+00
      5.921  0.2521E-01  0.4742E+00
      6.016  0.2022E-01  0.4761E+00
      6.111  0.2622E-01  0.4786E+00
      6.207  0.2465E-01  0.4810E+00
      6.302  0.4199E-01  0.4850E+00
      6.397  0.5931E-01  0.4907E+00
      6.493  0.3544E-01  0.4940E+00
      6.588  0.5080E-01  0.4989E+00
      6.683  0.6457E-01  0.5050E+00
      6.779  0.5749E-01  0.5105E+00
      6.874  0.5575E-01  0.5158E+00
      6.969  0.7687E-01  0.5231E+00
      7.065  0.6882E-01  0.5297E+00
      7.160  0.5934E-01  0.5354E+00
      7.255  0.5316E-01  0.5404E+00
      7.350  0.3372E-01  0.5436E+00
      7.446  0.4160E-01  0.5476E+00
      7.541  0.4487E-01  0.5519E+00
      7.636  0.2440E-01  0.5542E+00
      7.732  0.1903E-01  0.5560E+00
      7.827  0.5173E-02  0.5565E+00
      7.922  0.1383E-01  0.5578E+00
      8.018  0.1447E-01  0.5592E+00
      8.113  0.2257E-01  0.5614E+00
      8.208  0.2200E-01  0.5635E+00
      8.304  0.2184E-01  0.5655E+00
      8.399  0.2269E-01  0.5677E+00
      8.494  0.3055E-01  0.5706E+00
      8.590  0.3101E-01  0.5736E+00
      8.685  0.2706E-01  0.5762E+00
      8.780  0.2832E-01  0.5789E+00
      8.876  0.1955E-01  0.5807E+00
      8.971  0.5064E-02  0.5812E+00
      9.066  0.1613E-01  0.5827E+00
      9.162  0.1953E-01  0.5846E+00
      9.257  0.1978E-01  0.5865E+00
      9.352  0.2865E-01  0.5892E+00
      9.447  0.2872E-01  0.5920E+00
      9.543  0.1707E-01  0.5936E+00
      9.638  0.2165E-01  0.5956E+00
      9.733  0.8455E-02  0.5965E+00
      9.829  0.1130E-01  0.5975E+00
      9.924  0.1767E-01  0.5992E+00
     10.019  0.2402E-01  0.6015E+00
     10.115  0.2782E-01  0.6042E+00
     10.210  0.1030E-01  0.6051E+00
     10.305  0.1749E-01  0.6068E+00
     10.401  0.2772E-01  0.6094E+00
     10.496  0.4239E-01  0.6135E+00
     10.591  0.3595E-01  0.6169E+00
     10.687  0.1576E-01  0.6184E+00
     10.782  0.1916E-01  0.6202E+00
     10.877  0.2149E-01  0.6223E+00
     10.973  0.1108E-01  0.6233E+00
     11.068  0.1424E-01  0.6247E+00
     11.163  0.1762E-01  0.6264E+00
     11.258  0.2408E-01  0.6287E+00
     11.354  0.2211E-01  0.6308E+00
     11.449  0.3517E-01  0.6341E+00
     11.544  0.2850E-01  0.6369E+00
     11.640  0.4112E-01  0.6408E+00
     11.735  0.3964E-01  0.6446E+00
     11.830  0.4450E-01  0.6488E+00
     11.926  0.3544E-01  0.6522E+00
     12.021  0.4253E-01  0.6562E+00
     12.116  0.4880E-01  0.6609E+00
     12.212  0.4555E-01  0.6652E+00
     12.307  0.3669E-01  0.6687E+00
     12.402  0.2530E-01  0.6711E+00
     12.498  0.2174E-01  0.6732E+00
     12.593  0.4126E-01  0.6771E+00
     12.688  0.2819E-01  0.6798E+00
     12.784  0.1979E-01  0.6817E+00
     12.879  0.2848E-01  0.6844E+00
     12.974  0.2861E-01  0.6871E+00
     13.069  0.2684E-01  0.6897E+00
     13.165  0.2178E-01  0.6918E+00
     13.260  0.4632E-01  0.6962E+00
     13.355  0.5050E-01  0.7010E+00
     13.451  0.3620E-01  0.7045E+00
     13.546  0.3124E-01  0.7074E+00
     13.641  0.3242E-01  0.7105E+00
     13.737  0.3113E-01  0.7135E+00
     13.832  0.3223E-01  0.7166E+00
     13.927  0.4452E-01  0.7208E+00
     14.023  0.3418E-01  0.7241E+00
     14.118  0.6061E-01  0.7298E+00
     14.213  0.7611E-01  0.7371E+00
     14.309  0.5463E-01  0.7423E+00
     14.404  0.6889E-01  0.7489E+00
     14.499  0.5767E-01  0.7544E+00
     14.595  0.3574E-01  0.7578E+00
     14.690  0.3757E-01  0.7614E+00
     14.785  0.2522E-01  0.7638E+00
     14.880  0.3069E-01  0.7667E+00
     14.976  0.2897E-01  0.7695E+00
     15.071  0.2068E-01  0.7714E+00
     15.166  0.4024E-01  0.7753E+00
     15.262  0.3710E-01  0.7788E+00
     15.357  0.2397E-01  0.7811E+00
     15.452  0.4846E-01  0.7857E+00
     15.548  0.4367E-01  0.7899E+00
     15.643  0.3234E-01  0.7929E+00
     15.738  0.3231E-01  0.7960E+00
     15.834  0.1391E-01  0.7973E+00
     15.929  0.1606E-01  0.7989E+00
     16.024  0.1174E-01  0.8000E+00
     16.120  0.3365E-04  0.8000E+00
     16.215 -0.6835E-05  0.8000E+00
     16.310  0.1626E-04  0.8000E+00
     16.406  0.1330E-05  0.8000E+00
     16.501  0.1417E-07  0.8000E+00
     16.596  0.1785E-10  0.8000E+00
     16.691  0.3014E-14  0.8000E+00
     16.787  0.5943E-19  0.8000E+00
     16.882  0.0000E+00  0.8000E+00
     16.977  0.0000E+00  0.8000E+00
     17.073  0.0000E+00  0.8000E+00
     17.168  0.0000E+00  0.8000E+00
     17.263  0.0000E+00  0.8000E+00
     17.359  0.0000E+00  0.8000E+00
