   14   14  100    1
  0.1033632E+02  0.7802815E-09  0.7802815E-09  0.2744485E-09  0.5000000E-15
  1.000000000000000E-004
  CAR 
 unknown system                          
     62     81     40
 
  0.3742002E-15  0.3742002E-15  0.3742002E-15  0.1275510E-02
    1       -9.936430   1.000000
    2       -8.687571   1.000000
    3       -8.687571   1.000000
    4       -8.035065   1.000000
    5       -8.035065   1.000000
    6       -7.876869   1.000000
    7       -1.583082   1.000000
    8       -1.583082   1.000000
    9       -1.440375   1.000000
   10       -0.679940   1.000000
   11        0.607929   1.000000
   12        1.241780   1.000000
   13        1.241780   1.000000
   14        3.144194   1.000000
   15        3.144194   1.000000
   16        4.215807   1.000000
   17        4.416334   1.000000
   18        4.416335   1.000000
   19        4.938508   1.000000
   20        5.196558   1.000000
   21        5.755701   1.000000
   22        5.755701   1.000000
   23        6.285805   1.000000
   24        6.285805   1.000000
   25        6.471337   1.000000
   26        7.574420   1.000000
   27        7.630093   1.000000
   28        7.630093   1.000000
   29        9.627896   1.000000
   30        9.837668   1.000000
   31        9.837668   1.000000
   32       14.063138   0.000000
   33       14.245753   0.000000
   34       14.245753   0.000000
   35       14.569043   0.000000
   36       14.569043   0.000000
   37       15.456984   0.000000
   38       15.681920   0.000000
   39       15.988451   0.000000
   40       15.994557   0.000000
 
  0.1428571E+00  0.3799836E-15  0.3742002E-15  0.7653061E-02
    1       -9.895599   1.000000
    2       -8.780946   1.000000
    3       -8.728259   1.000000
    4       -8.200023   1.000000
    5       -7.972761   1.000000
    6       -7.646332   1.000000
    7       -1.870462   1.000000
    8       -1.574595   1.000000
    9       -1.377813   1.000000
   10       -0.392175   1.000000
   11        0.473389   1.000000
   12        1.131607   1.000000
   13        1.360811   1.000000
   14        3.053545   1.000000
   15        3.204546   1.000000
   16        4.141846   1.000000
   17        4.300248   1.000000
   18        4.566142   1.000000
   19        5.208945   1.000000
   20        5.216772   1.000000
   21        5.723516   1.000000
   22        5.745930   1.000000
   23        6.239485   1.000000
   24        6.296959   1.000000
   25        6.523166   1.000000
   26        7.390965   1.000000
   27        7.435144   1.000000
   28        7.693446   1.000000
   29        9.569537   1.000000
   30       10.002825   1.000000
   31       10.052328   1.000000
   32       13.736880   0.000000
   33       14.086267   0.000000
   34       14.212809   0.000000
   35       14.505152   0.000000
   36       14.654796   0.000000
   37       15.483843   0.000000
   38       15.684153   0.000000
   39       15.715919   0.000000
   40       15.940897   0.000000
 
  0.2857143E+00  0.3912287E-15  0.3742002E-15  0.7653061E-02
    1       -9.775427   1.000000
    2       -9.025616   1.000000
    3       -8.801870   1.000000
    4       -8.298274   1.000000
    5       -7.848282   1.000000
    6       -7.393774   1.000000
    7       -2.269207   1.000000
    8       -1.553770   1.000000
    9       -1.200698   1.000000
   10       -0.111992   1.000000
   11        0.242716   1.000000
   12        0.902820   1.000000
   13        1.749000   1.000000
   14        2.877503   1.000000
   15        3.188153   1.000000
   16        3.983171   1.000000
   17        4.316619   1.000000
   18        4.820105   1.000000
   19        5.281698   1.000000
   20        5.635318   1.000000
   21        5.636539   1.000000
   22        5.727721   1.000000
   23        6.185342   1.000000
   24        6.323724   1.000000
   25        6.601420   1.000000
   26        6.914362   1.000000
   27        7.083200   1.000000
   28        8.011710   1.000000
   29        9.391652   1.000000
   30       10.300173   1.000000
   31       10.527982   0.997566
   32       12.862568   0.000000
   33       13.827874   0.000000
   34       14.225267   0.000000
   35       14.500748   0.000000
   36       14.805461   0.000000
   37       15.354531   0.000000
   38       15.559737   0.000000
   39       15.607373   0.000000
   40       15.815780   0.000000
 
  0.4285714E+00  0.4196255E-15  0.3742002E-15  0.7653061E-02
    1       -9.587974   1.000000
    2       -9.304616   1.000000
    3       -8.849972   1.000000
    4       -8.328425   1.000000
    5       -7.757176   1.000000
    6       -7.248730   1.000000
    7       -2.504574   1.000000
    8       -1.535913   1.000000
    9       -0.970638   1.000000
   10       -0.308470   1.000000
   11        0.289764   1.000000
   12        0.731872   1.000000
   13        2.347762   1.000000
   14        2.754838   1.000000
   15        2.940770   1.000000
   16        3.635622   1.000000
   17        4.644970   1.000000
   18        5.009805   1.000000
   19        5.374389   1.000000
   20        5.522275   1.000000
   21        5.712084   1.000000
   22        5.839129   1.000000
   23        6.159465   1.000000
   24        6.347027   1.000000
   25        6.512551   1.000000
   26        6.648561   1.000000
   27        6.906032   1.000000
   28        8.400212   1.000000
   29        9.128673   1.000000
   30       10.478575   0.999607
   31       11.134029   0.000010
   32       11.952842   0.000000
   33       13.656204   0.000000
   34       14.247280   0.000000
   35       14.602114   0.000000
   36       14.829236   0.000000
   37       15.215553   0.000000
   38       15.480473   0.000000
   39       15.591614   0.000000
   40       15.647545   0.000000
 
  0.1428571E+00  0.1428571E+00  0.3742002E-15  0.7653061E-02
    1       -9.814967   1.000000
    2       -8.890031   1.000000
    3       -8.865172   1.000000
    4       -8.240389   1.000000
    5       -7.907406   1.000000
    6       -7.447733   1.000000
    7       -2.186512   1.000000
    8       -1.529935   1.000000
    9       -1.254689   1.000000
   10       -0.193915   1.000000
   11        0.268514   1.000000
   12        1.079869   1.000000
   13        1.549516   1.000000
   14        2.857703   1.000000
   15        3.344862   1.000000
   16        4.020417   1.000000
   17        4.194814   1.000000
   18        4.797786   1.000000
   19        5.260564   1.000000
   20        5.527438   1.000000
   21        5.675478   1.000000
   22        5.719360   1.000000
   23        6.206222   1.000000
   24        6.310714   1.000000
   25        6.583931   1.000000
   26        7.045587   1.000000
   27        7.179454   1.000000
   28        7.908167   1.000000
   29        9.455260   1.000000
   30       10.249171   1.000000
   31       10.360714   1.000000
   32       13.191365   0.000000
   33       13.684709   0.000000
   34       14.304354   0.000000
   35       14.459522   0.000000
   36       14.817367   0.000000
   37       15.527184   0.000000
   38       15.536046   0.000000
   39       15.617572   0.000000
   40       15.845752   0.000000
 
  0.2857143E+00  0.1428571E+00  0.3742002E-15  0.7653061E-02
    1       -9.659133   1.000000
    2       -9.146810   1.000000
    3       -8.957361   1.000000
    4       -8.224268   1.000000
    5       -7.836084   1.000000
    6       -7.268473   1.000000
    7       -2.481172   1.000000
    8       -1.440742   1.000000
    9       -1.032011   1.000000
   10       -0.299331   1.000000
   11        0.011506   1.000000
   12        1.175497   1.000000
   13        1.958022   1.000000
   14        2.630941   1.000000
   15        3.356590   1.000000
   16        3.740895   1.000000
   17        4.293270   1.000000
   18        5.048957   1.000000
   19        5.340158   1.000000
   20        5.586167   1.000000
   21        5.682741   1.000000
   22        5.793331   1.000000
   23        6.188661   1.000000
   24        6.322759   1.000000
   25        6.640369   1.000000
   26        6.786400   1.000000
   27        6.821905   1.000000
   28        8.270328   1.000000
   29        9.231063   1.000000
   30       10.548323   0.996073
   31       10.786250   0.357044
   32       12.359924   0.000000
   33       13.330165   0.000000
   34       14.304475   0.000000
   35       14.551590   0.000000
   36       15.047223   0.000000
   37       15.193647   0.000000
   38       15.554258   0.000000
   39       15.626129   0.000000
   40       15.735108   0.000000
 
  0.4285714E+00  0.1428571E+00  0.3742002E-15  0.7653061E-02
    1       -9.482055   1.000000
    2       -9.371506   1.000000
    3       -8.985854   1.000000
    4       -8.215581   1.000000
    5       -7.802611   1.000000
    6       -7.201155   1.000000
    7       -2.592721   1.000000
    8       -1.386511   1.000000
    9       -0.862153   1.000000
   10       -0.458972   1.000000
   11       -0.123043   1.000000
   12        1.221193   1.000000
   13        2.404978   1.000000
   14        2.484640   1.000000
   15        3.115844   1.000000
   16        3.603993   1.000000
   17        4.466801   1.000000
   18        5.143193   1.000000
   19        5.415933   1.000000
   20        5.501964   1.000000
   21        5.669205   1.000000
   22        5.849258   1.000000
   23        6.185793   1.000000
   24        6.329042   1.000000
   25        6.530212   1.000000
   26        6.662281   1.000000
   27        6.847328   1.000000
   28        8.549505   1.000000
   29        9.022365   1.000000
   30       10.612728   1.004677
   31       11.337573   0.000000
   32       11.645242   0.000000
   33       13.251257   0.000000
   34       14.276170   0.000000
   35       14.732006   0.000000
   36       14.833259   0.000000
   37       15.295192   0.000000
   38       15.454112   0.000000
   39       15.669880   0.000000
   40       15.736244   0.000000
 
 -0.4285714E+00  0.1428571E+00  0.3742002E-15  0.7653061E-02
    1       -9.659151   1.000000
    2       -9.146838   1.000000
    3       -8.957305   1.000000
    4       -8.224230   1.000000
    5       -7.836151   1.000000
    6       -7.268518   1.000000
    7       -2.481251   1.000000
    8       -1.437922   1.000000
    9       -1.039051   1.000000
   10       -0.285446   1.000000
   11        0.002722   1.000000
   12        1.171376   1.000000
   13        1.951866   1.000000
   14        2.662110   1.000000
   15        3.370908   1.000000
   16        3.656017   1.000000
   17        4.341519   1.000000
   18        5.071971   1.000000
   19        5.340255   1.000000
   20        5.586342   1.000000
   21        5.682600   1.000000
   22        5.783643   1.000000
   23        6.188760   1.000000
   24        6.323076   1.000000
   25        6.639597   1.000000
   26        6.645562   1.000000
   27        6.950552   1.000000
   28        8.275450   1.000000
   29        9.227766   1.000000
   30       10.493340   0.999264
   31       10.855044  -0.044450
   32       12.308937   0.000000
   33       13.387299   0.000000
   34       14.343050   0.000000
   35       14.496972   0.000000
   36       14.959019   0.000000
   37       15.284185   0.000000
   38       15.545161   0.000000
   39       15.620335   0.000000
   40       15.748867   0.000000
 
  0.2857143E+00  0.2857143E+00  0.3742002E-15  0.7653061E-02
    1       -9.476296   1.000000
    2       -9.246583   1.000000
    3       -9.177254   1.000000
    4       -8.072660   1.000000
    5       -7.902922   1.000000
    6       -7.175545   1.000000
    7       -2.643665   1.000000
    8       -1.159213   1.000000
    9       -0.808100   1.000000
   10       -0.633716   1.000000
   11       -0.380698   1.000000
   12        1.756635   1.000000
   13        2.052812   1.000000
   14        2.378189   1.000000
   15        3.264424   1.000000
   16        3.780963   1.000000
   17        4.158292   1.000000
   18        5.184373   1.000000
   19        5.419833   1.000000
   20        5.552353   1.000000
   21        5.601016   1.000000
   22        5.859116   1.000000
   23        6.231428   1.000000
   24        6.293764   1.000000
   25        6.665355   1.000000
   26        6.669622   1.000000
   27        6.753948   1.000000
   28        8.610690   1.000000
   29        8.983163   1.000000
   30       10.799236   0.232643
   31       11.142322   0.000006
   32       11.717311   0.000000
   33       12.959113   0.000000
   34       14.214247   0.000000
   35       14.741515   0.000000
   36       14.995924   0.000000
   37       15.124985   0.000000
   38       15.664565   0.000000
   39       15.721828   0.000000
   40       15.741810   0.000000
 
  0.3742002E-15  0.3742002E-15  0.6250000E-01  0.2551020E-02
    1       -9.881235   1.000000
    2       -8.639654   1.000000
    3       -8.639653   1.000000
    4       -7.990242   1.000000
    5       -7.990241   1.000000
    6       -7.836783   1.000000
    7       -1.537827   1.000000
    8       -1.537827   1.000000
    9       -1.377277   1.000000
   10       -0.623402   1.000000
   11        0.636121   1.000000
   12        1.275808   1.000000
   13        1.275808   1.000000
   14        3.193647   1.000000
   15        3.193648   1.000000
   16        4.227301   1.000000
   17        4.424737   1.000000
   18        4.424738   1.000000
   19        4.903247   1.000000
   20        4.923949   1.000000
   21        5.483391   1.000000
   22        5.483391   1.000000
   23        6.003932   1.000000
   24        6.003932   1.000000
   25        6.123924   1.000000
   26        7.647475   1.000000
   27        7.647475   1.000000
   28        7.762310   1.000000
   29        9.567824   1.000000
   30        9.948885   1.000000
   31        9.948885   1.000000
   32       13.954460   0.000000
   33       14.277579   0.000000
   34       14.277579   0.000000
   35       14.371344   0.000000
   36       14.371345   0.000000
   37       15.073151   0.000000
   38       15.367470   0.000000
   39       15.437458   0.000000
   40       15.437459   0.000000
 
  0.1428571E+00  0.3799836E-15  0.6250000E-01  0.1530612E-01
    1       -9.840528   1.000000
    2       -8.732097   1.000000
    3       -8.679778   1.000000
    4       -8.155271   1.000000
    5       -7.928763   1.000000
    6       -7.607043   1.000000
    7       -1.818968   1.000000
    8       -1.528160   1.000000
    9       -1.315129   1.000000
   10       -0.341421   1.000000
   11        0.506565   1.000000
   12        1.166657   1.000000
   13        1.393102   1.000000
   14        3.103249   1.000000
   15        3.242115   1.000000
   16        4.157935   1.000000
   17        4.289329   1.000000
   18        4.569591   1.000000
   19        4.935072   1.000000
   20        5.195218   1.000000
   21        5.453308   1.000000
   22        5.476764   1.000000
   23        5.932019   1.000000
   24        6.028222   1.000000
   25        6.227924   1.000000
   26        7.422831   1.000000
   27        7.469301   1.000000
   28        7.860635   1.000000
   29        9.517934   1.000000
   30       10.093621   1.000000
   31       10.140984   1.000000
   32       13.784651   0.000000
   33       14.053961   0.000000
   34       14.143631   0.000000
   35       14.355284   0.000000
   36       14.463908   0.000000
   37       15.072692   0.000000
   38       15.383175   0.000000
   39       15.403481   0.000000
   40       15.440291   0.000000
 
  0.2857143E+00  0.3912287E-15  0.6250000E-01  0.1530612E-01
    1       -9.720860   1.000000
    2       -8.975059   1.000000
    3       -8.752595   1.000000
    4       -8.253288   1.000000
    5       -7.806166   1.000000
    6       -7.356988   1.000000
    7       -2.212356   1.000000
    8       -1.504867   1.000000
    9       -1.139370   1.000000
   10       -0.062092   1.000000
   11        0.280984   1.000000
   12        0.938443   1.000000
   13        1.774533   1.000000
   14        2.927843   1.000000
   15        3.209260   1.000000
   16        3.970067   1.000000
   17        4.301878   1.000000
   18        4.808931   1.000000
   19        5.030502   1.000000
   20        5.302482   1.000000
   21        5.472811   1.000000
   22        5.643277   1.000000
   23        5.906321   1.000000
   24        6.076280   1.000000
   25        6.356768   1.000000
   26        6.963174   1.000000
   27        7.119567   1.000000
   28        8.136689   1.000000
   29        9.362533   1.000000
   30       10.349855   1.000000
   31       10.587581   0.996222
   32       12.932751   0.000000
   33       13.884887   0.000000
   34       14.062915   0.000000
   35       14.346698   0.000000
   36       14.656039   0.000000
   37       14.849017   0.000000
   38       15.322592   0.000000
   39       15.493276   0.000000
   40       15.585979   0.000000
 
  0.4285714E+00  0.4196255E-15  0.6250000E-01  0.1530612E-01
    1       -9.534395   1.000000
    2       -9.252437   1.000000
    3       -8.800398   1.000000
    4       -8.283332   1.000000
    5       -7.716342   1.000000
    6       -7.213396   1.000000
    7       -2.444868   1.000000
    8       -1.484336   1.000000
    9       -0.911385   1.000000
   10       -0.253736   1.000000
   11        0.328339   1.000000
   12        0.767354   1.000000
   13        2.361767   1.000000
   14        2.805716   1.000000
   15        2.956018   1.000000
   16        3.635178   1.000000
   17        4.551814   1.000000
   18        4.965441   1.000000
   19        5.150240   1.000000
   20        5.227448   1.000000
   21        5.493511   1.000000
   22        5.809634   1.000000
   23        5.930780   1.000000
   24        6.106160   1.000000
   25        6.441579   1.000000
   26        6.569284   1.000000
   27        6.920221   1.000000
   28        8.474572   1.000000
   29        9.130089   1.000000
   30       10.499951   0.999046
   31       11.179896   0.000000
   32       12.017568   0.000000
   33       13.716980   0.000000
   34       14.167424   0.000000
   35       14.349329   0.000000
   36       14.523970   0.000000
   37       14.897747   0.000000
   38       15.248504   0.000000
   39       15.517917   0.000000
   40       15.674047   0.000000
 
  0.1428571E+00  0.1428571E+00  0.6250000E-01  0.1530612E-01
    1       -9.760276   1.000000
    2       -8.840450   1.000000
    3       -8.815583   1.000000
    4       -8.195881   1.000000
    5       -7.864564   1.000000
    6       -7.410313   1.000000
    7       -2.130820   1.000000
    8       -1.481892   1.000000
    9       -1.193292   1.000000
   10       -0.144613   1.000000
   11        0.307334   1.000000
   12        1.112737   1.000000
   13        1.578740   1.000000
   14        2.905804   1.000000
   15        3.366202   1.000000
   16        4.018437   1.000000
   17        4.195044   1.000000
   18        4.767051   1.000000
   19        5.011835   1.000000
   20        5.371290   1.000000
   21        5.402426   1.000000
   22        5.580805   1.000000
   23        5.908345   1.000000
   24        6.055370   1.000000
   25        6.326443   1.000000
   26        7.084050   1.000000
   27        7.223593   1.000000
   28        8.046742   1.000000
   29        9.416663   1.000000
   30       10.314698   1.000000
   31       10.421416   0.999980
   32       13.265765   0.000000
   33       13.719803   0.000000
   34       14.092080   0.000000
   35       14.420157   0.000000
   36       14.596914   0.000000
   37       14.909864   0.000000
   38       15.386488   0.000000
   39       15.521471   0.000000
   40       15.533468   0.000000
 
  0.2857143E+00  0.1428571E+00  0.6250000E-01  0.1530612E-01
    1       -9.605166   1.000000
    2       -9.095535   1.000000
    3       -8.907122   1.000000
    4       -8.179943   1.000000
    5       -7.794419   1.000000
    6       -7.232926   1.000000
    7       -2.422128   1.000000
    8       -1.390489   1.000000
    9       -0.972501   1.000000
   10       -0.246723   1.000000
   11        0.055434   1.000000
   12        1.204707   1.000000
   13        1.980757   1.000000
   14        2.675193   1.000000
   15        3.368693   1.000000
   16        3.735249   1.000000
   17        4.277925   1.000000
   18        4.938184   1.000000
   19        5.158707   1.000000
   20        5.266540   1.000000
   21        5.443260   1.000000
   22        5.777751   1.000000
   23        5.949155   1.000000
   24        6.078539   1.000000
   25        6.426385   1.000000
   26        6.819995   1.000000
   27        6.863238   1.000000
   28        8.362234   1.000000
   29        9.218347   1.000000
   30       10.563889   0.995184
   31       10.849638  -0.036599
   32       12.425583   0.000000
   33       13.387032   0.000000
   34       14.153391   0.000000
   35       14.411672   0.000000
   36       14.657996   0.000000
   37       14.819093   0.000000
   38       15.379939   0.000000
   39       15.580647   0.000000
   40       15.835408   0.000000
 
  0.4285714E+00  0.1428571E+00  0.6250000E-01  0.1530612E-01
    1       -9.428922   1.000000
    2       -9.319024   1.000000
    3       -8.935485   1.000000
    4       -8.171309   1.000000
    5       -7.761542   1.000000
    6       -7.166352   1.000000
    7       -2.532422   1.000000
    8       -1.335025   1.000000
    9       -0.805100   1.000000
   10       -0.402326   1.000000
   11       -0.078619   1.000000
   12        1.249003   1.000000
   13        2.445551   1.000000
   14        2.492388   1.000000
   15        3.139914   1.000000
   16        3.607110   1.000000
   17        4.410732   1.000000
   18        5.003297   1.000000
   19        5.167129   1.000000
   20        5.306118   1.000000
   21        5.447317   1.000000
   22        5.849430   1.000000
   23        5.921576   1.000000
   24        6.085853   1.000000
   25        6.476010   1.000000
   26        6.575991   1.000000
   27        6.865139   1.000000
   28        8.604685   1.000000
   29        9.034029   1.000000
   30       10.623745   1.011815
   31       11.380221   0.000000
   32       11.717554   0.000000
   33       13.305020   0.000000
   34       14.247637   0.000000
   35       14.390633   0.000000
   36       14.469897   0.000000
   37       14.921998   0.000000
   38       15.396471   0.000000
   39       15.609190   0.000000
   40       15.893173   0.000000
 
 -0.4285714E+00  0.1428571E+00  0.6250000E-01  0.1530612E-01
    1       -9.605154   1.000000
    2       -9.095543   1.000000
    3       -8.907073   1.000000
    4       -8.179955   1.000000
    5       -7.794462   1.000000
    6       -7.232939   1.000000
    7       -2.422170   1.000000
    8       -1.387521   1.000000
    9       -0.979929   1.000000
   10       -0.231697   1.000000
   11        0.045851   1.000000
   12        1.200542   1.000000
   13        1.974873   1.000000
   14        2.704523   1.000000
   15        3.386366   1.000000
   16        3.653176   1.000000
   17        4.319387   1.000000
   18        4.946107   1.000000
   19        5.143025   1.000000
   20        5.333190   1.000000
   21        5.400488   1.000000
   22        5.792463   1.000000
   23        5.933621   1.000000
   24        6.077658   1.000000
   25        6.426817   1.000000
   26        6.688333   1.000000
   27        6.983919   1.000000
   28        8.366597   1.000000
   29        9.215437   1.000000
   30       10.527816   0.997578
   31       10.895796  -0.034716
   32       12.382737   0.000000
   33       13.435164   0.000000
   34       14.170190   0.000000
   35       14.410370   0.000000
   36       14.608814   0.000000
   37       14.829264   0.000000
   38       15.396201   0.000000
   39       15.634256   0.000000
   40       15.680226   0.000000
 
  0.2857143E+00  0.2857143E+00  0.6250000E-01  0.1530612E-01
    1       -9.423189   1.000000
    2       -9.194682   1.000000
    3       -9.125876   1.000000
    4       -8.029582   1.000000
    5       -7.861053   1.000000
    6       -7.140911   1.000000
    7       -2.583182   1.000000
    8       -1.108661   1.000000
    9       -0.756752   1.000000
   10       -0.575114   1.000000
   11       -0.328929   1.000000
   12        1.774911   1.000000
   13        2.079770   1.000000
   14        2.409646   1.000000
   15        3.279062   1.000000
   16        3.775340   1.000000
   17        4.138210   1.000000
   18        5.016200   1.000000
   19        5.236692   1.000000
   20        5.292504   1.000000
   21        5.384699   1.000000
   22        5.866561   1.000000
   23        5.959586   1.000000
   24        6.040625   1.000000
   25        6.486668   1.000000
   26        6.702581   1.000000
   27        6.788093   1.000000
   28        8.661073   1.000000
   29        8.994753   1.000000
   30       10.787528   0.344169
   31       11.210647   0.000000
   32       11.791981   0.000000
   33       13.005465   0.000000
   34       14.272272   0.000000
   35       14.366243   0.000000
   36       14.434142   0.000000
   37       14.897580   0.000000
   38       15.593725   0.000000
   39       15.739148   0.000000
   40       15.911673   0.000000
 
  0.3742002E-15  0.3742002E-15  0.1250000E+00  0.2551020E-02
    1       -9.717235   1.000000
    2       -8.497857   1.000000
    3       -8.497857   1.000000
    4       -7.858864   1.000000
    5       -7.858864   1.000000
    6       -7.720449   1.000000
    7       -1.407193   1.000000
    8       -1.407193   1.000000
    9       -1.189063   1.000000
   10       -0.455595   1.000000
   11        0.702249   1.000000
   12        1.365879   1.000000
   13        1.365880   1.000000
   14        3.341042   1.000000
   15        3.341042   1.000000
   16        4.194974   1.000000
   17        4.215699   1.000000
   18        4.414451   1.000000
   19        4.414451   1.000000
   20        4.730012   1.000000
   21        4.803352   1.000000
   22        4.803352   1.000000
   23        5.352982   1.000000
   24        5.352982   1.000000
   25        5.617303   1.000000
   26        7.674033   1.000000
   27        7.674033   1.000000
   28        8.060670   1.000000
   29        9.326716   1.000000
   30       10.191419   1.000000
   31       10.191419   1.000000
   32       13.285759   0.000000
   33       13.285759   0.000000
   34       13.316760   0.000000
   35       13.921693   0.000000
   36       14.622742   0.000000
   37       14.622743   0.000000
   38       15.154431   0.000000
   39       15.154431   0.000000
   40       15.891090   0.000000
 
  0.1428571E+00  0.3799836E-15  0.1250000E+00  0.1530612E-01
    1       -9.677129   1.000000
    2       -8.587879   1.000000
    3       -8.536561   1.000000
    4       -8.024694   1.000000
    5       -7.800187   1.000000
    6       -7.493155   1.000000
    7       -1.668523   1.000000
    8       -1.394244   1.000000
    9       -1.128330   1.000000
   10       -0.192907   1.000000
   11        0.590735   1.000000
   12        1.258878   1.000000
   13        1.476903   1.000000
   14        3.250043   1.000000
   15        3.323771   1.000000
   16        4.113090   1.000000
   17        4.219288   1.000000
   18        4.309160   1.000000
   19        4.516398   1.000000
   20        4.746496   1.000000
   21        4.841627   1.000000
   22        5.028035   1.000000
   23        5.249407   1.000000
   24        5.394629   1.000000
   25        5.801448   1.000000
   26        7.474840   1.000000
   27        7.521061   1.000000
   28        8.137327   1.000000
   29        9.300087   1.000000
   30       10.284705   1.000000
   31       10.337328   1.000000
   32       13.285279   0.000000
   33       13.306407   0.000000
   34       13.385553   0.000000
   35       13.993312   0.000000
   36       14.131771   0.000000
   37       14.421200   0.000000
   38       15.105573   0.000000
   39       15.241715   0.000000
   40       15.944352   0.000000
 
  0.2857143E+00  0.3912287E-15  0.1250000E+00  0.1530612E-01
    1       -9.559180   1.000000
    2       -8.825614   1.000000
    3       -8.607107   1.000000
    4       -8.121612   1.000000
    5       -7.683084   1.000000
    6       -7.250677   1.000000
    7       -2.043885   1.000000
    8       -1.363018   1.000000
    9       -0.956886   1.000000
   10        0.082343   1.000000
   11        0.386093   1.000000
   12        1.033150   1.000000
   13        1.836140   1.000000
   14        3.076128   1.000000
   15        3.225908   1.000000
   16        3.870826   1.000000
   17        4.082720   1.000000
   18        4.521999   1.000000
   19        4.590851   1.000000
   20        4.689504   1.000000
   21        5.023422   1.000000
   22        5.170145   1.000000
   23        5.392537   1.000000
   24        5.475107   1.000000
   25        6.103735   1.000000
   26        7.046285   1.000000
   27        7.184494   1.000000
   28        8.348647   1.000000
   29        9.209693   1.000000
   30       10.436706   0.999952
   31       10.720824   0.948171
   32       13.071820   0.000000
   33       13.287137   0.000000
   34       13.355304   0.000000
   35       13.623371   0.000000
   36       14.079940   0.000000
   37       14.235544   0.000000
   38       14.996671   0.000000
   39       15.356378   0.000000
   40       15.952827   0.000000
 
  0.4285714E+00  0.4196255E-15  0.1250000E+00  0.1530612E-01
    1       -9.375492   1.000000
    2       -9.098030   1.000000
    3       -8.653571   1.000000
    4       -8.151284   1.000000
    5       -7.597475   1.000000
    6       -7.112097   1.000000
    7       -2.267682   1.000000
    8       -1.335424   1.000000
    9       -0.736352   1.000000
   10       -0.093256   1.000000
   11        0.434970   1.000000
   12        0.861828   1.000000
   13        2.383296   1.000000
   14        2.949027   1.000000
   15        2.979553   1.000000
   16        3.588324   1.000000
   17        4.048867   1.000000
   18        4.467769   1.000000
   19        4.598842   1.000000
   20        4.894918   1.000000
   21        5.210141   1.000000