 running on   16 total cores
 distrk:  each k-point on   16 cores,    1 groups
 distr:  one band on    4 cores,    4 groups
 using from now: INCAR     
 vasp.5.4.4.18Apr17-6-g9f103f2a35 (build Nov 01 2019 12:17:22) complex          
  
 POSCAR found type information on POSCAR  Si N 
 POSCAR found :  2 types and      14 ions
 WARNING: type information on POSCAR and POTCAR are incompatible
 POTCAR overwrites the type information in POSCAR
 typ   1 type information:  Si N 
 WARNING: type information on POSCAR and POTCAR are incompatible
 POTCAR overwrites the type information in POSCAR
 typ   2 type information:  N  Si
 LDA part: xc-table for Pade appr. of Perdew
 generate k-points for:    7    7   16
 POSCAR, INCAR and KPOINTS ok, starting setup
 FFT: planning ...
 WAVECAR not read
 entering main loop
       N       E                     dE             d eps       ncg     rms          rms(c)
DAV:   1     0.229177153581E+03    0.22918E+03   -0.25968E+04  6552   0.116E+03
DAV:   2    -0.836100994011E+02   -0.31279E+03   -0.29987E+03  8112   0.246E+02
DAV:   3    -0.104246983987E+03   -0.20637E+02   -0.20271E+02  8128   0.669E+01
DAV:   4    -0.104710052072E+03   -0.46307E+00   -0.46101E+00  8216   0.103E+01
DAV:   5    -0.104720389880E+03   -0.10338E-01   -0.10332E-01  8200   0.148E+00    0.251E+01
RMM:   6    -0.952313316872E+02    0.94891E+01   -0.44216E+01  6480   0.240E+01    0.116E+01
RMM:   7    -0.947967763598E+02    0.43456E+00   -0.15201E+00  6525   0.430E+00    0.636E+00
RMM:   8    -0.946901055752E+02    0.10667E+00   -0.66132E-01  6498   0.266E+00    0.808E-01
RMM:   9    -0.946864888656E+02    0.36167E-02   -0.13359E-01  6509   0.135E+00    0.549E-01
RMM:  10    -0.946841154949E+02    0.23734E-02   -0.12513E-02  6485   0.474E-01    0.156E-01
RMM:  11    -0.946852392899E+02   -0.11238E-02   -0.56946E-03  6507   0.289E-01    0.117E-01
RMM:  12    -0.946849499406E+02    0.28935E-03   -0.87561E-04  6347   0.118E-01    0.358E-02
RMM:  13    -0.946849724953E+02   -0.22555E-04   -0.17818E-04  4019   0.550E-02
   1 F= -.94684972E+02 E0= -.94684599E+02  d E =-.946850E+02
 curvature:   0.00 expect dE= 0.000E+00 dE for cont linesearch  0.000E+00
 trial: gam= 0.00000 g(F)=  0.544E-01 g(S)=  0.000E+00 ort = 0.000E+00 (trialstep = 0.100E+01)
 search vector abs. value=  0.544E-01
 bond charge predicted
       N       E                     dE             d eps       ncg     rms          rms(c)
DAV:   1    -0.946877959665E+02   -0.28460E-02   -0.52603E+00  7360   0.128E+01    0.562E-01
RMM:   2    -0.946916242285E+02   -0.38283E-02   -0.97746E-02  6491   0.145E+00    0.302E-01
RMM:   3    -0.946901016415E+02    0.15226E-02   -0.88612E-03  6569   0.375E-01    0.188E-01
RMM:   4    -0.946898924910E+02    0.20915E-03   -0.17105E-03  6609   0.162E-01    0.820E-02
RMM:   5    -0.946899041765E+02   -0.11685E-04   -0.89039E-05  3962   0.424E-02
   2 F= -.94689904E+02 E0= -.94689644E+02  d E =-.493168E-02
 trial-energy change:   -0.004932  1 .order   -0.005016   -0.054404    0.044372
 step:   0.5508(harm=  0.5508)  dis= 0.00824  next Energy=   -94.699955 (dE=-0.150E-01)
 bond charge predicted
       N       E                     dE             d eps       ncg     rms          rms(c)
DAV:   1    -0.946995522085E+02   -0.96597E-02   -0.10633E+00  7312   0.575E+00    0.245E-01
RMM:   2    -0.947003451946E+02   -0.79299E-03   -0.19536E-02  6483   0.657E-01    0.134E-01
RMM:   3    -0.946999871423E+02    0.35805E-03   -0.18758E-03  6550   0.174E-01    0.745E-02
RMM:   4    -0.946999461139E+02    0.41028E-04   -0.29803E-04  4202   0.714E-02
   3 F= -.94699946E+02 E0= -.94699619E+02  d E =-.149736E-01
 curvature:  -0.28 expect dE=-0.107E-02 dE for cont linesearch -0.849E-06
 trial: gam= 0.07907 g(F)=  0.389E-02 g(S)=  0.000E+00 ort =-0.410E-03 (trialstep = 0.910E+00)
 search vector abs. value=  0.417E-02
 bond charge predicted
       N       E                     dE             d eps       ncg     rms          rms(c)
DAV:   1    -0.947013199149E+02   -0.13328E-02   -0.29896E-01  7376   0.300E+00    0.130E-01
RMM:   2    -0.947017071858E+02   -0.38727E-03   -0.62634E-03  6483   0.364E-01    0.680E-02
RMM:   3    -0.947016298784E+02    0.77307E-04   -0.34870E-04  4527   0.807E-02
   4 F= -.94701630E+02 E0= -.94701298E+02  d E =-.168376E-02
 trial-energy change:   -0.001684  1 .order   -0.001730   -0.003513    0.000053
 step:   0.8966(harm=  0.8966)  dis= 0.00403  next Energy=   -94.701676 (dE=-0.173E-02)
 bond charge predicted
       N       E                     dE             d eps       ncg     rms          rms(c)
DAV:   1    -0.947016188883E+02    0.88297E-04   -0.28037E-04  6424   0.892E-02    0.116E-02
RMM:   2    -0.947016205864E+02   -0.16980E-05   -0.22048E-05  3287   0.253E-02
   5 F= -.94701621E+02 E0= -.94701287E+02  d E =-.167447E-02
 curvature:  -0.48 expect dE=-0.111E-02 dE for cont linesearch -0.391E-05
 trial: gam= 0.63197 g(F)=  0.229E-02 g(S)=  0.000E+00 ort =-0.184E-03 (trialstep = 0.907E+00)
 search vector abs. value=  0.372E-02
 bond charge predicted
       N       E                     dE             d eps       ncg     rms          rms(c)
DAV:   1    -0.947024154699E+02   -0.79658E-03   -0.38647E-01  6760   0.343E+00    0.161E-01
RMM:   2    -0.947029708581E+02   -0.55539E-03   -0.75919E-03  6480   0.412E-01    0.576E-02
RMM:   3    -0.947029149164E+02    0.55942E-04   -0.34168E-04  4541   0.802E-02
   6 F= -.94702915E+02 E0= -.94702595E+02  d E =-.129433E-02
 trial-energy change:   -0.001294  1 .order   -0.001344   -0.001971   -0.000717
 step:   1.4265(harm=  1.4265)  dis= 0.00607  next Energy=   -94.703170 (dE=-0.155E-02)
 bond charge predicted
       N       E                     dE             d eps       ncg     rms          rms(c)
DAV:   1    -0.947028590970E+02    0.11176E-03   -0.12235E-01  6984   0.194E+00    0.862E-02
RMM:   2    -0.947030311681E+02   -0.17207E-03   -0.23513E-03  6480   0.229E-01    0.374E-02
RMM:   3    -0.947030143724E+02    0.16796E-04   -0.10048E-04  3849   0.459E-02
   7 F= -.94703014E+02 E0= -.94702703E+02  d E =-.139379E-02
 curvature:  -1.22 expect dE=-0.133E-03 dE for cont linesearch -0.708E-05
 trial: gam=-0.03803 g(F)=  0.109E-03 g(S)=  0.000E+00 ort =-0.147E-03 (trialstep = 0.101E+01)
 search vector abs. value=  0.126E-03
 reached required accuracy - stopping structural energy minimisation
