 vasp.5.4.4.18Apr17-6-g9f103f2a35 (build Nov 01 2019 12:17:22) complex          
  
 executed on             LinuxIFC date 2023.05.19  18:18:50
 running on   16 total cores
 distrk:  each k-point on   16 cores,    1 groups
 distr:  one band on NCORES_PER_BAND=   4 cores,    4 groups


--------------------------------------------------------------------------------------------------------


 INCAR:
 POTCAR:    PAW_PBE N 08Apr2002                   
 POTCAR:    PAW_PBE Si 05Jan2001                  
 POTCAR:    PAW_PBE N 08Apr2002                   
   VRHFIN =N: s2p3                                                              
   LEXCH  = PE                                                                  
   EATOM  =   264.5486 eV,   19.4438 Ry                                         
                                                                                
   TITEL  = PAW_PBE N 08Apr2002                                                 
   LULTRA =        F    use ultrasoft PP ?                                      
   IUNSCR =        1    unscreen: 0-lin 1-nonlin 2-no                           
   RPACOR =    1.200    partial core radius                                     
   POMASS =   14.001; ZVAL   =    5.000    mass and valenz                      
   RCORE  =    1.500    outmost cutoff radius                                   
   RWIGS  =    1.400; RWIGS  =    0.741    wigner-seitz radius (au A)           
   ENMAX  =  400.000; ENMIN  =  300.000 eV                                      
   ICORE  =        2    local potential                                         
   LCOR   =        T    correct aug charges                                     
   LPAW   =        T    paw PP                                                  
   EAUG   =  627.112                                                            
   DEXC   =    0.000                                                            
   RMAX   =    1.529    core radius for proj-oper                               
   RAUG   =    1.300    factor for augmentation sphere                          
   RDEP   =    1.514    radius for radial grids                                 
   RDEPT  =    1.338    core radius for aug-charge                              
                                                                                
   Atomic configuration                                                         
    4 entries                                                                   
     n  l   j            E        occ.                                          
     1  0  0.50      -384.7179   2.0000                                         
     2  0  0.50       -18.5828   2.0000                                         
     2  1  0.50        -7.0898   3.0000                                         
     3  2  1.50        -6.8029   0.0000                                         
   Description                                                                  
     l       E           TYP  RCUT    TYP  RCUT                                 
     0    -18.5828119     23  1.200                                             
     0    -13.5018863     23  1.200                                             
     1     -7.0897853     23  1.500                                             
     1      9.5240782     23  1.500                                             
     2     -6.8029130      7  1.500                                             
  local pseudopotential read in
  partial core-charges read in
  partial kinetic energy density read in
  atomic valenz-charges read in
  non local Contribution for L=           0  read in
    real space projection operators read in
  non local Contribution for L=           0  read in
    real space projection operators read in
  non local Contribution for L=           1  read in
    real space projection operators read in
  non local Contribution for L=           1  read in
    real space projection operators read in
    PAW grid and wavefunctions read in
 
   number of l-projection  operators is LMAX  =           4
   number of lm-projection operators is LMMAX =           8
 
 POTCAR:    PAW_PBE Si 05Jan2001                  
   VRHFIN =Si: s2p2                                                             
   LEXCH  = PE                                                                  
   EATOM  =   103.0669 eV,    7.5752 Ry                                         
                                                                                
   TITEL  = PAW_PBE Si 05Jan2001                                                
   LULTRA =        F    use ultrasoft PP ?                                      
   IUNSCR =        1    unscreen: 0-lin 1-nonlin 2-no                           
   RPACOR =    1.500    partial core radius                                     
   POMASS =   28.085; ZVAL   =    4.000    mass and valenz                      
   RCORE  =    1.900    outmost cutoff radius                                   
   RWIGS  =    2.480; RWIGS  =    1.312    wigner-seitz radius (au A)           
   ENMAX  =  245.345; ENMIN  =  184.009 eV                                      
   ICORE  =        2    local potential                                         
   LCOR   =        T    correct aug charges                                     
   LPAW   =        T    paw PP                                                  
   EAUG   =  322.069                                                            
   DEXC   =    0.000                                                            
   RMAX   =    1.950    core radius for proj-oper                               
   RAUG   =    1.300    factor for augmentation sphere                          
   RDEP   =    1.993    radius for radial grids                                 
   RDEPT  =    1.837    core radius for aug-charge                              
                                                                                
   Atomic configuration                                                         
    6 entries                                                                   
     n  l   j            E        occ.                                          
     1  0  0.50     -1785.8828   2.0000                                         
     2  0  0.50      -139.4969   2.0000                                         
     2  1  1.50       -95.5546   6.0000                                         
     3  0  0.50       -10.8127   2.0000                                         
     3  1  0.50        -4.0811   2.0000                                         
     3  2  1.50        -4.0817   0.0000                                         
   Description                                                                  
     l       E           TYP  RCUT    TYP  RCUT                                 
     0    -10.8127223     23  1.900                                             
     0     -7.6451159     23  1.900                                             
     1     -4.0811372     23  1.900                                             
     1      2.4879257     23  1.900                                             
     2     -4.0817478      7  1.900                                             
  local pseudopotential read in
  partial core-charges read in
  partial kinetic energy density read in
  atomic valenz-charges read in
  non local Contribution for L=           0  read in
    real space projection operators read in
  non local Contribution for L=           0  read in
    real space projection operators read in
  non local Contribution for L=           1  read in
    real space projection operators read in
  non local Contribution for L=           1  read in
    real space projection operators read in
    PAW grid and wavefunctions read in
 
   number of l-projection  operators is LMAX  =           4
   number of lm-projection operators is LMMAX =           8
 
 Optimization of the real space projectors (new method)

 maximal supplied QI-value         = 25.13
 optimisation between [QCUT,QGAM] = [ 10.05, 20.36] = [ 28.30,116.06] Ry 
 Optimized for a Real-space Cutoff    1.70 Angstroem

   l    n(q)    QCUT    max X(q) W(low)/X(q) W(high)/X(q)  e(spline) 
   0     10    10.053    79.467    0.61E-04    0.98E-04    0.61E-06
   0     10    10.053    66.151    0.60E-04    0.98E-04    0.61E-06
   1     10    10.053     8.350    0.17E-03    0.71E-03    0.45E-05
   1     10    10.053     5.531    0.18E-03    0.77E-03    0.49E-05
 Optimization of the real space projectors (new method)

 maximal supplied QI-value         = 19.84
 optimisation between [QCUT,QGAM] = [ 10.12, 20.44] = [ 28.68,116.96] Ry 
 Optimized for a Real-space Cutoff    1.38 Angstroem

   l    n(q)    QCUT    max X(q) W(low)/X(q) W(high)/X(q)  e(spline) 
   0      8    10.119   159.560    0.58E-04    0.11E-03    0.54E-07
   0      8    10.119   115.863    0.56E-04    0.11E-03    0.54E-07
   1      8    10.119    88.339    0.22E-03    0.17E-03    0.19E-06
   1      8    10.119    48.592    0.22E-03    0.17E-03    0.18E-06
  PAW_PBE N 08Apr2002                   :
 energy of atom  1       EATOM= -264.5486
 kinetic energy error for atom=    0.0736 (will be added to EATOM!!)
  PAW_PBE Si 05Jan2001                  :
 energy of atom  2       EATOM= -103.0669
 kinetic energy error for atom=    0.0012 (will be added to EATOM!!)
 
 
 POSCAR: Si6 N8                                  
  positions in direct lattice
  No initial velocities read in
 exchange correlation table for  LEXCH =        8
   RHO(1)=    0.500       N(1)  =     2000
   RHO(2)=  100.500       N(2)  =     4000
 


--------------------------------------------------------------------------------------------------------


 ion  position               nearest neighbor table
   1  0.197  0.832  0.750-   9 1.77  10 1.78  10 1.78   7 2.04
   2  0.366  0.197  0.250-  10 1.77  12 1.78  12 1.78   8 2.04
   3  0.832  0.634  0.250-  11 1.77   9 1.78   9 1.78   8 2.04
   4  0.168  0.366  0.750-  12 1.77  13 1.78  13 1.78   7 2.04
   5  0.634  0.803  0.750-  14 1.77  11 1.78  11 1.78   7 2.04
   6  0.803  0.168  0.250-  13 1.77  14 1.78  14 1.78   8 2.04
   7  0.333  0.667  0.750-   5 2.04   4 2.04   1 2.04  11 2.64  11 2.64  13 2.64  13 2.64  10 2.64
                            10 2.64  12 2.70  14 2.70   9 2.70
   8  0.667  0.333  0.250-   2 2.04   3 2.04   6 2.04  12 2.64  12 2.64   9 2.64   9 2.64  14 2.64
                            14 2.64  11 2.70  10 2.70  13 2.70
   9  0.964  0.612  0.750-   1 1.77   3 1.78   3 1.78  13 2.51  13 2.51   8 2.64   8 2.64   7 2.70

  10  0.351  0.964  0.250-   2 1.77   1 1.78   1 1.78  14 2.51  14 2.51   7 2.64   7 2.64   8 2.70

  11  0.612  0.649  0.250-   3 1.77   5 1.78   5 1.78  12 2.51  12 2.51   7 2.64   7 2.64   8 2.70

  12  0.388  0.351  0.750-   4 1.77   2 1.78   2 1.78  11 2.51  11 2.51   8 2.64   8 2.64   7 2.70

  13  0.036  0.388  0.250-   6 1.77   4 1.78   4 1.78   9 2.51   9 2.51   7 2.64   7 2.64   8 2.70

  14  0.649  0.036  0.750-   5 1.77   6 1.78   6 1.78  10 2.51  10 2.51   8 2.64   8 2.64   7 2.70

 
  LATTYP: Found a hexagonal cell.
 ALAT       =     7.8028145445
 C/A-ratio  =     0.3517300815
  
  Lattice vectors:
  
 A1 = (   3.9014072773,  -6.7574356136,   0.0000000000)
 A2 = (   3.9014072672,   6.7574356194,   0.0000000000)
 A3 = (   0.0000000000,   0.0000000000,   2.7444845953)


Analysis of symmetry for initial positions (statically):
=====================================================================
 Subroutine PRICEL returns:
 Original cell was already a primitive cell.
 

 Routine SETGRP: Setting up the symmetry group for a 
 hexagonal supercell.


 Subroutine GETGRP returns: Found 12 space group operations
 (whereof  6 operations were pure point group operations)
 out of a pool of 24 trial point group operations.


The static configuration has the point symmetry S_6 .
 The point group associated with its full space group is C_6h.


Analysis of symmetry for dynamics (positions and initial velocities):
=====================================================================
 Subroutine PRICEL returns:
 Original cell was already a primitive cell.
 

 Routine SETGRP: Setting up the symmetry group for a 
 hexagonal supercell.


 Subroutine GETGRP returns: Found 12 space group operations
 (whereof  6 operations were pure point group operations)
 out of a pool of 24 trial point group operations.


The dynamic configuration has the point symmetry S_6 .
 The point group associated with its full space group is C_6h.


 Subroutine INISYM returns: Found 12 space group operations
 (whereof  6 operations are pure point group operations),
 and found     1 'primitive' translations

 
 
 KPOINTS: Automatic mesh                          

Automatic generation of k-mesh.
 generate k-points for:    7    7   16
Space group operators:
 irot       det(A)        alpha          n_x          n_y          n_z        tau_x        tau_y        tau_z
    1     1.000000     0.000000     1.000000     0.000000     0.000000     0.000000     0.000000     0.000000
    2    -1.000000     0.000000     1.000000     0.000000     0.000000     0.000000     0.000000     0.000000
    3     1.000000   120.000000     0.000000     0.000000    -1.000000     0.000000     0.000000     0.000000
    4    -1.000000   120.000000     0.000000     0.000000    -1.000000     0.000000     0.000000     0.000000
    5     1.000000   120.000000     0.000000     0.000000     1.000000     0.000000     0.000000     0.000000
    6    -1.000000   120.000000     0.000000     0.000000     1.000000     0.000000     0.000000     0.000000
    7     1.000000    60.000000     0.000000     0.000000    -1.000000     0.000000     0.000000     0.500000
    8    -1.000000    60.000000     0.000000     0.000000    -1.000000     0.000000     0.000000     0.500000
    9     1.000000   180.000000     0.000000     0.000000     1.000000     0.000000     0.000000     0.500000
   10    -1.000000   180.000000     0.000000     0.000000     1.000000     0.000000     0.000000     0.500000
   11     1.000000    60.000000     0.000000     0.000000     1.000000     0.000000     0.000000     0.500000
   12    -1.000000    60.000000     0.000000     0.000000     1.000000     0.000000     0.000000     0.500000
 
 Subroutine IBZKPT returns following result:
 ===========================================
 
 Found     81 irreducible k-points:
 
 Following reciprocal coordinates:
            Coordinates               Weight
  0.000000  0.000000  0.000000      1.000000
  0.142857  0.000000  0.000000      6.000000
  0.285714  0.000000  0.000000      6.000000
  0.428571  0.000000  0.000000      6.000000
  0.142857  0.142857  0.000000      6.000000
  0.285714  0.142857  0.000000      6.000000
  0.428571  0.142857  0.000000      6.000000
 -0.428571  0.142857  0.000000      6.000000
  0.285714  0.285714  0.000000      6.000000
  0.000000  0.000000  0.062500      2.000000
  0.142857  0.000000  0.062500     12.000000
  0.285714  0.000000  0.062500     12.000000
  0.428571  0.000000  0.062500     12.000000
  0.142857  0.142857  0.062500     12.000000
  0.285714  0.142857  0.062500     12.000000
  0.428571  0.142857  0.062500     12.000000
 -0.428571  0.142857  0.062500     12.000000
  0.285714  0.285714  0.062500     12.000000
  0.000000  0.000000  0.125000      2.000000
  0.142857  0.000000  0.125000     12.000000
  0.285714  0.000000  0.125000     12.000000
  0.428571  0.000000  0.125000     12.000000
  0.142857  0.142857  0.125000     12.000000
  0.285714  0.142857  0.125000     12.000000
  0.428571  0.142857  0.125000     12.000000
 -0.428571  0.142857  0.125000     12.000000
  0.285714  0.285714  0.125000     12.000000
  0.000000  0.000000  0.187500      2.000000
  0.142857  0.000000  0.187500     12.000000
  0.285714  0.000000  0.187500     12.000000
  0.428571  0.000000  0.187500     12.000000
  0.142857  0.142857  0.187500     12.000000
  0.285714  0.142857  0.187500     12.000000
  0.428571  0.142857  0.187500     12.000000
 -0.428571  0.142857  0.187500     12.000000
  0.285714  0.285714  0.187500     12.000000
  0.000000  0.000000  0.250000      2.000000
  0.142857  0.000000  0.250000     12.000000
  0.285714  0.000000  0.250000     12.000000
  0.428571  0.000000  0.250000     12.000000
  0.142857  0.142857  0.250000     12.000000
  0.285714  0.142857  0.250000     12.000000
  0.428571  0.142857  0.250000     12.000000
 -0.428571  0.142857  0.250000     12.000000
  0.285714  0.285714  0.250000     12.000000
  0.000000  0.000000  0.312500      2.000000
  0.142857  0.000000  0.312500     12.000000
  0.285714  0.000000  0.312500     12.000000
  0.428571  0.000000  0.312500     12.000000
  0.142857  0.142857  0.312500     12.000000
  0.285714  0.142857  0.312500     12.000000
  0.428571  0.142857  0.312500     12.000000
 -0.428571  0.142857  0.312500     12.000000
  0.285714  0.285714  0.312500     12.000000
  0.000000  0.000000  0.375000      2.000000
  0.142857  0.000000  0.375000     12.000000
  0.285714  0.000000  0.375000     12.000000
  0.428571  0.000000  0.375000     12.000000
  0.142857  0.142857  0.375000     12.000000
  0.285714  0.142857  0.375000     12.000000
  0.428571  0.142857  0.375000     12.000000
 -0.428571  0.142857  0.375000     12.000000
  0.285714  0.285714  0.375000     12.000000
  0.000000  0.000000  0.437500      2.000000
  0.142857  0.000000  0.437500     12.000000
  0.285714  0.000000  0.437500     12.000000
  0.428571  0.000000  0.437500     12.000000
  0.142857  0.142857  0.437500     12.000000
  0.285714  0.142857  0.437500     12.000000
  0.428571  0.142857  0.437500     12.000000
 -0.428571  0.142857  0.437500     12.000000
  0.285714  0.285714  0.437500     12.000000
  0.000000  0.000000  0.500000      1.000000
  0.142857  0.000000  0.500000      6.000000
  0.285714  0.000000  0.500000      6.000000
  0.428571  0.000000  0.500000      6.000000
  0.142857  0.142857  0.500000      6.000000
  0.285714  0.142857  0.500000      6.000000
  0.428571  0.142857  0.500000      6.000000
 -0.428571  0.142857  0.500000      6.000000
  0.285714  0.285714  0.500000      6.000000
 
 Following cartesian coordinates:
            Coordinates               Weight
  0.000000  0.000000  0.000000      1.000000
  0.018308 -0.010570  0.000000      6.000000
  0.036617 -0.021141  0.000000      6.000000
  0.054925 -0.031711  0.000000      6.000000
  0.036617  0.000000  0.000000      6.000000
  0.054925 -0.010570  0.000000      6.000000
  0.073234 -0.021141  0.000000      6.000000
 -0.036617  0.042281  0.000000      6.000000
  0.073234  0.000000  0.000000      6.000000
  0.000000  0.000000  0.022773      2.000000
  0.018308 -0.010570  0.022773     12.000000
  0.036617 -0.021141  0.022773     12.000000
  0.054925 -0.031711  0.022773     12.000000
  0.036617  0.000000  0.022773     12.000000
  0.054925 -0.010570  0.022773     12.000000
  0.073234 -0.021141  0.022773     12.000000
 -0.036617  0.042281  0.022773     12.000000
  0.073234  0.000000  0.022773     12.000000
  0.000000  0.000000  0.045546      2.000000
  0.018308 -0.010570  0.045546     12.000000
  0.036617 -0.021141  0.045546     12.000000
  0.054925 -0.031711  0.045546     12.000000
  0.036617  0.000000  0.045546     12.000000
  0.054925 -0.010570  0.045546     12.000000
  0.073234 -0.021141  0.045546     12.000000
 -0.036617  0.042281  0.045546     12.000000
  0.073234  0.000000  0.045546     12.000000
  0.000000  0.000000  0.068319      2.000000
  0.018308 -0.010570  0.068319     12.000000
  0.036617 -0.021141  0.068319     12.000000
  0.054925 -0.031711  0.068319     12.000000
  0.036617  0.000000  0.068319     12.000000
  0.054925 -0.010570  0.068319     12.000000
  0.073234 -0.021141  0.068319     12.000000
 -0.036617  0.042281  0.068319     12.000000
  0.073234  0.000000  0.068319     12.000000
  0.000000  0.000000  0.091092      2.000000
  0.018308 -0.010570  0.091092     12.000000
  0.036617 -0.021141  0.091092     12.000000
  0.054925 -0.031711  0.091092     12.000000
  0.036617  0.000000  0.091092     12.000000
  0.054925 -0.010570  0.091092     12.000000
  0.073234 -0.021141  0.091092     12.000000
 -0.036617  0.042281  0.091092     12.000000
  0.073234  0.000000  0.091092     12.000000
  0.000000  0.000000  0.113865      2.000000
  0.018308 -0.010570  0.113865     12.000000
  0.036617 -0.021141  0.113865     12.000000
  0.054925 -0.031711  0.113865     12.000000
  0.036617  0.000000  0.113865     12.000000
  0.054925 -0.010570  0.113865     12.000000
  0.073234 -0.021141  0.113865     12.000000
 -0.036617  0.042281  0.113865     12.000000
  0.073234  0.000000  0.113865     12.000000
  0.000000  0.000000  0.136638      2.000000
  0.018308 -0.010570  0.136638     12.000000
  0.036617 -0.021141  0.136638     12.000000
  0.054925 -0.031711  0.136638     12.000000
  0.036617  0.000000  0.136638     12.000000
  0.054925 -0.010570  0.136638     12.000000
  0.073234 -0.021141  0.136638     12.000000
 -0.036617  0.042281  0.136638     12.000000
  0.073234  0.000000  0.136638     12.000000
  0.000000  0.000000  0.159411      2.000000
  0.018308 -0.010570  0.159411     12.000000
  0.036617 -0.021141  0.159411     12.000000
  0.054925 -0.031711  0.159411     12.000000
  0.036617  0.000000  0.159411     12.000000
  0.054925 -0.010570  0.159411     12.000000
  0.073234 -0.021141  0.159411     12.000000
 -0.036617  0.042281  0.159411     12.000000
  0.073234  0.000000  0.159411     12.000000
  0.000000  0.000000  0.182184      1.000000
  0.018308 -0.010570  0.182184      6.000000
  0.036617 -0.021141  0.182184      6.000000
  0.054925 -0.031711  0.182184      6.000000
  0.036617  0.000000  0.182184      6.000000
  0.054925 -0.010570  0.182184      6.000000
  0.073234 -0.021141  0.182184      6.000000
 -0.036617  0.042281  0.182184      6.000000
  0.073234  0.000000  0.182184      6.000000
 


--------------------------------------------------------------------------------------------------------




 Dimension of arrays:
   k-points           NKPTS =     81   k-points in BZ     NKDIM =     81   number of bands    NBANDS=     40
   number of dos      NEDOS =    301   number of ions     NIONS =     14
   non local maximal  LDIM  =      4   non local SUM 2l+1 LMDIM =      8
   total plane-waves  NPLWV =  52488
   max r-space proj   IRMAX =   7486   max aug-charges    IRDMAX=  12325
   dimension x,y,z NGX =    54 NGY =   54 NGZ =   18
   dimension x,y,z NGXF=   108 NGYF=  108 NGZF=   36
   support grid    NGXF=   108 NGYF=  108 NGZF=   36
   ions per type =               6   8
   NGX,Y,Z   is equivalent  to a cutoff of  11.51, 11.51, 10.90 a.u.
   NGXF,Y,Z  is equivalent  to a cutoff of  23.01, 23.01, 21.81 a.u.

 SYSTEM =  unknown system                          
 POSCAR =  Si6 N8                                  

 Startparameter for this run:
   NWRITE =      2    write-flag & timer
   PREC   = accura    normal or accurate (medium, high low for compatibility)
   ISTART =      0    job   : 0-new  1-cont  2-samecut
   ICHARG =      2    charge: 1-file 2-atom 10-const
   ISPIN  =      1    spin polarized calculation?
   LNONCOLLINEAR =      F non collinear calculations
   LSORBIT =      F    spin-orbit coupling
   INIWAV =      1    electr: 0-lowe 1-rand  2-diag
   LASPH  =      F    aspherical Exc in radial PAW
   METAGGA=      F    non-selfconsistent MetaGGA calc.

 Electronic Relaxation 1
   ENCUT  =  400.0 eV  29.40 Ry    5.42 a.u.  12.72 12.72  4.48*2*pi/ulx,y,z
   ENINI  =  400.0     initial cutoff
   ENAUG  =  627.1 eV  augmentation charge cutoff
   NELM   =     60;   NELMIN=  2; NELMDL= -5     # of ELM steps 
   EDIFF  = 0.1E-03   stopping-criterion for ELM
   LREAL  =      T    real-space projection
   NLSPLINE    = F    spline interpolate recip. space projectors
   LCOMPAT=      F    compatible to vasp.4.4
   GGA_COMPAT  = T    GGA compatible to vasp.4.4-vasp.4.6
   LMAXPAW     = -100 max onsite density
   LMAXMIX     =    2 max onsite mixed and CHGCAR
   VOSKOWN=      0    Vosko Wilk Nusair interpolation
   ROPT   =   -0.00025  -0.00025
 Ionic relaxation
   EDIFFG = 0.1E-02   stopping-criterion for IOM
   NSW    =    100    number of steps for IOM
   NBLOCK =      1;   KBLOCK =    100    inner block; outer block 
   IBRION =      2    ionic relax: 0-MD 1-quasi-New 2-CG
   NFREE  =      1    steps in history (QN), initial steepest desc. (CG)
   ISIF   =      2    stress and relaxation
   IWAVPR =     11    prediction:  0-non 1-charg 2-wave 3-comb
   ISYM   =      2    0-nonsym 1-usesym 2-fastsym
   LCORR  =      T    Harris-Foulkes like correction to forces

   POTIM  = 0.5000    time-step for ionic-motion
   TEIN   =    0.0    initial temperature
   TEBEG  =    0.0;   TEEND  =   0.0 temperature during run
   SMASS  =  -3.00    Nose mass-parameter (am)
   estimated Nose-frequenzy (Omega)   =  0.10E-29 period in steps =****** mass=  -0.139E-26a.u.
   SCALEE = 1.0000    scale energy and forces
   NPACO  =    256;   APACO  = 16.0  distance and # of slots for P.C.
   PSTRESS=    0.0 pullay stress

  Mass of Ions in am
   POMASS =  14.00 28.09
  Ionic Valenz
   ZVAL   =   5.00  4.00
  Atomic Wigner-Seitz radii
   RWIGS  =  -1.00 -1.00
  virtual crystal weights 
   VCA    =   1.00  1.00
   NELECT =      62.0000    total number of electrons
   NUPDOWN=      -1.0000    fix difference up-down

 DOS related values:
   EMIN   =  10.00;   EMAX   =-10.00  energy-range for DOS
   EFERMI =   0.00
   ISMEAR =     2;   SIGMA  =   0.10  broadening in eV -4-tet -1-fermi 0-gaus

 Electronic relaxation 2 (details)
   IALGO  =     68    algorithm
   LDIAG  =      T    sub-space diagonalisation (order eigenvalues)
   LSUBROT=      F    optimize rotation matrix (better conditioning)
   TURBO    =      0    0=normal 1=particle mesh
   IRESTART =      0    0=no restart 2=restart with 2 vectors
   NREBOOT  =      0    no. of reboots
   NMIN     =      0    reboot dimension
   EREF     =   0.00    reference energy to select bands
   IMIX   =      4    mixing-type and parameters
     AMIX     =   0.40;   BMIX     =  1.00
     AMIX_MAG =   1.60;   BMIX_MAG =  1.00
     AMIN     =   0.10
     WC   =   100.;   INIMIX=   1;  MIXPRE=   1;  MAXMIX= -45

 Intra band minimization:
   WEIMIN = 0.0010     energy-eigenvalue tresh-hold
   EBREAK =  0.63E-06  absolut break condition
   DEPER  =   0.30     relativ break condition  

   TIME   =   0.40     timestep for ELM

  volume/ion in A,a.u.               =      10.34        69.75
  Fermi-wavevector in a.u.,A,eV,Ry     =   1.234167  2.332238 20.723974  1.523169
  Thomas-Fermi vector in A             =   2.368868
 
 Write flags
   LWAVE        =      F    write WAVECAR
   LDOWNSAMPLE  =      F    k-point downsampling of WAVECAR
   LCHARG       =      F    write CHGCAR
   LVTOT        =      F    write LOCPOT, total local potential
   LVHAR        =      F    write LOCPOT, Hartree potential only
   LELF         =      F    write electronic localiz. function (ELF)
   LORBIT       =      0    0 simple, 1 ext, 2 COOP (PROOUT), +10 PAW based schemes


 Dipole corrections
   LMONO  =      F    monopole corrections only (constant potential shift)
   LDIPOL =      F    correct potential (dipole corrections)
   IDIPOL =      0    1-x, 2-y, 3-z, 4-all directions 
   EPSILON=  1.0000000 bulk dielectric constant

 Exchange correlation treatment:
   GGA     =    --    GGA type
   LEXCH   =     8    internal setting for exchange type
   VOSKOWN=      0    Vosko Wilk Nusair interpolation
   LHFCALC =     F    Hartree Fock is set to
   LHFONE  =     F    Hartree Fock one center treatment
   AEXX    =    0.0000 exact exchange contribution

 Linear response parameters
   LEPSILON=     F    determine dielectric tensor
   LRPA    =     F    only Hartree local field effects (RPA)
   LNABLA  =     F    use nabla operator in PAW spheres
   LVEL    =     F    velocity operator in full k-point grid
   LINTERFAST=   F  fast interpolation
   KINTER  =     0    interpolate to denser k-point grid
   CSHIFT  =0.1000    complex shift for real part using Kramers Kronig
   OMEGAMAX=  -1.0    maximum frequency
   DEG_THRESHOLD= 0.2000000E-02 threshold for treating states as degnerate
   RTIME   =   -0.100 relaxation time in fs
  (WPLASMAI=    0.000 imaginary part of plasma frequency in eV, 0.658/RTIME)
   DFIELD  = 0.0000000 0.0000000 0.0000000 field for delta impulse in time
 
 Orbital magnetization related:
   ORBITALMAG=     F  switch on orbital magnetization
   LCHIMAG   =     F  perturbation theory with respect to B field
   DQ        =  0.001000  dq finite difference perturbation B field
   LLRAUG    =     F  two centre corrections for induced B field



--------------------------------------------------------------------------------------------------------


 conjugate gradient relaxation of ions
 charge density and potential will be updated during run
 non-spin polarized calculation
 RMM-DIIS sequential band-by-band and
  variant of blocked Davidson during initial phase
 perform sub-space diagonalisation
    before iterative eigenvector-optimisation
 modified Broyden-mixing scheme, WC =      100.0
 initial mixing is a Kerker type mixing with AMIX =  0.4000 and BMIX =      1.0000
 Hartree-type preconditioning will be used
 using additional bands            9
 real space projection scheme for non local part
 use partial core corrections
 calculate Harris-corrections to forces 
   (improved forces if not selfconsistent)
 use gradient corrections 
 use of overlap-Matrix (Vanderbilt PP)
 Methfessel and Paxton  Order N= 2 SIGMA  =   0.10


--------------------------------------------------------------------------------------------------------


  energy-cutoff  :      400.00
  volume of cell :      144.71
      direct lattice vectors                 reciprocal lattice vectors
     3.901407277 -6.757435614  0.000000000     0.128158884 -0.073992566  0.000000000
     3.901407267  6.757435619  0.000000000     0.128158883  0.073992566  0.000000000
     0.000000000  0.000000000  2.744484595     0.000000000  0.000000000  0.364367139

  length of vectors
     7.802814544  7.802814544  2.744484595     0.147985132  0.147985132  0.364367139


 
 k-points in units of 2pi/SCALE and weight: Automatic mesh                          
   0.00000000  0.00000000  0.00000000       0.001
   0.01830841 -0.01057037  0.00000000       0.008
   0.03661682 -0.02114073  0.00000000       0.008
   0.05492524 -0.03171110  0.00000000       0.008
   0.03661682  0.00000000  0.00000000       0.008
   0.05492524 -0.01057037  0.00000000       0.008
   0.07323365 -0.02114073  0.00000000       0.008
  -0.03661682  0.04228147  0.00000000       0.008
   0.07323365  0.00000000  0.00000000       0.008
   0.00000000  0.00000000  0.02277295       0.003
   0.01830841 -0.01057037  0.02277295       0.015
   0.03661682 -0.02114073  0.02277295       0.015
   0.05492524 -0.03171110  0.02277295       0.015
   0.03661682  0.00000000  0.02277295       0.015
   0.05492524 -0.01057037  0.02277295       0.015
   0.07323365 -0.02114073  0.02277295       0.015
  -0.03661682  0.04228147  0.02277295       0.015
   0.07323365  0.00000000  0.02277295       0.015
   0.00000000  0.00000000  0.04554589       0.003
   0.01830841 -0.01057037  0.04554589       0.015
   0.03661682 -0.02114073  0.04554589       0.015
   0.05492524 -0.03171110  0.04554589       0.015
   0.03661682  0.00000000  0.04554589       0.015
   0.05492524 -0.01057037  0.04554589       0.015
   0.07323365 -0.02114073  0.04554589       0.015
  -0.03661682  0.04228147  0.04554589       0.015
   0.07323365  0.00000000  0.04554589       0.015
   0.00000000  0.00000000  0.06831884       0.003
   0.01830841 -0.01057037  0.06831884       0.015
   0.03661682 -0.02114073  0.06831884       0.015
   0.05492524 -0.03171110  0.06831884       0.015
   0.03661682  0.00000000  0.06831884       0.015
   0.05492524 -0.01057037  0.06831884       0.015
   0.07323365 -0.02114073  0.06831884       0.015
  -0.03661682  0.04228147  0.06831884       0.015
   0.07323365  0.00000000  0.06831884       0.015
   0.00000000  0.00000000  0.09109178       0.003
   0.01830841 -0.01057037  0.09109178       0.015
   0.03661682 -0.02114073  0.09109178       0.015
   0.05492524 -0.03171110  0.09109178       0.015
   0.03661682  0.00000000  0.09109178       0.015
   0.05492524 -0.01057037  0.09109178       0.015
   0.07323365 -0.02114073  0.09109178       0.015
  -0.03661682  0.04228147  0.09109178       0.015
   0.07323365  0.00000000  0.09109178       0.015
   0.00000000  0.00000000  0.11386473       0.003
   0.01830841 -0.01057037  0.11386473       0.015
   0.03661682 -0.02114073  0.11386473       0.015
   0.05492524 -0.03171110  0.11386473       0.015
   0.03661682  0.00000000  0.11386473       0.015
   0.05492524 -0.01057037  0.11386473       0.015
   0.07323365 -0.02114073  0.11386473       0.015
  -0.03661682  0.04228147  0.11386473       0.015
   0.07323365  0.00000000  0.11386473       0.015
   0.00000000  0.00000000  0.13663768       0.003
   0.01830841 -0.01057037  0.13663768       0.015
   0.03661682 -0.02114073  0.13663768       0.015
   0.05492524 -0.03171110  0.13663768       0.015
   0.03661682  0.00000000  0.13663768       0.015
   0.05492524 -0.01057037  0.13663768       0.015
   0.07323365 -0.02114073  0.13663768       0.015
  -0.03661682  0.04228147  0.13663768       0.015
   0.07323365  0.00000000  0.13663768       0.015
   0.00000000  0.00000000  0.15941062       0.003
   0.01830841 -0.01057037  0.15941062       0.015
   0.03661682 -0.02114073  0.15941062       0.015
   0.05492524 -0.03171110  0.15941062       0.015
   0.03661682  0.00000000  0.15941062       0.015
   0.05492524 -0.01057037  0.15941062       0.015
   0.07323365 -0.02114073  0.15941062       0.015
  -0.03661682  0.04228147  0.15941062       0.015
   0.07323365  0.00000000  0.15941062       0.015
   0.00000000  0.00000000  0.18218357       0.001
   0.01830841 -0.01057037  0.18218357       0.008
   0.03661682 -0.02114073  0.18218357       0.008
   0.05492524 -0.03171110  0.18218357       0.008
   0.03661682  0.00000000  0.18218357       0.008
   0.05492524 -0.01057037  0.18218357       0.008
   0.07323365 -0.02114073  0.18218357       0.008
  -0.03661682  0.04228147  0.18218357       0.008
   0.07323365  0.00000000  0.18218357       0.008
 
 k-points in reciprocal lattice and weights: Automatic mesh                          
   0.00000000  0.00000000  0.00000000       0.001
   0.14285714  0.00000000  0.00000000       0.008
   0.28571429  0.00000000  0.00000000       0.008
   0.42857143  0.00000000  0.00000000       0.008
   0.14285714  0.14285714  0.00000000       0.008
   0.28571429  0.14285714  0.00000000       0.008
   0.42857143  0.14285714  0.00000000       0.008
  -0.42857143  0.14285714  0.00000000       0.008
   0.28571429  0.28571429  0.00000000       0.008
   0.00000000  0.00000000  0.06250000       0.003
   0.14285714  0.00000000  0.06250000       0.015
   0.28571429  0.00000000  0.06250000       0.015
   0.42857143  0.00000000  0.06250000       0.015
   0.14285714  0.14285714  0.06250000       0.015
   0.28571429  0.14285714  0.06250000       0.015
   0.42857143  0.14285714  0.06250000       0.015
  -0.42857143  0.14285714  0.06250000       0.015
   0.28571429  0.28571429  0.06250000       0.015
   0.00000000  0.00000000  0.12500000       0.003
   0.14285714  0.00000000  0.12500000       0.015
   0.28571429  0.00000000  0.12500000       0.015
   0.42857143  0.00000000  0.12500000       0.015
   0.14285714  0.14285714  0.12500000       0.015
   0.28571429  0.14285714  0.12500000       0.015
   0.42857143  0.14285714  0.12500000       0.015
  -0.42857143  0.14285714  0.12500000       0.015
   0.28571429  0.28571429  0.12500000       0.015
   0.00000000  0.00000000  0.18750000       0.003
   0.14285714  0.00000000  0.18750000       0.015
   0.28571429  0.00000000  0.18750000       0.015
   0.42857143  0.00000000  0.18750000       0.015
   0.14285714  0.14285714  0.18750000       0.015
   0.28571429  0.14285714  0.18750000       0.015
   0.42857143  0.14285714  0.18750000       0.015
  -0.42857143  0.14285714  0.18750000       0.015
   0.28571429  0.28571429  0.18750000       0.015
   0.00000000  0.00000000  0.25000000       0.003
   0.14285714  0.00000000  0.25000000       0.015
   0.28571429  0.00000000  0.25000000       0.015
   0.42857143  0.00000000  0.25000000       0.015
   0.14285714  0.14285714  0.25000000       0.015
   0.28571429  0.14285714  0.25000000       0.015
   0.42857143  0.14285714  0.25000000       0.015
  -0.42857143  0.14285714  0.25000000       0.015
   0.28571429  0.28571429  0.25000000       0.015
   0.00000000  0.00000000  0.31250000       0.003
   0.14285714  0.00000000  0.31250000       0.015
   0.28571429  0.00000000  0.31250000       0.015
   0.42857143  0.00000000  0.31250000       0.015
   0.14285714  0.14285714  0.31250000       0.015
   0.28571429  0.14285714  0.31250000       0.015
   0.42857143  0.14285714  0.31250000       0.015
  -0.42857143  0.14285714  0.31250000       0.015
   0.28571429  0.28571429  0.31250000       0.015
   0.00000000  0.00000000  0.37500000       0.003
   0.14285714  0.00000000  0.37500000       0.015
   0.28571429  0.00000000  0.37500000       0.015
   0.42857143  0.00000000  0.37500000       0.015
   0.14285714  0.14285714  0.37500000       0.015
   0.28571429  0.14285714  0.37500000       0.015
   0.42857143  0.14285714  0.37500000       0.015
  -0.42857143  0.14285714  0.37500000       0.015
   0.28571429  0.28571429  0.37500000       0.015
   0.00000000  0.00000000  0.43750000       0.003
   0.14285714  0.00000000  0.43750000       0.015
   0.28571429  0.00000000  0.43750000       0.015
   0.42857143  0.00000000  0.43750000       0.015
   0.14285714  0.14285714  0.43750000       0.015
   0.28571429  0.14285714  0.43750000       0.015
   0.42857143  0.14285714  0.43750000       0.015
  -0.42857143  0.14285714  0.43750000       0.015
   0.28571429  0.28571429  0.43750000       0.015
   0.00000000  0.00000000  0.50000000       0.001
   0.14285714  0.00000000  0.50000000       0.008
   0.28571429  0.00000000  0.50000000       0.008
   0.42857143  0.00000000  0.50000000       0.008
   0.14285714  0.14285714  0.50000000       0.008
   0.28571429  0.14285714  0.50000000       0.008
   0.42857143  0.14285714  0.50000000       0.008
  -0.42857143  0.14285714  0.50000000       0.008
   0.28571429  0.28571429  0.50000000       0.008
 
 position of ions in fractional coordinates (direct lattice) 
   0.19708959  0.83151770  0.75000000
   0.36557189  0.19708959  0.25000000
   0.83151770  0.63442811  0.25000000
   0.16848230  0.36557189  0.75000000
   0.63442811  0.80291041  0.75000000
   0.80291041  0.16848230  0.25000000
   0.33333333  0.66666667  0.75000000
   0.66666667  0.33333333  0.25000000
   0.96358754  0.61246345  0.75000000
   0.35112409  0.96358754  0.25000000
   0.61246345  0.64887591  0.25000000
   0.38753655  0.35112409  0.75000000
   0.03641246  0.38753655  0.25000000
   0.64887591  0.03641246  0.75000000
 
 position of ions in cartesian coordinates  (Angst):
   4.01301598  4.28710711  2.05836345
   2.19517160 -1.13850828  0.68612115
   5.71925166 -1.33182023  0.68612115
   2.08356289  1.33182023  2.05836345
   5.60764294  1.13850828  2.05836345
   3.78979857 -4.28710710  0.68612115
   3.90140727  2.25247854  2.05836345
   3.90140727 -2.25247854  0.68612115
   6.14881680 -2.37269843  2.05836345
   5.12922552  4.13868233  0.68612115
   4.92099855  0.24605485  0.68612115
   2.88181600 -0.24605484  2.05836345
   1.65399775  2.37269844  0.68612115
   2.67358903 -4.13868233  2.05836345
 


--------------------------------------------------------------------------------------------------------


 k-point  1 :   0.0000 0.0000 0.0000  plane waves:    2655
 k-point  2 :   0.1429 0.0000 0.0000  plane waves:    2670
 k-point  3 :   0.2857 0.0000 0.0000  plane waves:    2652
 k-point  4 :   0.4286 0.0000 0.0000  plane waves:    2636
 k-point  5 :   0.1429 0.1429 0.0000  plane waves:    2647
 k-point  6 :   0.2857 0.1429 0.0000  plane waves:    2642
 k-point  7 :   0.4286 0.1429 0.0000  plane waves:    2632
 k-point  8 :  -0.4286 0.1429 0.0000  plane waves:    2642
 k-point  9 :   0.2857 0.2857 0.0000  plane waves:    2639
 k-point 10 :   0.0000 0.0000 0.0625  plane waves:    2667
 k-point 11 :   0.1429 0.0000 0.0625  plane waves:    2660
 k-point 12 :   0.2857 0.0000 0.0625  plane waves:    2649
 k-point 13 :   0.4286 0.0000 0.0625  plane waves:    2636
 k-point 14 :   0.1429 0.1429 0.0625  plane waves:    2654
 k-point 15 :   0.2857 0.1429 0.0625  plane waves:    2638
 k-point 16 :   0.4286 0.1429 0.0625  plane waves:    2632
 k-point 17 :  -0.4286 0.1429 0.0625  plane waves:    2638
 k-point 18 :   0.2857 0.2857 0.0625  plane waves:    2640
 k-point 19 :   0.0000 0.0000 0.1250  plane waves:    2643
 k-point 20 :   0.1429 0.0000 0.1250  plane waves:    2646
 k-point 21 :   0.2857 0.0000 0.1250  plane waves:    2642
 k-point 22 :   0.4286 0.0000 0.1250  plane waves:    2640
 k-point 23 :   0.1429 0.1429 0.1250  plane waves:    2646
 k-point 24 :   0.2857 0.1429 0.1250  plane waves:    2645
 k-point 25 :   0.4286 0.1429 0.1250  plane waves:    2634
 k-point 26 :  -0.4286 0.1429 0.1250  plane waves:    2645
 k-point 27 :   0.2857 0.2857 0.1250  plane waves:    2646
 k-point 28 :   0.0000 0.0000 0.1875  plane waves:    2649
 k-point 29 :   0.1429 0.0000 0.1875  plane waves:    2636
 k-point 30 :   0.2857 0.0000 0.1875  plane waves:    2633
 k-point 31 :   0.4286 0.0000 0.1875  plane waves:    2644
 k-point 32 :   0.1429 0.1429 0.1875  plane waves:    2635
 k-point 33 :   0.2857 0.1429 0.1875  plane waves:    2639
 k-point 34 :   0.4286 0.1429 0.1875  plane waves:    2642
 k-point 35 :  -0.4286 0.1429 0.1875  plane waves:    2639
 k-point 36 :   0.2857 0.2857 0.1875  plane waves:    2638
 k-point 37 :   0.0000 0.0000 0.2500  plane waves:    2607
 k-point 38 :   0.1429 0.0000 0.2500  plane waves:    2619
 k-point 39 :   0.2857 0.0000 0.2500  plane waves:    2627
 k-point 40 :   0.4286 0.0000 0.2500  plane waves:    2638
 k-point 41 :   0.1429 0.1429 0.2500  plane waves:    2630
 k-point 42 :   0.2857 0.1429 0.2500  plane waves:    2634
 k-point 43 :   0.4286 0.1429 0.2500  plane waves:    2638
 k-point 44 :  -0.4286 0.1429 0.2500  plane waves:    2634
 k-point 45 :   0.2857 0.2857 0.2500  plane waves:    2634
 k-point 46 :   0.0000 0.0000 0.3125  plane waves:    2607
 k-point 47 :   0.1429 0.0000 0.3125  plane waves:    2626
 k-point 48 :   0.2857 0.0000 0.3125  plane waves:    2625
 k-point 49 :   0.4286 0.0000 0.3125  plane waves:    2636
 k-point 50 :   0.1429 0.1429 0.3125  plane waves:    2628
 k-point 51 :   0.2857 0.1429 0.3125  plane waves:    2623
 k-point 52 :   0.4286 0.1429 0.3125  plane waves:    2625
 k-point 53 :  -0.4286 0.1429 0.3125  plane waves:    2623
 k-point 54 :   0.2857 0.2857 0.3125  plane waves:    2621
 k-point 55 :   0.0000 0.0000 0.3750  plane waves:    2619
 k-point 56 :   0.1429 0.0000 0.3750  plane waves:    2614
 k-point 57 :   0.2857 0.0000 0.3750  plane waves:    2622
 k-point 58 :   0.4286 0.0000 0.3750  plane waves:    2624
 k-point 59 :   0.1429 0.1429 0.3750  plane waves:    2609
 k-point 60 :   0.2857 0.1429 0.3750  plane waves:    2624
 k-point 61 :   0.4286 0.1429 0.3750  plane waves:    2610
 k-point 62 :  -0.4286 0.1429 0.3750  plane waves:    2624
 k-point 63 :   0.2857 0.2857 0.3750  plane waves:    2608
 k-point 64 :   0.0000 0.0000 0.4375  plane waves:    2601
 k-point 65 :   0.1429 0.0000 0.4375  plane waves:    2603
 k-point 66 :   0.2857 0.0000 0.4375  plane waves:    2604
 k-point 67 :   0.4286 0.0000 0.4375  plane waves:    2620
 k-point 68 :   0.1429 0.1429 0.4375  plane waves:    2604
 k-point 69 :   0.2857 0.1429 0.4375  plane waves:    2609
 k-point 70 :   0.4286 0.1429 0.4375  plane waves:    2614
 k-point 71 :  -0.4286 0.1429 0.4375  plane waves:    2609
 k-point 72 :   0.2857 0.2857 0.4375  plane waves:    2601
 k-point 73 :   0.0000 0.0000 0.5000  plane waves:    2552
 k-point 74 :   0.1429 0.0000 0.5000  plane waves:    2586
 k-point 75 :   0.2857 0.0000 0.5000  plane waves:    2598
 k-point 76 :   0.4286 0.0000 0.5000  plane waves:    2600
 k-point 77 :   0.1429 0.1429 0.5000  plane waves:    2612
 k-point 78 :   0.2857 0.1429 0.5000  plane waves:    2598
 k-point 79 :   0.4286 0.1429 0.5000  plane waves:    2612
 k-point 80 :  -0.4286 0.1429 0.5000  plane waves:    2598
 k-point 81 :   0.2857 0.2857 0.5000  plane waves:    2610

 maximum and minimum number of plane-waves per node :       690      634

 maximum number of plane-waves:      2670
 maximum index in each direction: 
   IXMAX=   13   IYMAX=   12   IZMAX=    4
   IXMIN=  -13   IYMIN=  -13   IZMIN=   -4


 real space projection operators:
  total allocation   :       4639.50 KBytes
  max/ min on nodes  :       1200.00       1119.62


 parallel 3D FFT for wavefunctions:
    minimum data exchange during FFTs selected (reduces bandwidth)
 parallel 3D FFT for charge:
    minimum data exchange during FFTs selected (reduces bandwidth)


 total amount of memory used by VASP MPI-rank0    46152. kBytes
=======================================================================

   base      :      30000. kBytes
   nonlr-proj:       3253. kBytes
   fftplans  :       1364. kBytes
   grid      :       2140. kBytes
   one-center:         12. kBytes
   wavefun   :       9383. kBytes
 
     INWAV:  cpu time    0.0001: real time    0.0063
 Broyden mixing: mesh for mixing (old mesh)
   NGX = 25   NGY = 25   NGZ =  9
  (NGX  =108   NGY  =108   NGZ  = 36)
  gives a total of   5625 points

 initial charge density was supplied:
 charge density of overlapping atoms calculated
 number of electron      62.0000000 magnetization 
 keeping initial charge density in first step


--------------------------------------------------------------------------------------------------------


 Maximum index for non-local projection operator         1924
 Maximum index for augmentation-charges          944 (set IRDMAX)


--------------------------------------------------------------------------------------------------------


 First call to EWALD:  gamma=   0.338
 Maximum number of real-space cells 2x 2x 5
 Maximum number of reciprocal cells 4x 4x 2

    FEWALD:  cpu time    0.0017: real time    0.0017


--------------------------------------- Iteration      1(   1)  ---------------------------------------


    POTLOK:  cpu time    0.0187: real time    0.0204
    SETDIJ:  cpu time    0.0105: real time    0.0105
     EDDAV:  cpu time    2.4087: real time    2.4100
       DOS:  cpu time    0.0028: real time    0.0028
    --------------------------------------------
      LOOP:  cpu time    2.4407: real time    2.4437

 eigenvalue-minimisations  :  6552
 total energy-change (2. order) : 0.2291772E+03  (-0.2596813E+04)
 number of electron      62.0000000 magnetization 
 augmentation part       62.0000000 magnetization 

 Free energy of the ion-electron system (eV)
  ---------------------------------------------------
  alpha Z        PSCENC =        84.24197845
  Ewald energy   TEWEN  =     -2291.94412999
  -Hartree energ DENC   =      -501.27651626
  -exchange      EXHF   =         0.00000000
  -V(xc)+E(xc)   XCENC  =        55.46478707
  PAW double counting   =      1934.58678659    -1800.98643654
  entropy T*S    EENTRO =        -0.00022963
  eigenvalues    EBANDS =       337.71492959
  atomic energy  EATOM  =      2411.37598431
  Solvation  Ediel_sol  =         0.00000000
  ---------------------------------------------------
  free energy    TOTEN  =       229.17715358 eV

  energy without entropy =      229.17738321  energy(sigma->0) =      229.17721099


--------------------------------------------------------------------------------------------------------




--------------------------------------- Iteration      1(   2)  ---------------------------------------


     EDDAV:  cpu time    2.8359: real time    2.8374
       DOS:  cpu time    0.0029: real time    0.0029
    --------------------------------------------
      LOOP:  cpu time    2.8388: real time    2.8403

 eigenvalue-minimisations  :  8112
 total energy-change (2. order) :-0.3127873E+03  (-0.2998712E+03)
 number of electron      62.0000000 magnetization 
 augmentation part       62.0000000 magnetization 

 Free energy of the ion-electron system (eV)
  ---------------------------------------------------
  alpha Z        PSCENC =        84.24197845
  Ewald energy   TEWEN  =     -2291.94412999
  -Hartree energ DENC   =      -501.27651626
  -exchange      EXHF   =         0.00000000
  -V(xc)+E(xc)   XCENC  =        55.46478707
  PAW double counting   =      1934.58678659    -1800.98643654
  entropy T*S    EENTRO =         0.00058121
  eigenvalues    EBANDS =        24.92686576
  atomic energy  EATOM  =      2411.37598431
  Solvation  Ediel_sol  =         0.00000000
  ---------------------------------------------------
  free energy    TOTEN  =       -83.61009940 eV

  energy without entropy =      -83.61068061  energy(sigma->0) =      -83.61024470


--------------------------------------------------------------------------------------------------------




--------------------------------------- Iteration      1(   3)  ---------------------------------------


     EDDAV:  cpu time    2.8278: real time    2.8303
       DOS:  cpu time    0.0031: real time    0.0031
    --------------------------------------------
      LOOP:  cpu time    2.8310: real time    2.8334

 eigenvalue-minimisations  :  8128
 total energy-change (2. order) :-0.2063688E+02  (-0.2027066E+02)
 number of electron      62.0000000 magnetization 
 augmentation part       62.0000000 magnetization 

 Free energy of the ion-electron system (eV)
  ---------------------------------------------------
  alpha Z        PSCENC =        84.24197845
  Ewald energy   TEWEN  =     -2291.94412999
  -Hartree energ DENC   =      -501.27651626
  -exchange      EXHF   =         0.00000000
  -V(xc)+E(xc)   XCENC  =        55.46478707
  PAW double counting   =      1934.58678659    -1800.98643654
  entropy T*S    EENTRO =        -0.00050802
  eigenvalues    EBANDS =         4.29107041
  atomic energy  EATOM  =      2411.37598431
  Solvation  Ediel_sol  =         0.00000000
  ---------------------------------------------------
  free energy    TOTEN  =      -104.24698399 eV

  energy without entropy =     -104.24647596  energy(sigma->0) =     -104.24685698


--------------------------------------------------------------------------------------------------------




--------------------------------------- Iteration      1(   4)  ---------------------------------------


     EDDAV:  cpu time    2.8413: real time    2.8426
       DOS:  cpu time    0.0034: real time    0.0034
    --------------------------------------------
      LOOP:  cpu time    2.8447: real time    2.8460

 eigenvalue-minimisations  :  8216
 total energy-change (2. order) :-0.4630681E+00  (-0.4610085E+00)
 number of electron      62.0000000 magnetization 
 augmentation part       62.0000000 magnetization 

 Free energy of the ion-electron system (eV)
  ---------------------------------------------------
  alpha Z        PSCENC =        84.24197845
  Ewald energy   TEWEN  =     -2291.94412999
  -Hartree energ DENC   =      -501.27651626
  -exchange      EXHF   =         0.00000000
  -V(xc)+E(xc)   XCENC  =        55.46478707
  PAW double counting   =      1934.58678659    -1800.98643654
  entropy T*S    EENTRO =        -0.00029930
  eigenvalues    EBANDS =         3.82779360
  atomic energy  EATOM  =      2411.37598431
  Solvation  Ediel_sol  =         0.00000000
  ---------------------------------------------------
  free energy    TOTEN  =      -104.71005207 eV

  energy without entropy =     -104.70975278  energy(sigma->0) =     -104.70997725


--------------------------------------------------------------------------------------------------------




--------------------------------------- Iteration      1(   5)  ---------------------------------------


     EDDAV:  cpu time    2.8376: real time    2.8397
       DOS:  cpu time    0.0031: real time    0.0031
    CHARGE:  cpu time    0.1557: real time    0.1558
    MIXING:  cpu time    0.0025: real time    0.0025
    --------------------------------------------
      LOOP:  cpu time    2.9989: real time    3.0010

 eigenvalue-minimisations  :  8200
 total energy-change (2. order) :-0.1033781E-01  (-0.1033199E-01)
 number of electron      62.0000020 magnetization 
 augmentation part        0.4568425 magnetization 

 Broyden mixing:
  rms(total) = 0.25131E+01    rms(broyden)= 0.25125E+01
  rms(prec ) = 0.35552E+01
  weight for this iteration     100.00

 Free energy of the ion-electron system (eV)
  ---------------------------------------------------
  alpha Z        PSCENC =        84.24197845
  Ewald energy   TEWEN  =     -2291.94412999
  -Hartree energ DENC   =      -501.27651626
  -exchange      EXHF   =         0.00000000
  -V(xc)+E(xc)   XCENC  =        55.46478707
  PAW double counting   =      1934.58678659    -1800.98643654
  entropy T*S    EENTRO =        -0.00024586
  eigenvalues    EBANDS =         3.81740235
  atomic energy  EATOM  =      2411.37598431
  Solvation  Ediel_sol  =         0.00000000
  ---------------------------------------------------
  free energy    TOTEN  =      -104.72038988 eV

  energy without entropy =     -104.72014402  energy(sigma->0) =     -104.72032842


--------------------------------------------------------------------------------------------------------




--------------------------------------- Iteration      1(   6)  ---------------------------------------


    POTLOK:  cpu time    0.0199: real time    0.0200
    SETDIJ:  cpu time    0.0021: real time    0.0026
    EDDIAG:  cpu time    0.4042: real time    0.4042
  RMM-DIIS:  cpu time    1.5959: real time    1.5960
    ORTHCH:  cpu time    0.0387: real time    0.0387
       DOS:  cpu time    0.0028: real time    0.0028
    CHARGE:  cpu time    0.1518: real time    0.1518
    MIXING:  cpu time    0.0006: real time    0.0006
    --------------------------------------------
      LOOP:  cpu time    2.2159: real time    2.2166

 eigenvalue-minimisations  :  6480
 total energy-change (2. order) : 0.9489058E+01  (-0.4421570E+01)
 number of electron      62.0000018 magnetization 
 augmentation part       -0.2639139 magnetization 

 Broyden mixing:
  rms(total) = 0.11605E+01    rms(broyden)= 0.11599E+01
  rms(prec ) = 0.13469E+01
  weight for this iteration     100.00

 eigenvalues of (default mixing * dielectric matrix)
  average eigenvalue GAMMA=   1.1570
  1.1570

 Free energy of the ion-electron system (eV)
  ---------------------------------------------------
  alpha Z        PSCENC =        84.24197845
  Ewald energy   TEWEN  =     -2291.94412999
  -Hartree energ DENC   =      -580.69807688
  -exchange      EXHF   =         0.00000000
  -V(xc)+E(xc)   XCENC  =        61.20218754
  PAW double counting   =      4246.04783457    -4113.46859845
  entropy T*S    EENTRO =         0.00004604
  eigenvalues    EBANDS =        88.01144272
  atomic energy  EATOM  =      2411.37598431
  Solvation  Ediel_sol  =         0.00000000
  ---------------------------------------------------
  free energy    TOTEN  =       -95.23133169 eV

  energy without entropy =      -95.23137773  energy(sigma->0) =      -95.23134320


--------------------------------------------------------------------------------------------------------




--------------------------------------- Iteration      1(   7)  ---------------------------------------


    POTLOK:  cpu time    0.0172: real time    0.0188
    SETDIJ:  cpu time    0.0022: real time    0.0026
    EDDIAG:  cpu time    0.4039: real time    0.4039
  RMM-DIIS:  cpu time    1.6146: real time    1.6146
    ORTHCH:  cpu time    0.0378: real time    0.0378
       DOS:  cpu time    0.0028: real time    0.0028
    CHARGE:  cpu time    0.1513: real time    0.1513
    MIXING:  cpu time    0.0007: real time    0.0007
    --------------------------------------------
      LOOP:  cpu time    2.2306: real time    2.2325

 eigenvalue-minimisations  :  6525
 total energy-change (2. order) : 0.4345553E+00  (-0.1520135E+00)
 number of electron      62.0000017 magnetization 
 augmentation part       -0.2912516 magnetization 

 Broyden mixing:
  rms(total) = 0.63635E+00    rms(broyden)= 0.63631E+00
  rms(prec ) = 0.73713E+00
  weight for this iteration     100.00

 eigenvalues of (default mixing * dielectric matrix)
  average eigenvalue GAMMA=   1.6237
  1.0587  2.1886

 Free energy of the ion-electron system (eV)
  ---------------------------------------------------
  alpha Z        PSCENC =        84.24197845
  Ewald energy   TEWEN  =     -2291.94412999
  -Hartree energ DENC   =      -587.21411428
  -exchange      EXHF   =         0.00000000
  -V(xc)+E(xc)   XCENC  =        61.90017887
  PAW double counting   =      6281.60579120    -6149.43504194
  entropy T*S    EENTRO =        -0.00078729
  eigenvalues    EBANDS =        94.67336431
  atomic energy  EATOM  =      2411.37598431
  Solvation  Ediel_sol  =         0.00000000
  ---------------------------------------------------
  free energy    TOTEN  =       -94.79677636 eV

  energy without entropy =      -94.79598907  energy(sigma->0) =      -94.79657954


--------------------------------------------------------------------------------------------------------




--------------------------------------- Iteration      1(   8)  ---------------------------------------


    POTLOK:  cpu time    0.0168: real time    0.0186
    SETDIJ:  cpu time    0.0023: real time    0.0027
    EDDIAG:  cpu time    0.4040: real time    0.4044
  RMM-DIIS:  cpu time    1.6059: real time    1.6058
    ORTHCH:  cpu time    0.0366: real time    0.0366
       DOS:  cpu time    0.0030: real time    0.0030
    CHARGE:  cpu time    0.1496: real time    0.1496
    MIXING:  cpu time    0.0006: real time    0.0006
    --------------------------------------------
      LOOP:  cpu time    2.2188: real time    2.2213

 eigenvalue-minimisations  :  6498
 total energy-change (2. order) : 0.1066708E+00  (-0.6613244E-01)
 number of electron      62.0000017 magnetization 
 augmentation part       -0.2578838 magnetization 

 Broyden mixing:
  rms(total) = 0.80767E-01    rms(broyden)= 0.80697E-01
  rms(prec ) = 0.14227E+00
  weight for this iteration     100.00

 eigenvalues of (default mixing * dielectric matrix)
  average eigenvalue GAMMA=   1.5583
  2.3778  1.1485  1.1485

 Free energy of the ion-electron system (eV)
  ---------------------------------------------------
  alpha Z        PSCENC =        84.24197845
  Ewald energy   TEWEN  =     -2291.94412999
  -Hartree energ DENC   =      -592.45205302
  -exchange      EXHF   =         0.00000000
  -V(xc)+E(xc)   XCENC  =        62.60317150
  PAW double counting   =      9024.03612684    -8892.31571765
  entropy T*S    EENTRO =        -0.00156416
  eigenvalues    EBANDS =        99.76609813
  atomic energy  EATOM  =      2411.37598431
  Solvation  Ediel_sol  =         0.00000000
  ---------------------------------------------------
  free energy    TOTEN  =       -94.69010558 eV

  energy without entropy =      -94.68854142  energy(sigma->0) =      -94.68971454


--------------------------------------------------------------------------------------------------------




--------------------------------------- Iteration      1(   9)  ---------------------------------------


    POTLOK:  cpu time    0.0166: real time    0.0184
    SETDIJ:  cpu time    0.0023: real time    0.0023
    EDDIAG:  cpu time    0.4027: real time    0.4028
  RMM-DIIS:  cpu time    1.5990: real time    1.5990
    ORTHCH:  cpu time    0.0369: real time    0.0369
       DOS:  cpu time    0.0030: real time    0.0030
    CHARGE:  cpu time    0.1491: real time    0.1491
    MIXING:  cpu time    0.0006: real time    0.0006
    --------------------------------------------
      LOOP:  cpu time    2.2103: real time    2.2120

 eigenvalue-minimisations  :  6509
 total energy-change (2. order) : 0.3616710E-02  (-0.1335907E-01)
 number of electron      62.0000017 magnetization 
 augmentation part       -0.2977253 magnetization 

 Broyden mixing:
  rms(total) = 0.54852E-01    rms(broyden)= 0.54817E-01
  rms(prec ) = 0.76156E-01
  weight for this iteration     100.00

 eigenvalues of (default mixing * dielectric matrix)
  average eigenvalue GAMMA=   1.6635
  1.0059  1.0059  2.3212  2.3212

 Free energy of the ion-electron system (eV)
  ---------------------------------------------------
  alpha Z        PSCENC =        84.24197845
  Ewald energy   TEWEN  =     -2291.94412999
  -Hartree energ DENC   =      -597.76980789
  -exchange      EXHF   =         0.00000000
  -V(xc)+E(xc)   XCENC  =        63.00725269
  PAW double counting   =      9297.09766310    -9165.44417876
  entropy T*S    EENTRO =        -0.00132967
  eigenvalues    EBANDS =       104.75007890
  atomic energy  EATOM  =      2411.37598431
  Solvation  Ediel_sol  =         0.00000000
  ---------------------------------------------------
  free energy    TOTEN  =       -94.68648887 eV

  energy without entropy =      -94.68515919  energy(sigma->0) =      -94.68615645


--------------------------------------------------------------------------------------------------------




--------------------------------------- Iteration      1(  10)  ---------------------------------------


    POTLOK:  cpu time    0.0165: real time    0.0183
    SETDIJ:  cpu time    0.0022: real time    0.0022
    EDDIAG:  cpu time    0.4041: real time    0.4041
  RMM-DIIS:  cpu time    1.5970: real time    1.5970
    ORTHCH:  cpu time    0.0365: real time    0.0365
       DOS:  cpu time    0.0030: real time    0.0030
    CHARGE:  cpu time    0.1492: real time    0.1492
    MIXING:  cpu time    0.0006: real time    0.0006
    --------------------------------------------
      LOOP:  cpu time    2.2091: real time    2.2108

 eigenvalue-minimisations  :  6485
 total energy-change (2. order) : 0.2373371E-02  (-0.1251336E-02)
 number of electron      62.0000017 magnetization 
 augmentation part       -0.2891985 magnetization 

 Broyden mixing:
  rms(total) = 0.15637E-01    rms(broyden)= 0.15636E-01
  rms(prec ) = 0.22974E-01
  weight for this iteration     100.00

 eigenvalues of (default mixing * dielectric matrix)
  average eigenvalue GAMMA=   1.7489
  2.6725  2.5781  1.0273  1.0273  1.4395

 Free energy of the ion-electron system (eV)
  ---------------------------------------------------
  alpha Z        PSCENC =        84.24197845
  Ewald energy   TEWEN  =     -2291.94412999
  -Hartree energ DENC   =      -596.36306507
  -exchange      EXHF   =         0.00000000
  -V(xc)+E(xc)   XCENC  =        62.90100994
  PAW double counting   =      9135.42310314    -9003.74627572
  entropy T*S    EENTRO =        -0.00148545
  eigenvalues    EBANDS =       103.42876490
  atomic energy  EATOM  =      2411.37598431
  Solvation  Ediel_sol  =         0.00000000
  ---------------------------------------------------
  free energy    TOTEN  =       -94.68411549 eV

  energy without entropy =      -94.68263005  energy(sigma->0) =      -94.68374413


--------------------------------------------------------------------------------------------------------




--------------------------------------- Iteration      1(  11)  ---------------------------------------


    POTLOK:  cpu time    0.0167: real time    0.0184
    SETDIJ:  cpu time    0.0022: real time    0.0022
    EDDIAG:  cpu time    0.4023: real time    0.4025
  RMM-DIIS:  cpu time    1.5955: real time    1.5958
    ORTHCH:  cpu time    0.0378: real time    0.0378
       DOS:  cpu time    0.0029: real time    0.0029
    CHARGE:  cpu time    0.1500: real time    0.1500
    MIXING:  cpu time    0.0006: real time    0.0006
    --------------------------------------------
      LOOP:  cpu time    2.2081: real time    2.2103

 eigenvalue-minimisations  :  6507
 total energy-change (2. order) :-0.1123795E-02  (-0.5694572E-03)
 number of electron      62.0000017 magnetization 
 augmentation part       -0.2823207 magnetization 

 Broyden mixing:
  rms(total) = 0.11676E-01    rms(broyden)= 0.11667E-01
  rms(prec ) = 0.18255E-01
  weight for this iteration     100.00

 eigenvalues of (default mixing * dielectric matrix)
  average eigenvalue GAMMA=   1.6627
  2.5756  2.5756  1.8670  0.9990  0.9990  0.9601

 Free energy of the ion-electron system (eV)
  ---------------------------------------------------
  alpha Z        PSCENC =        84.24197845
  Ewald energy   TEWEN  =     -2291.94412999
  -Hartree energ DENC   =      -596.24350411
  -exchange      EXHF   =         0.00000000
  -V(xc)+E(xc)   XCENC  =        62.89176158
  PAW double counting   =      9097.25418174    -8965.57763942
  entropy T*S    EENTRO =        -0.00153318
  eigenvalues    EBANDS =       103.31766133
  atomic energy  EATOM  =      2411.37598431
  Solvation  Ediel_sol  =         0.00000000
  ---------------------------------------------------
  free energy    TOTEN  =       -94.68523929 eV

  energy without entropy =      -94.68370611  energy(sigma->0) =      -94.68485599


--------------------------------------------------------------------------------------------------------




--------------------------------------- Iteration      1(  12)  ---------------------------------------


    POTLOK:  cpu time    0.0168: real time    0.0189
    SETDIJ:  cpu time    0.0793: real time    0.0805
    EDDIAG:  cpu time    2.1521: real time    2.1526
  RMM-DIIS:  cpu time    1.5842: real time    1.5841
    ORTHCH:  cpu time    0.0366: real time    0.0366
       DOS:  cpu time    0.0030: real time    0.0030
    CHARGE:  cpu time    0.1494: real time    0.1494
    MIXING:  cpu time    0.0007: real time    0.0007
    --------------------------------------------
      LOOP:  cpu time    4.0220: real time    4.0257

 eigenvalue-minimisations  :  6347
 total energy-change (2. order) : 0.2893493E-03  (-0.8756144E-04)
 number of electron      62.0000017 magnetization 
 augmentation part       -0.2846709 magnetization 

 Broyden mixing:
  rms(total) = 0.35772E-02    rms(broyden)= 0.35766E-02
  rms(prec ) = 0.53271E-02
  weight for this iteration     100.00

 eigenvalues of (default mixing * dielectric matrix)
  average eigenvalue GAMMA=   1.7475
  3.2180  2.4693  1.7075  1.7075  0.9949  1.0678  1.0678

 Free energy of the ion-electron system (eV)
  ---------------------------------------------------
  alpha Z        PSCENC =        84.24197845
  Ewald energy   TEWEN  =     -2291.94412999
  -Hartree energ DENC   =      -596.72258360
  -exchange      EXHF   =         0.00000000
  -V(xc)+E(xc)   XCENC  =        62.92231767
  PAW double counting   =      9096.96309264    -8965.28860305
  entropy T*S    EENTRO =        -0.00150002
  eigenvalues    EBANDS =       103.76849365
  atomic energy  EATOM  =      2411.37598431
  Solvation  Ediel_sol  =         0.00000000
  ---------------------------------------------------
  free energy    TOTEN  =       -94.68494994 eV

  energy without entropy =      -94.68344992  energy(sigma->0) =      -94.68457494


--------------------------------------------------------------------------------------------------------




--------------------------------------- Iteration      1(  13)  ---------------------------------------


    POTLOK:  cpu time    0.0166: real time    0.0183
    SETDIJ:  cpu time    0.0023: real time    0.0027
    EDDIAG:  cpu time    0.4018: real time    0.4018
  RMM-DIIS:  cpu time    1.1196: real time    1.1196
    ORTHCH:  cpu time    0.0367: real time    0.0367
       DOS:  cpu time    0.0032: real time    0.0032
    --------------------------------------------
      LOOP:  cpu time    1.5803: real time    1.5823

 eigenvalue-minimisations  :  4019
 total energy-change (2. order) :-0.2255467E-04  (-0.1781846E-04)
 number of electron      62.0000017 magnetization 
 augmentation part       -0.2846709 magnetization 

 Free energy of the ion-electron system (eV)
  ---------------------------------------------------
  alpha Z        PSCENC =        84.24197845
  Ewald energy   TEWEN  =     -2291.94412999
  -Hartree energ DENC   =      -596.83555176
  -exchange      EXHF   =         0.00000000
  -V(xc)+E(xc)   XCENC  =        62.92903273
  PAW double counting   =      9095.00671678    -8963.33142623
  entropy T*S    EENTRO =        -0.00149524
  eigenvalues    EBANDS =       103.87391847
  atomic energy  EATOM  =      2411.37598431
  Solvation  Ediel_sol  =         0.00000000
  ---------------------------------------------------
  free energy    TOTEN  =       -94.68497250 eV

  energy without entropy =      -94.68347725  energy(sigma->0) =      -94.68459868


--------------------------------------------------------------------------------------------------------




 average (electrostatic) potential at core
  the test charge radii are     0.7089  0.9892
  (the norm of the test charge is              1.0000)
       1 -59.5162       2 -59.5162       3 -59.5162       4 -59.5162       5 -59.5162
       6 -59.5162       7 -80.7461       8 -80.7461       9 -80.0119      10 -80.0119
      11 -80.0119      12 -80.0119      13 -80.0119      14 -80.0119
 
 
 
 E-fermi :  10.8505     XC(G=0): -11.3128     alpha+bet :-16.8620


 k-point     1 :       0.0000    0.0000    0.0000
  band No.  band energies     occupation 
      1      -9.9727      2.00000
      2      -8.7269      2.00000
      3      -8.7269      2.00000
      4      -8.0866      2.00000
      5      -8.0866      2.00000
      6      -7.9455      2.00000
      7      -1.5780      2.00000
      8      -1.5780      2.00000
      9      -1.3929      2.00000
     10      -0.6996      2.00000
     11       0.6615      2.00000
     12       1.1977      2.00000
     13       1.1977      2.00000
     14       3.1495      2.00000
     15       3.1495      2.00000
     16       4.1588      2.00000
     17       4.3696      2.00000
     18       4.3696      2.00000
     19       4.9523      2.00000
     20       5.1400      2.00000
     21       5.6948      2.00000
     22       5.6948      2.00000
     23       6.2083      2.00000
     24       6.2083      2.00000
     25       6.3821      2.00000
     26       7.6475      2.00000
     27       7.6524      2.00000
     28       7.6524      2.00000
     29       9.6580      2.00000
     30       9.9322      2.00000
     31       9.9322      2.00000
     32      14.0749      0.00000
     33      14.3423      0.00000
     34      14.3424      0.00000
     35      14.5900      0.00000
     36      14.5902      0.00000
     37      15.5817      0.00000
     38      15.8275      0.00000
     39      15.9694      0.00000
     40      16.0364      0.00000

 k-point     2 :       0.1429    0.0000    0.0000
  band No.  band energies     occupation 
      1      -9.9321      2.00000
      2      -8.8200      2.00000
      3      -8.7674      2.00000
      4      -8.2558      2.00000
      5      -8.0251      2.00000
      6      -7.7113      2.00000
      7      -1.8644      2.00000
      8      -1.5705      2.00000
      9      -1.3303      2.00000
     10      -0.4148      2.00000
     11       0.5264      2.00000
     12       1.0936      2.00000
     13       1.3176      2.00000
     14       3.0574      2.00000
     15       3.2051      2.00000
     16       4.1034      2.00000
     17       4.2386      2.00000
     18       4.5127      2.00000
     19       5.1600      2.00000
     20       5.2319      2.00000
     21       5.6628      2.00000
     22       5.6850      2.00000
     23       6.1609      2.00000
     24       6.2195      2.00000
     25       6.4349      2.00000
     26       7.4177      2.00000
     27       7.4621      2.00000
     28       7.7607      2.00000
     29       9.6017      2.00000
     30      10.0924      2.00000
     31      10.1440      2.00000
     32      13.8020      0.00000
     33      14.1701      0.00000
     34      14.2457      0.00000
     35      14.5423      0.00000
     36      14.6783      0.00000
     37      15.6631      0.00000
     38      15.6984      0.00000
     39      15.8020      0.00000
     40      16.0071      0.00000

 k-point     3 :       0.2857    0.0000    0.0000
  band No.  band energies     occupation 
      1      -9.8126      2.00000
      2      -9.0645      2.00000
      3      -8.8407      2.00000
      4      -8.3527      2.00000
      5      -7.9023      2.00000
      6      -7.4610      2.00000
      7      -2.2593      2.00000
      8      -1.5522      2.00000
      9      -1.1531      2.00000
     10      -0.1265      2.00000
     11       0.2786      2.00000
     12       0.8768      2.00000
     13       1.7071      2.00000
     14       2.8807      2.00000
     15       3.1711      2.00000
     16       3.9269      2.00000
     17       4.2836      2.00000
     18       4.7649      2.00000
     19       5.2247      2.00000
     20       5.5760      2.00000
     21       5.6668      2.00000
     22       5.6727      2.00000
     23       6.1068      2.00000
     24       6.2460      2.00000
     25       6.5131      2.00000
     26       6.9458      2.00000
     27       7.1116      2.00000
     28       8.0687      2.00000
     29       9.4267      2.00000
     30      10.3811      2.00000
     31      10.6174      1.99347
     32      12.9393      0.00000
     33      13.9160      0.00000
     34      14.2415      0.00000
     35      14.5440      0.00000
     36      14.8231      0.00000
     37      15.3454      0.00000
     38      15.6258      0.00000
     39      15.7497      0.00000
     40      15.8895      0.00000

 k-point     4 :       0.4286    0.0000    0.0000
  band No.  band energies     occupation 
      1      -9.6267      2.00000
      2      -9.3421      2.00000
      3      -8.8885      2.00000
      4      -8.3819      2.00000
      5      -7.8127      2.00000
      6      -7.3178      2.00000
      7      -2.4918      2.00000
      8      -1.5366      2.00000
      9      -0.9221      2.00000
     10      -0.2825      2.00000
     11       0.2783      2.00000
     12       0.7142      2.00000
     13       2.3016      2.00000
     14       2.7577      2.00000
     15       2.9121      2.00000
     16       3.5884      2.00000
     17       4.6133      2.00000
     18       4.9491      2.00000
     19       5.3179      2.00000
     20       5.4611      2.00000
     21       5.6512      2.00000
     22       5.8982      2.00000
     23       6.0813      2.00000
     24       6.2692      2.00000
     25       6.5461      2.00000
     26       6.5598      2.00000
     27       6.9301      2.00000
     28       8.4462      2.00000
     29       9.1660      2.00000
     30      10.5525      1.99935
     31      11.2212      0.00001
     32      12.0371      0.00000
     33      13.7481      0.00000
     34      14.2840      0.00000
     35      14.6235      0.00000
     36      14.8478      0.00000
     37      15.2060      0.00000
     38      15.4360      0.00000
     39      15.5923      0.00000
     40      15.8737      0.00000

 k-point     5 :       0.1429    0.1429    0.0000
  band No.  band energies     occupation 
      1      -9.8519      2.00000
      2      -8.9279      2.00000
      3      -8.9058      2.00000
      4      -8.2949      2.00000
      5      -7.9608      2.00000
      6      -7.5142      2.00000
      7      -2.1776      2.00000
      8      -1.5275      2.00000
      9      -1.2070      2.00000
     10      -0.2183      2.00000
     11       0.3162      2.00000
     12       1.0511      2.00000
     13       1.5081      2.00000
     14       2.8536      2.00000
     15       3.3434      2.00000
     16       3.9789      2.00000
     17       4.1369      2.00000
     18       4.7453      2.00000
     19       5.2036      2.00000
     20       5.5610      2.00000
     21       5.6152      2.00000
     22       5.6581      2.00000
     23       6.1276      2.00000
     24       6.2330      2.00000
     25       6.4958      2.00000
     26       7.0753      2.00000
     27       7.2088      2.00000
     28       7.9681      2.00000
     29       9.4894      2.00000
     30      10.3336      2.00000
     31      10.4495      2.00000
     32      13.2690      0.00000
     33      13.7528      0.00000
     34      14.3251      0.00000
     35      14.5024      0.00000
     36      14.8380      0.00000
     37      15.5426      0.00000
     38      15.6505      0.00000
     39      15.7615      0.00000
     40      15.9855      0.00000

 k-point     6 :       0.2857    0.1429    0.0000
  band No.  band energies     occupation 
      1      -9.6971      2.00000
      2      -9.1856      2.00000
      3      -8.9962      2.00000
      4      -8.2776      2.00000
      5      -7.8909      2.00000
      6      -7.3370      2.00000
      7      -2.4688      2.00000
      8      -1.4410      2.00000
      9      -0.9841      2.00000
     10      -0.3007      2.00000
     11       0.0332      2.00000
     12       1.1503      2.00000
     13       1.9227      2.00000
     14       2.6125      2.00000
     15       3.3463      2.00000
     16       3.6905      2.00000
     17       4.2617      2.00000
     18       4.9909      2.00000
     19       5.2832      2.00000
     20       5.5257      2.00000
     21       5.6213      2.00000
     22       5.8448      2.00000
     23       6.1107      2.00000
     24       6.2450      2.00000
     25       6.5518      2.00000
     26       6.8159      2.00000
     27       6.8506      2.00000
     28       8.3185      2.00000
     29       9.2672      2.00000
     30      10.6214      1.99286
     31      10.8771      0.46646
     32      12.4424      0.00000
     33      13.4034      0.00000
     34      14.3371      0.00000
     35      14.5685      0.00000
     36      15.0742      0.00000
     37      15.1912      0.00000
     38      15.5622      0.00000
     39      15.8136      0.00000
     40      15.8941      0.00000

 k-point     7 :       0.4286    0.1429    0.0000
  band No.  band energies     occupation 
      1      -9.5228      2.00000
      2      -9.4076      2.00000
      3      -9.0245      2.00000
      4      -8.2686      2.00000
      5      -7.8581      2.00000
      6      -7.2707      2.00000
      7      -2.5789      2.00000
      8      -1.3889      2.00000
      9      -0.8120      2.00000
     10      -0.4440      2.00000
     11      -0.1174      2.00000
     12       1.1959      2.00000
     13       2.3809      2.00000
     14       2.4471      2.00000
     15       3.0929      2.00000
     16       3.5703      2.00000
     17       4.4357      2.00000
     18       5.0835      2.00000
     19       5.3609      2.00000
     20       5.4394      2.00000
     21       5.6078      2.00000
     22       5.9111      2.00000
     23       6.1081      2.00000
     24       6.2512      2.00000
     25       6.5622      2.00000
     26       6.5734      2.00000
     27       6.8719      2.00000
     28       8.5909      2.00000
     29       9.0598      2.00000
     30      10.6841      2.00294
     31      11.4211      0.00000
     32      11.7344      0.00000
     33      13.3307      0.00000
     34      14.3124      0.00000
     35      14.7470      0.00000
     36      14.8372      0.00000
     37      15.3119      0.00000
     38      15.4590      0.00000
     39      15.7921      0.00000
     40      15.8558      0.00000

 k-point     8 :      -0.4286    0.1429    0.0000
  band No.  band energies     occupation 
      1      -9.6971      2.00000
      2      -9.1856      2.00000
      3      -8.9962      2.00000
      4      -8.2775      2.00000
      5      -7.8910      2.00000
      6      -7.3371      2.00000
      7      -2.4689      2.00000
      8      -1.4388      2.00000
[...]
     39      14.3261      0.00000
     40      14.3280      0.00000

 k-point    75 :       0.2857    0.0000    0.5000
  band No.  band energies     occupation 
      1      -7.2848      2.00000
      2      -7.2848      2.00000
      3      -6.7771      2.00000
      4      -6.7771      2.00000
      5      -6.7494      2.00000
      6      -6.7494      2.00000
      7      -0.9706      2.00000
      8      -0.9706      2.00000
      9      -0.3223      2.00000
     10      -0.3223      2.00000
     11       0.2250      2.00000
     12       0.2250      2.00000
     13       1.6742      2.00000
     14       1.6742      2.00000
     15       2.2078      2.00000
     16       2.2078      2.00000
     17       2.4632      2.00000
     18       2.4632      2.00000
     19       3.1654      2.00000
     20       3.1654      2.00000
     21       4.9089      2.00000
     22       4.9089      2.00000
     23       5.1137      2.00000
     24       5.1137      2.00000
     25       6.3030      2.00000
     26       6.3030      2.00000
     27       7.0443      2.00000
     28       7.0443      2.00000
     29       7.4493      2.00000
     30       7.4493      2.00000
     31       9.3952      2.00000
     32       9.3952      2.00000
     33      11.5984      0.00000
     34      11.5984      0.00000
     35      12.5693      0.00000
     36      12.5693      0.00000
     37      13.2765      0.00000
     38      13.2765      0.00000
     39      14.2452      0.00000
     40      14.2452      0.00000

 k-point    76 :       0.4286    0.0000    0.5000
  band No.  band energies     occupation 
      1      -7.2690      2.00000
      2      -7.2690      2.00000
      3      -6.7958      2.00000
      4      -6.7958      2.00000
      5      -6.7513      2.00000
      6      -6.7513      2.00000
      7      -1.0778      2.00000
      8      -1.0778      2.00000
      9      -0.1699      2.00000
     10      -0.1699      2.00000
     11       0.4068      2.00000
     12       0.4068      2.00000
     13       1.4631      2.00000
     14       1.4631      2.00000
     15       2.1965      2.00000
     16       2.1965      2.00000
     17       2.3287      2.00000
     18       2.3287      2.00000
     19       3.2694      2.00000
     20       3.2694      2.00000
     21       4.8027      2.00000
     22       4.8027      2.00000
     23       5.1287      2.00000
     24       5.1287      2.00000
     25       6.3544      2.00000
     26       6.3544      2.00000
     27       6.9255      2.00000
     28       6.9255      2.00000
     29       7.6430      2.00000
     30       7.6430      2.00000
     31       9.6082      2.00000
     32       9.6082      2.00000
     33      11.5575      0.00000
     34      11.5575      0.00000
     35      12.2626      0.00000
     36      12.2626      0.00000
     37      13.3999      0.00000
     38      13.3999      0.00000
     39      14.2249      0.00000
     40      14.2250      0.00000

 k-point    77 :       0.1429    0.1429    0.5000
  band No.  band energies     occupation 
      1      -7.2900      2.00000
      2      -7.2900      2.00000
      3      -6.7705      2.00000
      4      -6.7705      2.00000
      5      -6.7493      2.00000
      6      -6.7493      2.00000
      7      -0.9259      2.00000
      8      -0.9259      2.00000
      9      -0.3619      2.00000
     10      -0.3619      2.00000
     11       0.1417      2.00000
     12       0.1417      2.00000
     13       1.7625      2.00000
     14       1.7625      2.00000
     15       2.1982      2.00000
     16       2.1982      2.00000
     17       2.5282      2.00000
     18       2.5282      2.00000
     19       3.1063      2.00000
     20       3.1063      2.00000
     21       4.9494      2.00000
     22       4.9494      2.00000
     23       5.1006      2.00000
     24       5.1006      2.00000
     25       6.2991      2.00000
     26       6.2991      2.00000
     27       7.0501      2.00000
     28       7.0501      2.00000
     29       7.4208      2.00000
     30       7.4208      2.00000
     31       9.3151      2.00000
     32       9.3151      2.00000
     33      11.6055      0.00000
     34      11.6055      0.00000
     35      12.6566      0.00000
     36      12.6566      0.00000
     37      13.2386      0.00000
     38      13.2386      0.00000
     39      14.2651      0.00000
     40      14.2652      0.00000

 k-point    78 :       0.2857    0.1429    0.5000
  band No.  band energies     occupation 
      1      -7.2726      2.00000
      2      -7.2726      2.00000
      3      -6.7903      2.00000
      4      -6.7903      2.00000
      5      -6.7521      2.00000
      6      -6.7521      2.00000
      7      -1.0579      2.00000
      8      -1.0579      2.00000
      9      -0.1914      2.00000
     10      -0.1914      2.00000
     11       0.3492      2.00000
     12       0.3492      2.00000
     13       1.4973      2.00000
     14       1.4973      2.00000
     15       2.2457      2.00000
     16       2.2457      2.00000
     17       2.3572      2.00000
     18       2.3572      2.00000
     19       3.2154      2.00000
     20       3.2154      2.00000
     21       4.8476      2.00000
     22       4.8476      2.00000
     23       5.1076      2.00000
     24       5.1076      2.00000
     25       6.3348      2.00000
     26       6.3348      2.00000
     27       6.9121      2.00000
     28       6.9121      2.00000
     29       7.6892      2.00000
     30       7.6892      2.00000
     31       9.5036      2.00000
     32       9.5036      2.00000
     33      11.5710      0.00000
     34      11.5710      0.00000
     35      12.3097      0.00000
     36      12.3097      0.00000
     37      13.4447      0.00000
     38      13.4447      0.00000
     39      14.2165      0.00000
     40      14.2165      0.00000

 k-point    79 :       0.4286    0.1429    0.5000
  band No.  band energies     occupation 
      1      -7.2645      2.00000
      2      -7.2645      2.00000
      3      -6.7996      2.00000
      4      -6.7996      2.00000
      5      -6.7535      2.00000
      6      -6.7535      2.00000
      7      -1.1053      2.00000
      8      -1.1053      2.00000
      9      -0.0841      2.00000
     10      -0.0841      2.00000
     11       0.3875      2.00000
     12       0.3875      2.00000
     13       1.4272      2.00000
     14       1.4272      2.00000
     15       2.2111      2.00000
     16       2.2111      2.00000
     17       2.3147      2.00000
     18       2.3147      2.00000
     19       3.2481      2.00000
     20       3.2481      2.00000
     21       4.7919      2.00000
     22       4.7919      2.00000
     23       5.1163      2.00000
     24       5.1163      2.00000
     25       6.3621      2.00000
     26       6.3621      2.00000
     27       6.8533      2.00000
     28       6.8533      2.00000
     29       7.8148      2.00000
     30       7.8148      2.00000
     31       9.5821      2.00000
     32       9.5821      2.00000
     33      11.5482      0.00000
     34      11.5482      0.00000
     35      12.1450      0.00000
     36      12.1450      0.00000
     37      13.5198      0.00000
     38      13.5198      0.00000
     39      14.1994      0.00000
     40      14.1994      0.00000

 k-point    80 :      -0.4286    0.1429    0.5000
  band No.  band energies     occupation 
      1      -7.2727      2.00000
      2      -7.2727      2.00000
      3      -6.7903      2.00000
      4      -6.7903      2.00000
      5      -6.7521      2.00000
      6      -6.7521      2.00000
      7      -1.0580      2.00000
      8      -1.0580      2.00000
      9      -0.1912      2.00000
     10      -0.1912      2.00000
     11       0.3490      2.00000
     12       0.3490      2.00000
     13       1.4984      2.00000
     14       1.4984      2.00000
     15       2.2342      2.00000
     16       2.2342      2.00000
     17       2.3686      2.00000
     18       2.3686      2.00000
     19       3.2144      2.00000
     20       3.2144      2.00000
     21       4.8414      2.00000
     22       4.8414      2.00000
     23       5.1182      2.00000
     24       5.1182      2.00000
     25       6.3172      2.00000
     26       6.3172      2.00000
     27       6.9327      2.00000
     28       6.9327      2.00000
     29       7.6817      2.00000
     30       7.6817      2.00000
     31       9.5022      2.00000
     32       9.5022      2.00000
     33      11.5734      0.00000
     34      11.5734      0.00000
     35      12.3185      0.00000
     36      12.3185      0.00000
     37      13.4203      0.00000
     38      13.4203      0.00000
     39      14.2291      0.00000
     40      14.2291      0.00000

 k-point    81 :       0.2857    0.2857    0.5000
  band No.  band energies     occupation 
      1      -7.2626      2.00000
      2      -7.2626      2.00000
      3      -6.8003      2.00000
      4      -6.8003      2.00000
      5      -6.7554      2.00000
      6      -6.7554      2.00000
      7      -1.1181      2.00000
      8      -1.1181      2.00000
      9      -0.0080      2.00000
     10      -0.0080      2.00000
     11       0.3259      2.00000
     12       0.3259      2.00000
     13       1.4194      2.00000
     14       1.4194      2.00000
     15       2.2673      2.00000
     16       2.2673      2.00000
     17       2.2901      2.00000
     18       2.2901      2.00000
     19       3.2101      2.00000
     20       3.2101      2.00000
     21       4.8013      2.00000
     22       4.8013      2.00000
     23       5.0990      2.00000
     24       5.0990      2.00000
     25       6.3529      2.00000
     26       6.3529      2.00000
     27       6.8181      2.00000
     28       6.8181      2.00000
     29       7.9600      2.00000
     30       7.9600      2.00000
     31       9.5043      2.00000
     32       9.5043      2.00000
     33      11.5520      0.00000
     34      11.5520      0.00000
     35      12.0797      0.00000
     36      12.0797      0.00000
     37      13.6558      0.00000
     38      13.6558      0.00000
     39      14.1226      0.00000
     40      14.1226      0.00000


--------------------------------------------------------------------------------------------------------


 soft charge-density along one line, spin component           1
         0         1         2         3         4         5         6         7         8         9
 total charge-density along one line
 
 pseudopotential strength for first ion, spin component:           1
 12.220  14.642   0.001  -0.000  -0.001   0.005  -0.000  -0.002
 14.642  17.544   0.002  -0.000  -0.001   0.007  -0.000  -0.002
  0.001   0.002  -5.624   0.000   0.001  -7.433   0.000   0.002
 -0.000  -0.000   0.000  -5.633   0.000   0.000  -7.447   0.000
 -0.001  -0.001   0.001   0.000  -5.649   0.002   0.000  -7.473
  0.005   0.007  -7.433   0.000   0.002  -9.093   0.000   0.003
 -0.000  -0.000   0.000  -7.447   0.000   0.000  -9.115   0.000
 -0.002  -0.002   0.002   0.000  -7.473   0.003   0.000  -9.156
 total augmentation occupancy for first ion, spin component:           1
  7.655  -3.624  -0.308  -0.000   0.096   0.133   0.000  -0.039
 -3.624   1.908   0.293  -0.000  -0.077  -0.111   0.000   0.029
 -0.308   0.293   2.013  -0.000  -0.042  -0.296   0.000   0.012
  0.000  -0.000  -0.000   2.305   0.000   0.000  -0.382  -0.000
  0.096  -0.077  -0.042   0.000   2.404   0.012  -0.000  -0.444
  0.133  -0.111  -0.296   0.000   0.012   0.059   0.000  -0.004
  0.000   0.000   0.000  -0.382   0.000  -0.000   0.075   0.000
 -0.039   0.029   0.012   0.000  -0.444  -0.004   0.000   0.098


------------------------ aborting loop because EDIFF is reached ----------------------------------------


    CHARGE:  cpu time    0.1511: real time    0.1513
    FORLOC:  cpu time    0.0027: real time    0.0027
    FORNL :  cpu time    0.9585: real time    0.9593
    STRESS:  cpu time    2.8905: real time    2.8931
    FORCOR:  cpu time    0.0188: real time    0.0188
    FORHAR:  cpu time    0.0059: real time    0.0059
    MIXING:  cpu time    0.0005: real time    0.0005
    OFIELD:  cpu time    0.0000: real time    0.0000

  FORCE on cell =-STRESS in cart. coord.  units (eV):
  Direction    XX          YY          ZZ          XY          YZ          ZX
  --------------------------------------------------------------------------------------
  Alpha Z    84.24198    84.24198    84.24198
  Ewald    -873.13006  -873.13006  -554.15636    -0.00000     0.00000    -0.00000
  Hartree   126.82019   126.82019   335.57539    -0.00000     0.00000    -0.00000
  E(xc)    -241.11448  -241.11448  -241.12271     0.00000     0.00000     0.00000
  Local    -123.03900  -123.03877  -652.81884     0.00000     0.00000     0.00000
  n-local   208.40702   208.44724   211.13466    -0.50939     0.16445    -0.53113
  augment   -36.82317   -36.82340   -36.55663     0.00180    -0.00000     0.00000
  Kinetic   866.22151   869.23768   865.14990    -0.61020     0.10034     0.49559
  Fock        0.00000     0.00000     0.00000     0.00000     0.00000     0.00000
  -------------------------------------------------------------------------------------
  Total      13.11217    13.11217    11.44738     0.00000    -0.00000     0.00000
  in kB     145.17478   145.17478   126.74266     0.00000    -0.00000     0.00000
  external pressure =      139.03 kB  Pullay stress =        0.00 kB


 VOLUME and BASIS-vectors are now :
 -----------------------------------------------------------------------------
  energy-cutoff  :      400.00
  volume of cell :      144.71
      direct lattice vectors                 reciprocal lattice vectors
     3.901407277 -6.757435614  0.000000000     0.128158884 -0.073992566  0.000000000
     3.901407267  6.757435619  0.000000000     0.128158883  0.073992566  0.000000000
     0.000000000  0.000000000  2.744484595     0.000000000  0.000000000  0.364367139

  length of vectors
     7.802814544  7.802814544  2.744484595     0.147985132  0.147985132  0.364367139


 FORCES acting on ions
    electron-ion (+dipol)            ewald-force                    non-local-force                 convergence-correction
 -----------------------------------------------------------------------------------------------
   0.109E+02 -.782E+02 0.102E-07   -.125E+02 0.862E+02 -.766E-15   0.153E+01 -.792E+01 -.135E-17   0.196E-01 -.309E-01 0.224E-12
   0.732E+02 -.296E+02 -.826E-07   -.809E+02 0.323E+02 0.441E-14   0.763E+01 -.264E+01 -.400E-17   0.366E-01 0.151E-02 -.732E-12
   -.623E+02 -.486E+02 -.307E-07   0.684E+02 0.539E+02 -.152E-14   -.610E+01 -.529E+01 -.139E-17   -.170E-01 -.325E-01 -.481E-12
   0.623E+02 0.486E+02 0.307E-07   -.684E+02 -.539E+02 -.257E-14   0.610E+01 0.529E+01 -.967E-18   0.170E-01 0.325E-01 -.106E-12
   -.732E+02 0.296E+02 0.826E-07   0.809E+02 -.323E+02 0.560E-14   -.763E+01 0.264E+01 0.144E-17   -.366E-01 -.151E-02 -.401E-12
   -.109E+02 0.782E+02 -.102E-07   0.125E+02 -.862E+02 0.256E-14   -.153E+01 0.792E+01 -.917E-18   -.196E-01 0.309E-01 -.497E-12
   0.110E-06 0.972E-07 -.636E-07   0.000E+00 0.938E-11 0.676E-15   0.319E-16 -.330E-16 0.819E-17   0.483E-06 0.229E-06 -.203E-13
   -.110E-06 -.972E-07 0.636E-07   -.142E-13 -.939E-11 0.754E-15   -.798E-17 0.189E-16 -.114E-16   -.483E-06 -.229E-06 -.346E-13
   0.274E-01 0.136E+02 0.520E-08   -.157E+01 -.160E+02 0.933E-15   0.156E+01 0.239E+01 0.794E-17   -.546E-02 -.640E-02 0.229E-13
   -.118E+02 0.683E+01 -.101E-06   0.131E+02 -.936E+01 -.349E-15   -.129E+01 0.255E+01 0.118E-17   0.281E-02 -.793E-02 -.314E-13
   0.118E+02 0.678E+01 -.139E-06   -.146E+02 -.664E+01 -.488E-14   0.285E+01 -.155E+00 0.724E-17   -.827E-02 0.153E-02 0.156E-13
   -.118E+02 -.678E+01 0.139E-06   0.146E+02 0.664E+01 -.443E-14   -.285E+01 0.155E+00 -.572E-17   0.827E-02 -.153E-02 0.475E-13
   -.274E-01 -.136E+02 -.520E-08   0.157E+01 0.160E+02 0.230E-14   -.156E+01 -.239E+01 0.471E-17   0.546E-02 0.640E-02 0.620E-14
   0.118E+02 -.683E+01 0.101E-06   -.131E+02 0.936E+01 0.200E-14   0.129E+01 -.255E+01 0.244E-17   -.281E-02 0.793E-02 0.149E-13
 -----------------------------------------------------------------------------------------------
   -.244E-12 -.283E-11 0.122E-10   0.711E-14 0.266E-13 0.473E-14   0.000E+00 -.222E-14 0.738E-17   0.804E-12 0.824E-12 -.197E-11
 
 
 POSITION                                       TOTAL-FORCE (eV/Angst)
 -----------------------------------------------------------------------------------
      4.00626      4.30212      2.05836        -0.010897     -0.003197     -0.000000
      2.17880     -1.13685      0.68612        -0.002680     -0.011036      0.000000
      5.72887     -1.31847      0.68612        -0.008218      0.007839      0.000000
      2.07394      1.31847      2.05836         0.008218     -0.007839      0.000000
      5.62402      1.13685      2.05836         0.002680      0.011036      0.000000
      3.79655     -4.30212      0.68612         0.010897      0.003197      0.000000
      3.90141      2.25248      2.05836         0.000000      0.000000     -0.000000
      3.90141     -2.25248      0.68612         0.000000      0.000000     -0.000000
      6.14116     -2.37389      2.05836         0.012430     -0.009690     -0.000000
      5.12643      4.13145      0.68612         0.014607      0.005920     -0.000000
      4.91613      0.25209      0.68612        -0.002176     -0.015610     -0.000000
      2.88668     -0.25209      2.05836         0.002176      0.015610      0.000000
      1.66166      2.37389      0.68612        -0.012430      0.009690     -0.000000
      2.67638     -4.13145      2.05836        -0.014607     -0.005920      0.000000
 -----------------------------------------------------------------------------------
    total drift:                                0.000000     -0.000000      0.000000


--------------------------------------------------------------------------------------------------------



  FREE ENERGIE OF THE ION-ELECTRON SYSTEM (eV)
  ---------------------------------------------------
  free  energy   TOTEN  =       -94.70301437 eV

  energy  without entropy=      -94.70176944  energy(sigma->0) =      -94.70270314
 
 d Force = 0.1669952E-03[-0.762E-04, 0.410E-03]  d Energy = 0.9945605E-04 0.675E-04
 d Force = 0.8659450E+00[ 0.861E+00, 0.871E+00]  d Ewald  = 0.8659463E+00-0.138E-05


--------------------------------------------------------------------------------------------------------


    POTLOK:  cpu time    0.0231: real time    0.0231


--------------------------------------------------------------------------------------------------------




--------------------------------------------------------------------------------------------------------


  
 reached required accuracy - stopping structural energy minimisation
     LOOP+:  cpu time   11.0035: real time   11.0202
    4ORBIT:  cpu time    0.0000: real time    0.0000

 total amount of memory used by VASP MPI-rank0    46152. kBytes
=======================================================================

   base      :      30000. kBytes
   nonlr-proj:       3253. kBytes
   fftplans  :       1364. kBytes
   grid      :       2140. kBytes
   one-center:         12. kBytes
   wavefun   :       9383. kBytes
 
  
  
 General timing and accounting informations for this job:
 ========================================================
  
                  Total CPU time used (sec):      116.638
                            User time (sec):      115.799
                          System time (sec):        0.839
                         Elapsed time (sec):      121.535
  
                   Maximum memory used (kb):       60376.
                   Average memory used (kb):           0.
  
                          Minor page faults:        80001
                          Major page faults:            3
                 Voluntary context switches:         4940
