<?xml version="1.0" encoding="ISO-8859-1"?>
<modeling>
 <generator>
  <i name="program" type="string">vasp </i>
  <i name="version" type="string">5.4.4.18Apr17-6-g9f103f2a35  </i>
  <i name="subversion" type="string">(build Nov 01 2019 12:17:22) complex            parallel </i>
  <i name="platform" type="string">LinuxIFC </i>
  <i name="date" type="string">2023 05 19 </i>
  <i name="time" type="string">18:18:50 </i>
 </generator>
 <incar>
  <i type="string" name="PREC">accurate</i>
  <i type="string" name="ALGO"> Fast</i>
  <i type="int" name="IBRION">     2</i>
  <i type="int" name="NSW">   100</i>
  <i type="int" name="ISIF">     2</i>
  <i type="string" name="LREAL"> Auto</i>
  <i type="int" name="ISMEAR">     2</i>
  <i name="SIGMA">      0.10000000</i>
  <i type="logical" name="LWAVE"> F  </i>
  <i type="logical" name="LCHARG"> F  </i>
  <v type="int" name="KPOINT_BSE">    -1     0     0     0</v>
 </incar>
 <structure name="primitive_cell" >
  <crystal>
   <varray name="basis" >
    <v>       3.90140728      -6.75743561       0.00000000 </v>
    <v>       3.90140727       6.75743562       0.00000000 </v>
    <v>       0.00000000       0.00000000       2.74448460 </v>
   </varray>
   <i name="volume">    144.70848567 </i>
   <varray name="rec_basis" >
    <v>       0.12815888      -0.07399257       0.00000000 </v>
    <v>       0.12815888       0.07399257       0.00000000 </v>
    <v>       0.00000000       0.00000000       0.36436714 </v>
   </varray>
  </crystal>
  <varray name="positions" >
   <v>       0.19708959      -0.16848230      -0.25000000 </v>
   <v>      -0.03641246      -0.38753655      -0.25000000 </v>
   <v>       0.35112409      -0.03641246       0.25000000 </v>
   <v>       0.33333333      -0.33333333      -0.25000000 </v>
   <v>       0.36557189       0.19708959       0.25000000 </v>
   <v>      -0.16848230      -0.36557189       0.25000000 </v>
   <v>      -0.35112409       0.03641246      -0.25000000 </v>
   <v>       0.03641246       0.38753655       0.25000000 </v>
   <v>      -0.36557189      -0.19708959      -0.25000000 </v>
   <v>       0.16848230       0.36557189      -0.25000000 </v>
   <v>       0.38753655       0.35112409      -0.25000000 </v>
   <v>      -0.33333333       0.33333333       0.25000000 </v>
   <v>      -0.38753655      -0.35112409       0.25000000 </v>
   <v>      -0.19708959       0.16848230       0.25000000 </v>
  </varray>
 </structure>
 <varray name="primitive_index" >
  <v type="int" >        1 </v>
  <v type="int" >        9 </v>
  <v type="int" >       10 </v>
  <v type="int" >        7 </v>
  <v type="int" >        2 </v>
  <v type="int" >        3 </v>
  <v type="int" >       14 </v>
  <v type="int" >       13 </v>
  <v type="int" >        5 </v>
  <v type="int" >        4 </v>
  <v type="int" >       12 </v>
  <v type="int" >        8 </v>
  <v type="int" >       11 </v>
  <v type="int" >        6 </v>
 </varray>
 <kpoints>
  <generation param="Auto">
   <i name="subdivisionlength">     45.00000000 </i>
   <v type="int" name="divisions">       7        7       16 </v>
   <v name="usershift">      0.00000000       0.00000000       0.00000000 </v>
   <v name="genvec1">      0.14285714      -0.00000000       0.00000000 </v>
   <v name="genvec2">     -0.00000000       0.14285714       0.00000000 </v>
   <v name="genvec3">      0.00000000       0.00000000       0.06250000 </v>
   <v name="shift">      0.00000000       0.00000000       0.00000000 </v>
  </generation>
  <varray name="kpointlist" >
   <v>       0.00000000       0.00000000       0.00000000 </v>
   <v>       0.14285714       0.00000000       0.00000000 </v>
   <v>       0.28571429       0.00000000       0.00000000 </v>
   <v>       0.42857143       0.00000000       0.00000000 </v>
   <v>       0.14285714       0.14285714       0.00000000 </v>
   <v>       0.28571429       0.14285714       0.00000000 </v>
   <v>       0.42857143       0.14285714       0.00000000 </v>
   <v>      -0.42857143       0.14285714       0.00000000 </v>
   <v>       0.28571429       0.28571429       0.00000000 </v>
   <v>       0.00000000       0.00000000       0.06250000 </v>
   <v>       0.14285714       0.00000000       0.06250000 </v>
   <v>       0.28571429       0.00000000       0.06250000 </v>
   <v>       0.42857143       0.00000000       0.06250000 </v>
   <v>       0.14285714       0.14285714       0.06250000 </v>
   <v>       0.28571429       0.14285714       0.06250000 </v>
   <v>       0.42857143       0.14285714       0.06250000 </v>
   <v>      -0.42857143       0.14285714       0.06250000 </v>
   <v>       0.28571429       0.28571429       0.06250000 </v>
   <v>       0.00000000       0.00000000       0.12500000 </v>
   <v>       0.14285714       0.00000000       0.12500000 </v>
   <v>       0.28571429       0.00000000       0.12500000 </v>
   <v>       0.42857143       0.00000000       0.12500000 </v>
   <v>       0.14285714       0.14285714       0.12500000 </v>
   <v>       0.28571429       0.14285714       0.12500000 </v>
   <v>       0.42857143       0.14285714       0.12500000 </v>
   <v>      -0.42857143       0.14285714       0.12500000 </v>
   <v>       0.28571429       0.28571429       0.12500000 </v>
   <v>       0.00000000       0.00000000       0.18750000 </v>
   <v>       0.14285714       0.00000000       0.18750000 </v>
   <v>       0.28571429       0.00000000       0.18750000 </v>
   <v>       0.42857143       0.00000000       0.18750000 </v>
   <v>       0.14285714       0.14285714       0.18750000 </v>
   <v>       0.28571429       0.14285714       0.18750000 </v>
   <v>       0.42857143       0.14285714       0.18750000 </v>
   <v>      -0.42857143       0.14285714       0.18750000 </v>
   <v>       0.28571429       0.28571429       0.18750000 </v>
   <v>       0.00000000       0.00000000       0.25000000 </v>
   <v>       0.14285714       0.00000000       0.25000000 </v>
   <v>       0.28571429       0.00000000       0.25000000 </v>
   <v>       0.42857143       0.00000000       0.25000000 </v>
   <v>       0.14285714       0.14285714       0.25000000 </v>
   <v>       0.28571429       0.14285714       0.25000000 </v>
   <v>       0.42857143       0.14285714       0.25000000 </v>
   <v>      -0.42857143       0.14285714       0.25000000 </v>
   <v>       0.28571429       0.28571429       0.25000000 </v>
   <v>       0.00000000       0.00000000       0.31250000 </v>
   <v>       0.14285714       0.00000000       0.31250000 </v>
   <v>       0.28571429       0.00000000       0.31250000 </v>
   <v>       0.42857143       0.00000000       0.31250000 </v>
   <v>       0.14285714       0.14285714       0.31250000 </v>
   <v>       0.28571429       0.14285714       0.31250000 </v>
   <v>       0.42857143       0.14285714       0.31250000 </v>
   <v>      -0.42857143       0.14285714       0.31250000 </v>
   <v>       0.28571429       0.28571429       0.31250000 </v>
   <v>       0.00000000       0.00000000       0.37500000 </v>
   <v>       0.14285714       0.00000000       0.37500000 </v>
   <v>       0.28571429       0.00000000       0.37500000 </v>
   <v>       0.42857143       0.00000000       0.37500000 </v>
   <v>       0.14285714       0.14285714       0.37500000 </v>
   <v>       0.28571429       0.14285714       0.37500000 </v>
   <v>       0.42857143       0.14285714       0.37500000 </v>
   <v>      -0.42857143       0.14285714       0.37500000 </v>
   <v>       0.28571429       0.28571429       0.37500000 </v>
   <v>       0.00000000       0.00000000       0.43750000 </v>
   <v>       0.14285714       0.00000000       0.43750000 </v>
   <v>       0.28571429       0.00000000       0.43750000 </v>
   <v>       0.42857143       0.00000000       0.43750000 </v>
   <v>       0.14285714       0.14285714       0.43750000 </v>
   <v>       0.28571429       0.14285714       0.43750000 </v>
   <v>       0.42857143       0.14285714       0.43750000 </v>
   <v>      -0.42857143       0.14285714       0.43750000 </v>
   <v>       0.28571429       0.28571429       0.43750000 </v>
   <v>       0.00000000       0.00000000       0.50000000 </v>
   <v>       0.14285714       0.00000000       0.50000000 </v>
   <v>       0.28571429       0.00000000       0.50000000 </v>
   <v>       0.42857143       0.00000000       0.50000000 </v>
   <v>       0.14285714       0.14285714       0.50000000 </v>
   <v>       0.28571429       0.14285714       0.50000000 </v>
   <v>       0.42857143       0.14285714       0.50000000 </v>
   <v>      -0.42857143       0.14285714       0.50000000 </v>
   <v>       0.28571429       0.28571429       0.50000000 </v>
  </varray>
  <varray name="weights" >
   <v>       0.00127551 </v>
   <v>       0.00765306 </v>
   <v>       0.00765306 </v>
   <v>       0.00765306 </v>
   <v>       0.00765306 </v>
   <v>       0.00765306 </v>
   <v>       0.00765306 </v>
   <v>       0.00765306 </v>
   <v>       0.00765306 </v>
   <v>       0.00255102 </v>
   <v>       0.01530612 </v>
   <v>       0.01530612 </v>
   <v>       0.01530612 </v>
   <v>       0.01530612 </v>
   <v>       0.01530612 </v>
   <v>       0.01530612 </v>
   <v>       0.01530612 </v>
   <v>       0.01530612 </v>
   <v>       0.00255102 </v>
   <v>       0.01530612 </v>
   <v>       0.01530612 </v>
   <v>       0.01530612 </v>
   <v>       0.01530612 </v>
   <v>       0.01530612 </v>
   <v>       0.01530612 </v>
   <v>       0.01530612 </v>
   <v>       0.01530612 </v>
   <v>       0.00255102 </v>
   <v>       0.01530612 </v>
   <v>       0.01530612 </v>
   <v>       0.01530612 </v>
   <v>       0.01530612 </v>
   <v>       0.01530612 </v>
   <v>       0.01530612 </v>
   <v>       0.01530612 </v>
   <v>       0.01530612 </v>
   <v>       0.00255102 </v>
   <v>       0.01530612 </v>
   <v>       0.01530612 </v>
   <v>       0.01530612 </v>
   <v>       0.01530612 </v>
   <v>       0.01530612 </v>
   <v>       0.01530612 </v>
   <v>       0.01530612 </v>
   <v>       0.01530612 </v>
   <v>       0.00255102 </v>
   <v>       0.01530612 </v>
   <v>       0.01530612 </v>
   <v>       0.01530612 </v>
   <v>       0.01530612 </v>
   <v>       0.01530612 </v>
   <v>       0.01530612 </v>
   <v>       0.01530612 </v>
   <v>       0.01530612 </v>
   <v>       0.00255102 </v>
   <v>       0.01530612 </v>
   <v>       0.01530612 </v>
   <v>       0.01530612 </v>
   <v>       0.01530612 </v>
   <v>       0.01530612 </v>
   <v>       0.01530612 </v>
   <v>       0.01530612 </v>
   <v>       0.01530612 </v>
   <v>       0.00255102 </v>
   <v>       0.01530612 </v>
   <v>       0.01530612 </v>
   <v>       0.01530612 </v>
   <v>       0.01530612 </v>
   <v>       0.01530612 </v>
   <v>       0.01530612 </v>
   <v>       0.01530612 </v>
   <v>       0.01530612 </v>
   <v>       0.00127551 </v>
   <v>       0.00765306 </v>
   <v>       0.00765306 </v>
   <v>       0.00765306 </v>
   <v>       0.00765306 </v>
   <v>       0.00765306 </v>
   <v>       0.00765306 </v>
   <v>       0.00765306 </v>
   <v>       0.00765306 </v>
  </varray>
 </kpoints>
 <parameters>
  <separator name="general" >
   <i type="string" name="SYSTEM">unknown system</i>
   <i type="logical" name="LCOMPAT"> F  </i>
  </separator>
  <separator name="electronic" >
   <i type="string" name="PREC">accura</i>
   <i name="ENMAX">    400.00000000</i>
   <i name="ENAUG">    627.11200000</i>
   <i name="EDIFF">      0.00010000</i>
   <i type="int" name="IALGO">    68</i>
   <i type="int" name="IWAVPR">    11</i>
   <i type="int" name="NBANDS">    40</i>
   <i name="NELECT">     62.00000000</i>
   <i type="int" name="TURBO">     0</i>
   <i type="int" name="IRESTART">     0</i>
   <i type="int" name="NREBOOT">     0</i>
   <i type="int" name="NMIN">     0</i>
   <i name="EREF">      0.00000000</i>
   <separator name="electronic smearing" >
    <i type="int" name="ISMEAR">     2</i>
    <i name="SIGMA">      0.10000000</i>
    <i name="KSPACING">      0.50000000</i>
    <i type="logical" name="KGAMMA"> T  </i>
   </separator>
   <separator name="electronic projectors" >
    <i type="logical" name="LREAL"> T  </i>
    <v name="ROPT">     -0.00025000     -0.00025000</v>
    <i type="int" name="LMAXPAW">  -100</i>
    <i type="int" name="LMAXMIX">     2</i>
    <i type="logical" name="NLSPLINE"> F  </i>
   </separator>
   <separator name="electronic startup" >
    <i type="int" name="ISTART">     0</i>
    <i type="int" name="ICHARG">     2</i>
    <i type="int" name="INIWAV">     1</i>
   </separator>
   <separator name="electronic spin" >
    <i type="int" name="ISPIN">     1</i>
    <i type="logical" name="LNONCOLLINEAR"> F  </i>
    <v name="MAGMOM">      1.00000000      1.00000000      1.00000000      1.00000000      1.00000000      1.00000000      1.00000000      1.00000000      1.00000000      1.00000000      1.00000000      1.00000000      1.00000000      1.00000000</v>
    <i name="NUPDOWN">     -1.00000000</i>
    <i type="logical" name="LSORBIT"> F  </i>
    <v name="SAXIS">      0.00000000      0.00000000      1.00000000</v>
    <i type="logical" name="LSPIRAL"> F  </i>
    <v name="QSPIRAL">      0.00000000      0.00000000      0.00000000</v>
    <i type="logical" name="LZEROZ"> F  </i>
   </separator>
   <separator name="electronic exchange-correlation" >
    <i type="logical" name="LASPH"> F  </i>
    <i type="logical" name="LMETAGGA"> F  </i>
   </separator>
   <separator name="electronic convergence" >
    <i type="int" name="NELM">    60</i>
    <i type="int" name="NELMDL">    -5</i>
    <i type="int" name="NELMIN">     2</i>
    <i name="ENINI">    400.00000000</i>
    <separator name="electronic convergence detail" >
     <i type="logical" name="LDIAG"> T  </i>
     <i type="logical" name="LSUBROT"> F  </i>
     <i name="WEIMIN">      0.00100000</i>
     <i name="EBREAK">      0.00000063</i>
     <i name="DEPER">      0.30000000</i>
     <i type="int" name="NRMM">     4</i>
     <i name="TIME">      0.40000000</i>
    </separator>
   </separator>
   <separator name="electronic mixer" >
    <i name="AMIX">      0.40000000</i>
    <i name="BMIX">      1.00000000</i>
    <i name="AMIN">      0.10000000</i>
    <i name="AMIX_MAG">      1.60000000</i>
    <i name="BMIX_MAG">      1.00000000</i>
    <separator name="electronic mixer details" >
     <i type="int" name="IMIX">     4</i>
     <i type="logical" name="MIXFIRST"> F  </i>
     <i type="int" name="MAXMIX">   -45</i>
     <i name="WC">    100.00000000</i>
     <i type="int" name="INIMIX">     1</i>
     <i type="int" name="MIXPRE">     1</i>
     <i type="int" name="MREMOVE">     5</i>
    </separator>
   </separator>
   <separator name="electronic dipolcorrection" >
    <i type="logical" name="LDIPOL"> F  </i>
    <i type="logical" name="LMONO"> F  </i>
    <i type="int" name="IDIPOL">     0</i>
    <i name="EPSILON">      1.00000000</i>
    <v name="DIPOL">   -100.00000000   -100.00000000   -100.00000000</v>
    <i name="EFIELD">      0.00000000</i>
   </separator>
  </separator>
  <separator name="grids" >
   <i type="int" name="NGX">    54</i>
   <i type="int" name="NGY">    54</i>
   <i type="int" name="NGZ">    18</i>
   <i type="int" name="NGXF">   108</i>
   <i type="int" name="NGYF">   108</i>
   <i type="int" name="NGZF">    36</i>
   <i type="logical" name="ADDGRID"> F  </i>
  </separator>
  <separator name="ionic" >
   <i type="int" name="NSW">   100</i>
   <i type="int" name="IBRION">     2</i>
   <i type="int" name="MDALGO">     0</i>
   <i type="int" name="ISIF">     2</i>
   <i name="PSTRESS">      0.00000000</i>
   <i name="EDIFFG">      0.00100000</i>
   <i type="int" name="NFREE">     1</i>
   <i name="POTIM">      0.50000000</i>
   <i name="SMASS">     -3.00000000</i>
   <i name="SCALEE">      1.00000000</i>
  </separator>
  <separator name="ionic md" >
   <i name="TEBEG">      0.00010000</i>
   <i name="TEEND">      0.00010000</i>
   <i type="int" name="NBLOCK">     1</i>
   <i type="int" name="KBLOCK">   100</i>
   <i type="int" name="NPACO">   256</i>
   <i name="APACO">     16.00000000</i>
  </separator>
  <separator name="symmetry" >
   <i type="int" name="ISYM">     2</i>
   <i name="SYMPREC">      0.00001000</i>
  </separator>
  <separator name="dos" >
   <i type="int" name="LORBIT">     0</i>
   <v name="RWIGS">     -1.00000000     -1.00000000</v>
   <i type="int" name="NEDOS">   301</i>
   <i name="EMIN">     10.00000000</i>
   <i name="EMAX">    -10.00000000</i>
   <i name="EFERMI">      0.00000000</i>
  </separator>
  <separator name="writing" >
   <i type="int" name="NWRITE">     2</i>
   <i type="logical" name="LWAVE"> F  </i>
   <i type="logical" name="LDOWNSAMPLE"> F  </i>
   <i type="logical" name="LCHARG"> F  </i>
   <i type="logical" name="LPARD"> F  </i>
   <i type="logical" name="LVTOT"> F  </i>
   <i type="logical" name="LVHAR"> F  </i>
   <i type="logical" name="LELF"> F  </i>
   <i type="logical" name="LOPTICS"> F  </i>
   <v name="STM">      0.00000000      0.00000000      0.00000000      0.00000000      0.00000000      0.00000000      0.00000000</v>
  </separator>
  <separator name="performance" >
   <i type="int" name="NPAR">     4</i>
   <i type="int" name="NSIM">     4</i>
   <i type="int" name="NBLK">    -1</i>
   <i type="logical" name="LPLANE"> T  </i>
   <i type="logical" name="LSCALAPACK"> F  </i>
   <i type="logical" name="LSCAAWARE"> F  </i>
   <i type="logical" name="LSCALU"> F  </i>
   <i type="logical" name="LASYNC"> F  </i>
   <i type="logical" name="LORBITALREAL"> F  </i>
  </separator>
  <separator name="miscellaneous" >
   <i type="int" name="IDIOT">     3</i>
   <i type="int" name="ISPECIAL">     0</i>
   <i type="logical" name="LMUSIC"> F  </i>
   <v name="POMASS">     14.00100000     28.08500000</v>
   <v name="DARWINR">      0.00000000      0.00000000</v>
   <v name="DARWINV">      1.00000000      1.00000000</v>
   <i type="logical" name="LCORR"> T  </i>
  </separator>
  <i type="logical" name="GGA_COMPAT"> T  </i>
  <i type="logical" name="LBERRY"> F  </i>
  <i type="int" name="ICORELEVEL">     0</i>
  <i type="logical" name="LDAU"> F  </i>
  <i type="int" name="I_CONSTRAINED_M">     0</i>
  <separator name="electronic exchange-correlation" >
   <i type="string" name="GGA">--</i>
   <i type="int" name="VOSKOWN">     0</i>
   <i type="logical" name="LHFCALC"> F  </i>
   <i type="string" name="PRECFOCK"></i>
   <i type="logical" name="LSYMGRAD"> F  </i>
   <i type="logical" name="LHFONE"> F  </i>
   <i type="logical" name="LRHFCALC"> F  </i>
   <i type="logical" name="LTHOMAS"> F  </i>
   <i type="logical" name="LMODELHF"> F  </i>
   <i name="ENCUT4O">     -1.00000000</i>
   <i type="int" name="EXXOEP">     0</i>
   <i type="int" name="FOURORBIT">     0</i>
   <i name="AEXX">      0.00000000</i>
   <i name="HFALPHA">      0.00000000</i>
   <i name="MCALPHA">      0.00000000</i>
   <i name="ALDAX">      1.00000000</i>
   <i name="AGGAX">      1.00000000</i>
   <i name="ALDAC">      1.00000000</i>
   <i name="AGGAC">      1.00000000</i>
   <i type="int" name="NKREDX">     1</i>
   <i type="int" name="NKREDY">     1</i>
   <i type="int" name="NKREDZ">     1</i>
   <i type="logical" name="SHIFTRED"> F  </i>
   <i type="logical" name="ODDONLY"> F  </i>
   <i type="logical" name="EVENONLY"> F  </i>
   <i type="int" name="LMAXFOCK">     0</i>
   <i type="int" name="NMAXFOCKAE">     0</i>
   <i type="logical" name="LFOCKAEDFT"> F  </i>
   <i name="HFSCREEN">      0.00000000</i>
   <i name="HFSCREENC">      0.00000000</i>
   <i type="int" name="NBANDSGWLOW">     0</i>
  </separator>
  <separator name="vdW DFT" >
   <i type="logical" name="LUSE_VDW"> F  </i>
   <i name="Zab_VDW">     -0.84910000</i>
   <i name="PARAM1">      0.12340000</i>
   <i name="PARAM2">      1.00000000</i>
   <i name="PARAM3">      0.00000000</i>
  </separator>
  <separator name="model GW" >
   <i type="int" name="MODEL_GW">     0</i>
   <i name="MODEL_EPS0">      6.20179224</i>
   <i name="MODEL_ALPHA">      1.00000000</i>
  </separator>
  <separator name="linear response parameters" >
   <i type="logical" name="LEPSILON"> F  </i>
   <i type="logical" name="LRPA"> F  </i>
   <i type="logical" name="LNABLA"> F  </i>
   <i type="logical" name="LVEL"> F  </i>
   <i type="int" name="KINTER">     0</i>
   <i name="CSHIFT">      0.10000000</i>
   <i name="OMEGAMAX">     -1.00000000</i>
   <i name="DEG_THRESHOLD">      0.00200000</i>
   <i name="RTIME">     -0.10000000</i>
   <i name="WPLASMAI">      0.00000000</i>
   <v name="DFIELD">      0.00000000      0.00000000      0.00000000</v>
   <v name="WPLASMA">      0.00000000      0.00000000      0.00000000      0.00000000      0.00000000      0.00000000      0.00000000      0.00000000      0.00000000</v>
  </separator>
  <separator name="orbital magnetization" >
   <i type="logical" name="NUCIND"> F  </i>
   <v name="MAGPOS">      0.00000000      0.00000000      0.00000000</v>
   <i type="logical" name="LNICSALL"> T  </i>
   <i type="logical" name="ORBITALMAG"> F  </i>
   <i type="logical" name="LMAGBLOCH"> F  </i>
   <i type="logical" name="LCHIMAG"> F  </i>
   <i type="logical" name="LGAUGE"> T  </i>
   <i type="int" name="MAGATOM">     0</i>
   <v name="MAGDIPOL">      0.00000000      0.00000000      0.00000000</v>
   <v name="AVECCONST">      0.00000000      0.00000000      0.00000000</v>
  </separator>
  <separator name="response functions" >
   <i type="logical" name="LADDER"> F  </i>
   <i type="logical" name="LRPAFORCE"> F  </i>
   <i type="logical" name="LFXC"> F  </i>
   <i type="logical" name="LHARTREE"> T  </i>
   <i type="int" name="IBSE">     0</i>
   <v type="int" name="KPOINT">    -1     0     0     0</v>
   <i type="logical" name="LTCTE"> F  </i>
   <i type="logical" name="LTETE"> F  </i>
   <i type="logical" name="LTRIPLET"> F  </i>
   <i type="logical" name="LFXCEPS"> F  </i>
   <i type="logical" name="LFXHEG"> F  </i>
   <i type="int" name="NATURALO">     2</i>
   <i type="logical" name="L2ORDER"> F  </i>
   <i type="logical" name="LMP2LT"> F  </i>
   <i type="logical" name="LUSEW"> F  </i>
   <i name="ENCUTGW">     -2.00000000</i>
   <i name="ENCUTGWSOFT">     -2.00000000</i>
   <i name="ENCUTLF">     -1.00000000</i>
   <i type="int" name="LMAXMP2">    -1</i>
   <i name="SCISSOR">      0.00000000</i>
   <i type="int" name="NOMEGA">     0</i>
   <i type="int" name="NOMEGAR">     0</i>
   <i type="int" name="NBANDSGW">    -1</i>
   <i type="int" name="NBANDSO">    -1</i>
   <i type="int" name="NBANDSV">    -1</i>
   <i type="int" name="NELM">     1</i>
   <i type="int" name="NELMHF">     1</i>
   <i type="int" name="DIM">     3</i>
   <i type="int" name="ANTIRES">     0</i>
   <i name="OMEGAMAX">    -30.00000000</i>
   <i name="OMEGAMIN">    -30.00000000</i>
   <i name="OMEGATL">   -200.00000000</i>
   <i type="int" name="OMEGAGRID">   140</i>
   <i name="CSHIFT">     -0.10000000</i>
   <i type="logical" name="SELFENERGY"> F  </i>
   <i type="logical" name="LSPECTRAL"> F  </i>
   <i type="logical" name="LSPECTRALGW"> F  </i>
   <i type="logical" name="LSINGLES"> F  </i>
   <i type="logical" name="LFERMIGW"> F  </i>
   <i type="logical" name="ODDONLYGW"> F  </i>
   <i type="logical" name="EVENONLYGW"> F  </i>
   <i type="int" name="NKREDLFX">     1</i>
   <i type="int" name="NKREDLFY">     1</i>
   <i type="int" name="NKREDLFZ">     1</i>
   <i type="int" name="MAXMEM">  2800</i>
   <i type="int" name="TELESCOPE">     0</i>
   <i type="int" name="TAUPAR">     1</i>
   <i type="int" name="OMEGAPAR">    -1</i>
   <i name="LAMBDA">      1.00000000</i>
  </separator>
  <separator name="External order field" >
   <i name="OFIELD_KAPPA">      0.00000000</i>
   <v name="OFIELD_K">      0.00000000      0.00000000      0.00000000</v>
   <i name="OFIELD_Q6_NEAR">      0.00000000</i>
   <i name="OFIELD_Q6_FAR">      0.00000000</i>
   <i name="OFIELD_A">      0.00000000</i>
  </separator>
 </parameters>
 <atominfo>
  <atoms>      14 </atoms>
  <types>       2 </types>
  <array name="atoms" >
   <dimension dim="1">ion</dimension>
   <field type="string">element</field>
   <field type="int">atomtype</field>
   <set>
    <rc><c>N </c><c>   1</c></rc>
    <rc><c>N </c><c>   1</c></rc>
    <rc><c>N </c><c>   1</c></rc>
    <rc><c>N </c><c>   1</c></rc>
    <rc><c>N </c><c>   1</c></rc>
    <rc><c>N </c><c>   1</c></rc>
    <rc><c>Si</c><c>   2</c></rc>
    <rc><c>Si</c><c>   2</c></rc>
    <rc><c>Si</c><c>   2</c></rc>
    <rc><c>Si</c><c>   2</c></rc>
    <rc><c>Si</c><c>   2</c></rc>
    <rc><c>Si</c><c>   2</c></rc>
    <rc><c>Si</c><c>   2</c></rc>
    <rc><c>Si</c><c>   2</c></rc>
   </set>
  </array>
  <array name="atomtypes" >
   <dimension dim="1">type</dimension>
   <field type="int">atomspertype</field>
   <field type="string">element</field>
   <field>mass</field>
   <field>valence</field>
   <field type="string">pseudopotential</field>
   <set>
    <rc><c>   6</c><c>N </c><c>     14.00100000</c><c>      5.00000000</c><c>  PAW_PBE N 08Apr2002                   </c></rc>
    <rc><c>   8</c><c>Si</c><c>     28.08500000</c><c>      4.00000000</c><c>  PAW_PBE Si 05Jan2001                  </c></rc>
   </set>
  </array>
 </atominfo>
 <structure name="initialpos" >
  <crystal>
   <varray name="basis" >
    <v>       3.90140728      -6.75743561       0.00000000 </v>
    <v>       3.90140727       6.75743562       0.00000000 </v>
    <v>       0.00000000       0.00000000       2.74448460 </v>
   </varray>
   <i name="volume">    144.70848567 </i>
   <varray name="rec_basis" >
    <v>       0.12815888      -0.07399257       0.00000000 </v>
    <v>       0.12815888       0.07399257       0.00000000 </v>
    <v>       0.00000000       0.00000000       0.36436714 </v>
   </varray>
  </crystal>
  <varray name="positions" >
   <v>       0.19708959       0.83151770       0.75000000 </v>
   <v>       0.36557189       0.19708959       0.25000000 </v>
   <v>       0.83151770       0.63442811       0.25000000 </v>
   <v>       0.16848230       0.36557189       0.75000000 </v>
   <v>       0.63442811       0.80291041       0.75000000 </v>
   <v>       0.80291041       0.16848230       0.25000000 </v>
   <v>       0.33333333       0.66666667       0.75000000 </v>
   <v>       0.66666667       0.33333333       0.25000000 </v>
   <v>       0.96358754       0.61246345       0.75000000 </v>
   <v>       0.35112409       0.96358754       0.25000000 </v>
   <v>       0.61246345       0.64887591       0.25000000 </v>
   <v>       0.38753655       0.35112409       0.75000000 </v>
   <v>       0.03641246       0.38753655       0.25000000 </v>
   <v>       0.64887591       0.03641246       0.75000000 </v>
  </varray>
 </structure>
 <calculation>
  <scstep>
   <time name="dav">    2.41    2.41</time>
   <time name="total">    2.44    2.44</time>
   <energy>
    <i name="alphaZ">     84.24197845 </i>
    <i name="ewald">  -2291.94412999 </i>
    <i name="hartreedc">   -501.27651626 </i>
    <i name="XCdc">     55.46478707 </i>
    <i name="pawpsdc">   1934.58678659 </i>
    <i name="pawaedc">  -1800.98643654 </i>
    <i name="eentropy">     -0.00022963 </i>
    <i name="bandstr">    337.71492959 </i>
    <i name="atom">   2411.37598431 </i>
    <i name="e_fr_energy">    229.17715358 </i>
    <i name="e_wo_entrp">    229.17738321 </i>
    <i name="e_0_energy">    229.17721099 </i>
   </energy>
  </scstep>
  <scstep>
   <time name="dav">    2.84    2.84</time>
   <time name="total">    2.84    2.84</time>
   <energy>
    <i name="e_fr_energy">    -83.61009940 </i>
    <i name="e_wo_entrp">    -83.61068061 </i>
    <i name="e_0_energy">    -83.61024470 </i>
   </energy>
  </scstep>
  <scstep>
   <time name="dav">    2.83    2.83</time>
   <time name="total">    2.83    2.83</time>
   <energy>
    <i name="e_fr_energy">   -104.24698399 </i>
    <i name="e_wo_entrp">   -104.24647596 </i>
    <i name="e_0_energy">   -104.24685698 </i>
   </energy>
  </scstep>
  <scstep>
   <time name="dav">    2.84    2.84</time>
   <time name="total">    2.84    2.85</time>
   <energy>
    <i name="e_fr_energy">   -104.71005207 </i>
    <i name="e_wo_entrp">   -104.70975278 </i>
    <i name="e_0_energy">   -104.70997725 </i>
   </energy>
  </scstep>
  <scstep>
   <time name="dav">    2.84    2.84</time>
   <time name="total">    3.00    3.00</time>
   <energy>
    <i name="e_fr_energy">   -104.72038988 </i>
    <i name="e_wo_entrp">   -104.72014402 </i>
    <i name="e_0_energy">   -104.72032842 </i>
   </energy>
  </scstep>
  <scstep>
   <time name="diag">    0.40    0.40</time>
   <time name="diis">    1.60    1.60</time>
   <time name="orth">    0.04    0.04</time>
   <time name="total">    2.22    2.22</time>
   <energy>
    <i name="e_fr_energy">    -95.23133169 </i>
    <i name="e_wo_entrp">    -95.23137773 </i>
    <i name="e_0_energy">    -95.23134320 </i>
   </energy>
  </scstep>
  <scstep>
   <time name="diag">    0.40    0.40</time>
   <time name="diis">    1.61    1.61</time>
   <time name="orth">    0.04    0.04</time>
   <time name="total">    2.23    2.23</time>
   <energy>
    <i name="e_fr_energy">    -94.79677636 </i>
    <i name="e_wo_entrp">    -94.79598907 </i>
    <i name="e_0_energy">    -94.79657954 </i>
   </energy>
  </scstep>
  <scstep>
   <time name="diag">    0.40    0.40</time>
   <time name="diis">    1.61    1.61</time>
   <time name="orth">    0.04    0.04</time>
   <time name="total">    2.22    2.22</time>
   <energy>
    <i name="e_fr_energy">    -94.69010558 </i>
    <i name="e_wo_entrp">    -94.68854142 </i>
    <i name="e_0_energy">    -94.68971454 </i>
   </energy>
  </scstep>
  <scstep>
   <time name="diag">    0.40    0.40</time>
   <time name="diis">    1.60    1.60</time>
   <time name="orth">    0.04    0.04</time>
   <time name="total">    2.21    2.21</time>
   <energy>
    <i name="e_fr_energy">    -94.68648887 </i>
    <i name="e_wo_entrp">    -94.68515919 </i>
    <i name="e_0_energy">    -94.68615645 </i>
   </energy>
  </scstep>
  <scstep>
   <time name="diag">    0.40    0.40</time>
   <time name="diis">    1.60    1.60</time>
   <time name="orth">    0.04    0.04</time>
   <time name="total">    2.21    2.21</time>
   <energy>
    <i name="e_fr_energy">    -94.68411549 </i>
    <i name="e_wo_entrp">    -94.68263005 </i>
    <i name="e_0_energy">    -94.68374413 </i>
   </energy>
  </scstep>
  <scstep>
   <time name="diag">    0.40    0.40</time>
   <time name="diis">    1.60    1.60</time>
   <time name="orth">    0.04    0.04</time>
   <time name="total">    2.21    2.21</time>
   <energy>
    <i name="e_fr_energy">    -94.68523929 </i>
    <i name="e_wo_entrp">    -94.68370611 </i>
    <i name="e_0_energy">    -94.68485599 </i>
   </energy>
  </scstep>
  <scstep>
   <time name="diag">    2.15    2.15</time>
   <time name="diis">    1.58    1.58</time>
   <time name="orth">    0.04    0.04</time>
   <time name="total">    4.02    4.03</time>
   <energy>
    <i name="e_fr_energy">    -94.68494994 </i>
    <i name="e_wo_entrp">    -94.68344992 </i>
    <i name="e_0_energy">    -94.68457494 </i>
   </energy>
  </scstep>
  <scstep>
   <time name="diag">    0.40    0.40</time>
   <time name="diis">    1.12    1.12</time>
   <time name="orth">    0.04    0.04</time>
   <time name="total">    1.58    1.58</time>
   <energy>
    <i name="alphaZ">     84.24197845 </i>
    <i name="ewald">  -2291.94412999 </i>
    <i name="hartreedc">   -596.83555176 </i>
    <i name="XCdc">     62.92903273 </i>
    <i name="pawpsdc">   9095.00671678 </i>
    <i name="pawaedc">  -8963.33142623 </i>
    <i name="eentropy">     -0.00149524 </i>
    <i name="bandstr">    103.87391847 </i>
    <i name="atom">   2411.37598431 </i>
    <i name="e_fr_energy">    -94.68497250 </i>
    <i name="e_wo_entrp">    -94.68347725 </i>
    <i name="e_0_energy">    -94.68459868 </i>
   </energy>
  </scstep>
  <structure>
   <crystal>
    <varray name="basis" >
     <v>       3.90140728      -6.75743561       0.00000000 </v>
     <v>       3.90140727       6.75743562       0.00000000 </v>
     <v>       0.00000000       0.00000000       2.74448460 </v>
    </varray>
    <i name="volume">    144.70848567 </i>
    <varray name="rec_basis" >
     <v>       0.12815888      -0.07399257       0.00000000 </v>
     <v>       0.12815888       0.07399257       0.00000000 </v>
     <v>       0.00000000       0.00000000       0.36436714 </v>
    </varray>
   </crystal>
   <varray name="positions" >
    <v>       0.19708959       0.83151770       0.75000000 </v>
    <v>       0.36557189       0.19708959       0.25000000 </v>
    <v>       0.83151770       0.63442811       0.25000000 </v>
    <v>       0.16848230       0.36557189       0.75000000 </v>
    <v>       0.63442811       0.80291041       0.75000000 </v>
    <v>       0.80291041       0.16848230       0.25000000 </v>
    <v>       0.33333333       0.66666667       0.75000000 </v>
    <v>       0.66666667       0.33333333       0.25000000 </v>
    <v>       0.96358754       0.61246345       0.75000000 </v>
    <v>       0.35112409       0.96358754       0.25000000 </v>
    <v>       0.61246345       0.64887591       0.25000000 </v>
    <v>       0.38753655       0.35112409       0.75000000 </v>
    <v>       0.03641246       0.38753655       0.25000000 </v>
    <v>       0.64887591       0.03641246       0.75000000 </v>
   </varray>
  </structure>
  <varray name="forces" >
   <v>      -0.14672329       0.26069884      -0.00000000 </v>
   <v>      -0.29913346       0.00328333       0.00000000 </v>
   <v>       0.15241018       0.25741551      -0.00000000 </v>
   <v>      -0.15241018      -0.25741551      -0.00000000 </v>
   <v>       0.29913346      -0.00328333       0.00000000 </v>
   <v>       0.14672329      -0.26069884      -0.00000000 </v>
   <v>      -0.00000000       0.00000000       0.00000000 </v>
   <v>      -0.00000000       0.00000000      -0.00000000 </v>
   <v>      -0.11378518      -0.29242767       0.00000000 </v>
   <v>       0.19635720      -0.24475469       0.00000000 </v>
   <v>      -0.31014238      -0.04767298       0.00000000 </v>
   <v>       0.31014238       0.04767298      -0.00000000 </v>
   <v>       0.11378518       0.29242767       0.00000000 </v>
   <v>      -0.19635720       0.24475469      -0.00000000 </v>
  </varray>
  <varray name="stress" >
   <v>     155.03825924       0.00000003       0.00000000 </v>
   <v>      -0.00000003     155.03825924       0.00000000 </v>
   <v>      -0.00000000      -0.00000000     129.11245106 </v>
  </varray>
  <energy>
   <i name="e_fr_energy">    -94.68497250 </i>
   <i name="e_wo_entrp">    -94.68459868 </i>
   <i name="e_0_energy">     -0.00149524 </i>
  </energy>
  <time name="totalsc">   37.27   37.47</time>
 </calculation>
 <calculation>
  <scstep>
   <time name="dav">    2.61    2.61</time>
   <time name="total">    2.82    2.88</time>
   <energy>
    <i name="alphaZ">     84.24197845 </i>
    <i name="ewald">  -2300.31344858 </i>
    <i name="hartreedc">   -591.45294590 </i>
    <i name="XCdc">     62.79528603 </i>
    <i name="pawpsdc">   9099.95108808 </i>
    <i name="pawaedc">  -8968.27614257 </i>
    <i name="eentropy">     -0.00098582 </i>
    <i name="bandstr">    106.99139003 </i>
    <i name="atom">   2411.37598431 </i>
    <i name="e_fr_energy">    -94.68779597 </i>
    <i name="e_wo_entrp">    -94.68681015 </i>
    <i name="e_0_energy">    -94.68754951 </i>
   </energy>
  </scstep>
  <scstep>
   <time name="diag">    0.40    0.40</time>
   <time name="diis">    1.58    1.58</time>
   <time name="orth">    0.04    0.04</time>
   <time name="total">    2.19    2.19</time>
   <energy>
    <i name="e_fr_energy">    -94.69162423 </i>
    <i name="e_wo_entrp">    -94.69062645 </i>
    <i name="e_0_energy">    -94.69137478 </i>
   </energy>
  </scstep>
  <scstep>
   <time name="diag">    0.40    0.40</time>
   <time name="diis">    1.59    1.59</time>
   <time name="orth">    0.04    0.04</time>
   <time name="total">    2.20    2.21</time>
   <energy>
    <i name="e_fr_energy">    -94.69010164 </i>
    <i name="e_wo_entrp">    -94.68906628 </i>
    <i name="e_0_energy">    -94.68984280 </i>
   </energy>
  </scstep>
  <scstep>
   <time name="diag">    0.40    0.40</time>
   <time name="diis">    1.60    1.60</time>
   <time name="orth">    0.04    0.04</time>
   <time name="total">    2.21    2.21</time>
   <energy>
    <i name="e_fr_energy">    -94.68989249 </i>
    <i name="e_wo_entrp">    -94.68884945 </i>
    <i name="e_0_energy">    -94.68963173 </i>
   </energy>
  </scstep>
  <scstep>
   <time name="diag">    0.40    0.40</time>
   <time name="diis">    4.93    8.85</time>
   <time name="orth">    0.04    0.04</time>
   <time name="total">    5.39    9.31</time>
   <energy>
    <i name="alphaZ">     84.24197845 </i>
    <i name="ewald">  -2300.31344858 </i>
    <i name="hartreedc">   -589.61710142 </i>
    <i name="XCdc">     62.70348921 </i>
    <i name="pawpsdc">   8989.86266723 </i>
    <i name="pawaedc">  -8858.15054315 </i>
    <i name="eentropy">     -0.00104059 </i>
    <i name="bandstr">    105.20811036 </i>
    <i name="atom">   2411.37598431 </i>
    <i name="e_fr_energy">    -94.68990418 </i>
    <i name="e_wo_entrp">    -94.68886359 </i>
    <i name="e_0_energy">    -94.68964403 </i>
   </energy>
  </scstep>
  <structure>
   <crystal>
    <varray name="basis" >
     <v>       3.90140728      -6.75743561       0.00000000 </v>
     <v>       3.90140727       6.75743562       0.00000000 </v>
     <v>       0.00000000       0.00000000       2.74448460 </v>
    </varray>
    <i name="volume">    144.70848567 </i>
    <varray name="rec_basis" >
     <v>       0.12815888      -0.07399257       0.00000000 </v>
     <v>       0.12815888       0.07399257       0.00000000 </v>
     <v>       0.00000000       0.00000000       0.36436714 </v>
    </varray>
   </crystal>
   <varray name="positions" >
    <v>       0.19525185       0.83154114       0.75000000 </v>
    <v>       0.36371071       0.19525185       0.25000000 </v>
    <v>       0.83154114       0.63628929       0.25000000 </v>
    <v>       0.16845886       0.36371071       0.75000000 </v>
    <v>       0.63628929       0.80474815       0.75000000 </v>
    <v>       0.80474815       0.16845886       0.25000000 </v>
    <v>       0.33333333       0.66666667       0.75000000 </v>
    <v>       0.66666667       0.33333333       0.25000000 </v>
    <v>       0.96392789       0.61071610       0.75000000 </v>
    <v>       0.35321179       0.96392789       0.25000000 </v>
    <v>       0.61071610       0.64678821       0.25000000 </v>
    <v>       0.38928390       0.35321179       0.75000000 </v>
    <v>       0.03607211       0.38928390       0.25000000 </v>
    <v>       0.64678821       0.03607211       0.75000000 </v>
   </varray>
  </structure>
  <varray name="forces" >
   <v>       0.16638577      -0.10293964      -0.00000000 </v>
   <v>       0.17234123       0.09262448      -0.00000000 </v>
   <v>      -0.00595546      -0.19556413       0.00000000 </v>
   <v>       0.00595546       0.19556413       0.00000000 </v>
   <v>      -0.17234123      -0.09262448       0.00000000 </v>
   <v>      -0.16638577       0.10293964       0.00000000 </v>
   <v>      -0.00000000       0.00000000      -0.00000000 </v>
   <v>      -0.00000000       0.00000000      -0.00000000 </v>
   <v>      -0.03198321       0.36141038       0.00000000 </v>
   <v>      -0.32898218       0.15300692       0.00000000 </v>
   <v>       0.29699897       0.20840346       0.00000000 </v>
   <v>      -0.29699897      -0.20840346       0.00000000 </v>
   <v>       0.03198321      -0.36141038      -0.00000000 </v>
   <v>       0.32898218      -0.15300692      -0.00000000 </v>
  </varray>
  <varray name="stress" >
   <v>     144.27973971       0.00000006       0.00000000 </v>
   <v>      -0.00000006     144.27973971       0.00000000 </v>
   <v>      -0.00000000       0.00000000     119.78999433 </v>
  </varray>
  <energy>
   <i name="e_fr_energy">    -94.68990418 </i>
   <i name="e_wo_entrp">    -94.68964403 </i>
   <i name="e_0_energy">     -0.00104059 </i>
  </energy>
  <time name="totalsc">   19.25   23.23</time>
 </calculation>
 <calculation>
  <scstep>
   <time name="dav">    2.56    2.56</time>
   <time name="total">    2.74    2.74</time>
   <energy>
    <i name="alphaZ">     84.24197845 </i>
    <i name="ewald">  -2296.54621397 </i>
    <i name="hartreedc">   -592.00555552 </i>
    <i name="XCdc">     62.76212340 </i>
    <i name="pawpsdc">   8984.15682845 </i>
    <i name="pawaedc">  -8852.44392412 </i>
    <i name="eentropy">     -0.00133272 </i>
    <i name="bandstr">    103.76055951 </i>
    <i name="atom">   2411.37598431 </i>
    <i name="e_fr_energy">    -94.69955221 </i>
    <i name="e_wo_entrp">    -94.69821949 </i>
    <i name="e_0_energy">    -94.69921903 </i>
   </energy>
  </scstep>
  <scstep>
   <time name="diag">    0.40    0.40</time>
   <time name="diis">    1.58    1.58</time>
   <time name="orth">    0.04    0.04</time>
   <time name="total">    2.19    2.20</time>
   <energy>
    <i name="e_fr_energy">    -94.70034519 </i>
    <i name="e_wo_entrp">    -94.69901343 </i>
    <i name="e_0_energy">    -94.70001225 </i>
   </energy>
  </scstep>
  <scstep>
   <time name="diag">    0.40    0.40</time>
   <time name="diis">    1.60    1.60</time>
   <time name="orth">    0.04    0.04</time>
   <time name="total">    2.21    2.22</time>
   <energy>
    <i name="e_fr_energy">    -94.69998714 </i>
    <i name="e_wo_entrp">    -94.69867651 </i>
    <i name="e_0_energy">    -94.69965948 </i>
   </energy>
  </scstep>
  <scstep>
   <time name="diag">    0.40    0.40</time>
   <time name="diis">    1.14    1.15</time>
   <time name="orth">    0.04    0.04</time>
   <time name="total">    1.60    1.60</time>
   <energy>
    <i name="alphaZ">     84.24197845 </i>
    <i name="ewald">  -2296.54621397 </i>
    <i name="hartreedc">   -592.85272060 </i>
    <i name="XCdc">     62.80552069 </i>
    <i name="pawpsdc">   9020.97379150 </i>
    <i name="pawaedc">  -8889.27656656 </i>
    <i name="eentropy">     -0.00130664 </i>
    <i name="bandstr">    104.57958670 </i>
    <i name="atom">   2411.37598431 </i>
    <i name="e_fr_energy">    -94.69994611 </i>
    <i name="e_wo_entrp">    -94.69863948 </i>
    <i name="e_0_energy">    -94.69961945 </i>
   </energy>
  </scstep>
  <structure>
   <crystal>
    <varray name="basis" >
     <v>       3.90140728      -6.75743561       0.00000000 </v>
     <v>       3.90140727       6.75743562       0.00000000 </v>
     <v>       0.00000000       0.00000000       2.74448460 </v>
    </varray>
    <i name="volume">    144.70848567 </i>
    <varray name="rec_basis" >
     <v>       0.12815888      -0.07399257       0.00000000 </v>
     <v>       0.12815888       0.07399257       0.00000000 </v>
     <v>       0.00000000       0.00000000       0.36436714 </v>
    </varray>
   </crystal>
   <varray name="positions" >
    <v>       0.19607740       0.83153061       0.75000000 </v>
    <v>       0.36454679       0.19607740       0.25000000 </v>
    <v>       0.83153061       0.63545321       0.25000000 </v>
    <v>       0.16846939       0.36454679       0.75000000 </v>
    <v>       0.63545321       0.80392260       0.75000000 </v>
    <v>       0.80392260       0.16846939       0.25000000 </v>
    <v>       0.33333333       0.66666667       0.75000000 </v>
    <v>       0.66666667       0.33333333       0.25000000 </v>
    <v>       0.96377500       0.61150105       0.75000000 </v>
    <v>       0.35227395       0.96377500       0.25000000 </v>
    <v>       0.61150105       0.64772605       0.25000000 </v>
    <v>       0.38849895       0.35227395       0.75000000 </v>
    <v>       0.03622500       0.38849895       0.25000000 </v>
    <v>       0.64772605       0.03622500       0.75000000 </v>
   </varray>
  </structure>
  <varray name="forces" >
   <v>       0.02975534       0.05274309       0.00000000 </v>
   <v>      -0.03079919       0.05214042      -0.00000000 </v>
   <v>       0.06055452       0.00060267      -0.00000000 </v>
   <v>      -0.06055452      -0.00060267      -0.00000000 </v>
   <v>       0.03079919      -0.05214042      -0.00000000 </v>
   <v>      -0.02975534      -0.05274309      -0.00000000 </v>
   <v>       0.00000000      -0.00000000       0.00000000 </v>
   <v>       0.00000000      -0.00000000      -0.00000000 </v>
   <v>      -0.07391563       0.06568987       0.00000000 </v>
   <v>      -0.09384691      -0.03116788      -0.00000000 </v>
   <v>       0.01993128       0.09685775       0.00000000 </v>
   <v>      -0.01993128      -0.09685775      -0.00000000 </v>
   <v>       0.07391563      -0.06568987      -0.00000000 </v>
   <v>       0.09384691       0.03116788       0.00000000 </v>
  </varray>
  <varray name="stress" >
   <v>     149.08876962      -0.00000012       0.00000000 </v>
   <v>       0.00000012     149.08876962       0.00000000 </v>
   <v>      -0.00000000       0.00000000     123.48664914 </v>
  </varray>
  <energy>
   <i name="e_fr_energy">    -94.69994611 </i>
   <i name="e_wo_entrp">    -94.69961945 </i>
   <i name="e_0_energy">     -0.00130664 </i>
  </energy>
  <time name="totalsc">   16.85   16.86</time>
 </calculation>
 <calculation>
  <scstep>
   <time name="dav">    2.57    2.57</time>
   <time name="total">    2.75    2.75</time>
   <energy>
    <i name="alphaZ">     84.24197845 </i>
    <i name="ewald">  -2298.03092587 </i>
    <i name="hartreedc">   -591.59659732 </i>
    <i name="XCdc">     62.78603702 </i>
    <i name="pawpsdc">   9030.50144543 </i>
    <i name="pawaedc">  -8898.80527972 </i>
    <i name="eentropy">     -0.00133068 </i>
    <i name="bandstr">    104.82736846 </i>
    <i name="atom">   2411.37598431 </i>
    <i name="e_fr_energy">    -94.70131991 </i>
    <i name="e_wo_entrp">    -94.69998923 </i>
    <i name="e_0_energy">    -94.70098724 </i>
   </energy>
  </scstep>
  <scstep>
   <time name="diag">    0.40    0.40</time>
   <time name="diis">    1.58    1.58</time>
   <time name="orth">    0.04    0.04</time>
   <time name="total">    2.19    2.19</time>
   <energy>
    <i name="e_fr_energy">    -94.70170719 </i>
    <i name="e_wo_entrp">    -94.70037977 </i>
    <i name="e_0_energy">    -94.70137533 </i>
   </energy>
  </scstep>
  <scstep>
   <time name="diag">    0.40    0.40</time>
   <time name="diis">    1.19    1.19</time>
   <time name="orth">    0.04    0.04</time>
   <time name="total">    1.64    1.65</time>
   <energy>
    <i name="alphaZ">     84.24197845 </i>
    <i name="ewald">  -2298.03092587 </i>
    <i name="hartreedc">   -591.48163569 </i>
    <i name="XCdc">     62.78090669 </i>
    <i name="pawpsdc">   9029.32305441 </i>
    <i name="pawaedc">  -8897.62522277 </i>
    <i name="eentropy">     -0.00132875 </i>
    <i name="bandstr">    104.71555933 </i>
    <i name="atom">   2411.37598431 </i>
    <i name="e_fr_energy">    -94.70162988 </i>
    <i name="e_wo_entrp">    -94.70030113 </i>
    <i name="e_0_energy">    -94.70129769 </i>
   </energy>
  </scstep>
  <structure>
   <crystal>
    <varray name="basis" >
     <v>       3.90140728      -6.75743561       0.00000000 </v>
     <v>       3.90140727       6.75743562       0.00000000 </v>
     <v>       0.00000000       0.00000000       2.74448460 </v>
    </varray>
    <i name="volume">    144.70848567 </i>
    <varray name="rec_basis" >
     <v>       0.12815888      -0.07399257       0.00000000 </v>
     <v>       0.12815888       0.07399257       0.00000000 </v>
     <v>       0.00000000       0.00000000       0.36436714 </v>
    </varray>
   </crystal>
   <varray name="positions" >
    <v>       0.19594124       0.83187110       0.75000000 </v>
    <v>       0.36407014       0.19594124       0.25000000 </v>
    <v>       0.83187110       0.63592986       0.25000000 </v>
    <v>       0.16812890       0.36407014       0.75000000 </v>
    <v>       0.63592986       0.80405876       0.75000000 </v>
    <v>       0.80405876       0.16812890       0.25000000 </v>
    <v>       0.33333333       0.66666667       0.75000000 </v>
    <v>       0.66666667       0.33333333       0.25000000 </v>
    <v>       0.96317013       0.61117278       0.75000000 </v>
    <v>       0.35199735       0.96317013       0.25000000 </v>
    <v>       0.61117278       0.64800265       0.25000000 </v>
    <v>       0.38882722       0.35199735       0.75000000 </v>
    <v>       0.03682987       0.38882722       0.25000000 </v>
    <v>       0.64800265       0.03682987       0.75000000 </v>
   </varray>
  </structure>
  <varray name="forces" >
   <v>      -0.06114322       0.03179153       0.00000000 </v>
   <v>      -0.05810388      -0.03705581      -0.00000000 </v>
   <v>      -0.00303934       0.06884734      -0.00000000 </v>
   <v>       0.00303934      -0.06884734      -0.00000000 </v>
   <v>       0.05810388       0.03705581       0.00000000 </v>
   <v>       0.06114322      -0.03179153       0.00000000 </v>
   <v>       0.00000000       0.00000000      -0.00000000 </v>
   <v>      -0.00000000       0.00000000      -0.00000000 </v>
   <v>       0.03850930       0.04154580       0.00000000 </v>
   <v>      -0.01672506       0.05412293      -0.00000000 </v>
   <v>       0.05523437      -0.01257713       0.00000000 </v>
   <v>      -0.05523437       0.01257713      -0.00000000 </v>
   <v>      -0.03850930      -0.04154580      -0.00000000 </v>
   <v>       0.01672506      -0.05412293      -0.00000000 </v>
  </varray>
  <varray name="stress" >
   <v>     146.04695461      -0.00000025       0.00000000 </v>
   <v>       0.00000025     146.04695461       0.00000000 </v>
   <v>       0.00000000       0.00000000     126.00779649 </v>
  </varray>
  <energy>
   <i name="e_fr_energy">    -94.70162988 </i>
   <i name="e_wo_entrp">    -94.70129769 </i>
   <i name="e_0_energy">     -0.00132875 </i>
  </energy>
  <time name="totalsc">   10.97   10.97</time>
 </calculation>
 <calculation>
  <scstep>
   <time name="dav">    2.34    2.34</time>
   <time name="total">    2.51    2.52</time>
   <energy>
    <i name="alphaZ">     84.24197845 </i>
    <i name="ewald">  -2298.00886926 </i>
    <i name="hartreedc">   -591.46596988 </i>
    <i name="XCdc">     62.77967372 </i>
    <i name="pawpsdc">   9027.29377165 </i>
    <i name="pawaedc">  -8895.59487259 </i>
    <i name="eentropy">     -0.00133356 </i>
    <i name="bandstr">    104.67801827 </i>
    <i name="atom">   2411.37598431 </i>
    <i name="e_fr_energy">    -94.70161889 </i>
    <i name="e_wo_entrp">    -94.70028533 </i>
    <i name="e_0_energy">    -94.70128550 </i>
   </energy>
  </scstep>
  <scstep>
   <time name="diag">    0.40    0.40</time>
   <time name="diis">    1.01    1.01</time>
   <time name="orth">    0.04    0.04</time>
   <time name="total">    1.46    1.47</time>
   <energy>
    <i name="alphaZ">     84.24197845 </i>
    <i name="ewald">  -2298.00886926 </i>
    <i name="hartreedc">   -591.47203228 </i>
    <i name="XCdc">     62.78002773 </i>
    <i name="pawpsdc">   9027.00704712 </i>
    <i name="pawaedc">  -8895.30810938 </i>
    <i name="eentropy">     -0.00133387 </i>
    <i name="bandstr">    104.68368659 </i>
    <i name="atom">   2411.37598431 </i>
    <i name="e_fr_energy">    -94.70162059 </i>
    <i name="e_wo_entrp">    -94.70028671 </i>
    <i name="e_0_energy">    -94.70128712 </i>
   </energy>
  </scstep>
  <structure>
   <crystal>
    <varray name="basis" >
     <v>       3.90140728      -6.75743561       0.00000000 </v>
     <v>       3.90140727       6.75743562       0.00000000 </v>
     <v>       0.00000000       0.00000000       2.74448460 </v>
    </varray>
    <i name="volume">    144.70848567 </i>
    <varray name="rec_basis" >
     <v>       0.12815888      -0.07399257       0.00000000 </v>
     <v>       0.12815888       0.07399257       0.00000000 </v>
     <v>       0.00000000       0.00000000       0.36436714 </v>
    </varray>
   </crystal>
   <varray name="positions" >
    <v>       0.19594327       0.83186601       0.75000000 </v>
    <v>       0.36407727       0.19594327       0.25000000 </v>
    <v>       0.83186601       0.63592273       0.25000000 </v>
    <v>       0.16813399       0.36407727       0.75000000 </v>
    <v>       0.63592273       0.80405673       0.75000000 </v>
    <v>       0.80405673       0.16813399       0.25000000 </v>
    <v>       0.33333333       0.66666667       0.75000000 </v>
    <v>       0.66666667       0.33333333       0.25000000 </v>
    <v>       0.96317917       0.61117769       0.75000000 </v>
    <v>       0.35200148       0.96317917       0.25000000 </v>
    <v>       0.61117769       0.64799852       0.25000000 </v>
    <v>       0.38882231       0.35200148       0.75000000 </v>
    <v>       0.03682083       0.38882231       0.25000000 </v>
    <v>       0.64799852       0.03682083       0.75000000 </v>
   </varray>
  </structure>
  <varray name="forces" >
   <v>      -0.06438919       0.02498757      -0.00000000 </v>
   <v>      -0.05383447      -0.04326889       0.00000000 </v>
   <v>      -0.01055472       0.06825646       0.00000000 </v>
   <v>       0.01055472      -0.06825646       0.00000000 </v>
   <v>       0.05383447       0.04326889       0.00000000 </v>
   <v>       0.06438919      -0.02498757       0.00000000 </v>
   <v>       0.00000000      -0.00000000       0.00000000 </v>
   <v>       0.00000000      -0.00000000       0.00000000 </v>
   <v>       0.03715265       0.04186507      -0.00000000 </v>
   <v>      -0.01767989       0.05310767      -0.00000000 </v>
   <v>       0.05483254      -0.01124261       0.00000000 </v>
   <v>      -0.05483254       0.01124261      -0.00000000 </v>
   <v>      -0.03715265      -0.04186507       0.00000000 </v>
   <v>       0.01767989      -0.05310767      -0.00000000 </v>
  </varray>
  <varray name="stress" >
   <v>     146.12883355      -0.00000007       0.00000000 </v>
   <v>       0.00000007     146.12883355       0.00000000 </v>
   <v>      -0.00000000       0.00000000     126.65439052 </v>
  </varray>
  <energy>
   <i name="e_fr_energy">    -94.70162059 </i>
   <i name="e_wo_entrp">    -94.70128712 </i>
   <i name="e_0_energy">     -0.00133387 </i>
  </energy>
  <time name="totalsc">    8.37    8.37</time>
 </calculation>
 <calculation>
  <scstep>
   <time name="dav">    2.42    2.42</time>
   <time name="total">    2.60    2.60</time>
   <energy>
    <i name="alphaZ">     84.24197845 </i>
    <i name="ewald">  -2299.54549251 </i>
    <i name="hartreedc">   -590.00203954 </i>
    <i name="XCdc">     62.76156778 </i>
    <i name="pawpsdc">   9026.68910735 </i>
    <i name="pawaedc">  -8894.99010940 </i>
    <i name="eentropy">     -0.00128350 </i>
    <i name="bandstr">    104.76787159 </i>
    <i name="atom">   2411.37598431 </i>
    <i name="e_fr_energy">    -94.70241547 </i>
    <i name="e_wo_entrp">    -94.70113197 </i>
    <i name="e_0_energy">    -94.70209460 </i>
   </energy>
  </scstep>
  <scstep>
   <time name="diag">    0.40    0.40</time>
   <time name="diis">    1.58    1.58</time>
   <time name="orth">    0.04    0.04</time>
   <time name="total">    2.19    2.19</time>
   <energy>
    <i name="e_fr_energy">    -94.70297086 </i>
    <i name="e_wo_entrp">    -94.70169260 </i>
    <i name="e_0_energy">    -94.70265129 </i>
   </energy>
  </scstep>
  <scstep>
   <time name="diag">    0.40    0.40</time>
   <time name="diis">    1.19    1.19</time>
   <time name="orth">    0.04    0.04</time>
   <time name="total">    1.65    1.65</time>
   <energy>
    <i name="alphaZ">     84.24197845 </i>
    <i name="ewald">  -2299.54549251 </i>
    <i name="hartreedc">   -590.02646571 </i>
    <i name="XCdc">     62.76459010 </i>
    <i name="pawpsdc">   9019.93399731 </i>
    <i name="pawaedc">  -8888.23529208 </i>
    <i name="eentropy">     -0.00127801 </i>
    <i name="bandstr">    104.78906323 </i>
    <i name="atom">   2411.37598431 </i>
    <i name="e_fr_energy">    -94.70291492 </i>
    <i name="e_wo_entrp">    -94.70163691 </i>
    <i name="e_0_energy">    -94.70259541 </i>
   </energy>
  </scstep>
  <structure>
   <crystal>
    <varray name="basis" >
     <v>       3.90140728      -6.75743561       0.00000000 </v>
     <v>       3.90140727       6.75743562       0.00000000 </v>
     <v>       0.00000000       0.00000000       2.74448460 </v>
    </varray>
    <i name="volume">    144.70848567 </i>
    <varray name="rec_basis" >
     <v>       0.12815888      -0.07399257       0.00000000 </v>
     <v>       0.12815888       0.07399257       0.00000000 </v>
     <v>       0.00000000       0.00000000       0.36436714 </v>
    </varray>
   </crystal>
   <varray name="positions" >
    <v>       0.19541529       0.83180023       0.75000000 </v>
    <v>       0.36361506       0.19541529       0.25000000 </v>
    <v>       0.83180023       0.63638494       0.25000000 </v>
    <v>       0.16819977       0.36361506       0.75000000 </v>
    <v>       0.63638494       0.80458471       0.75000000 </v>
    <v>       0.80458471       0.16819977       0.25000000 </v>
    <v>       0.33333333       0.66666667       0.75000000 </v>
    <v>       0.66666667       0.33333333       0.25000000 </v>
    <v>       0.96287088       0.61131490       0.75000000 </v>
    <v>       0.35155598       0.96287088       0.25000000 </v>
    <v>       0.61131490       0.64844402       0.25000000 </v>
    <v>       0.38868510       0.35155598       0.75000000 </v>
    <v>       0.03712912       0.38868510       0.25000000 </v>
    <v>       0.64844402       0.03712912       0.75000000 </v>
   </varray>
  </structure>
  <varray name="forces" >
   <v>      -0.03237010       0.01154251      -0.00000000 </v>
   <v>      -0.02618115      -0.02226208       0.00000000 </v>
   <v>      -0.00618895       0.03380458       0.00000000 </v>
   <v>       0.00618895      -0.03380458      -0.00000000 </v>
   <v>       0.02618115       0.02226208       0.00000000 </v>
   <v>       0.03237010      -0.01154251       0.00000000 </v>
   <v>       0.00000000       0.00000000       0.00000000 </v>
   <v>       0.00000000       0.00000000      -0.00000000 </v>
   <v>       0.02355265       0.00803798      -0.00000000 </v>
   <v>       0.00481523       0.02441619       0.00000000 </v>
   <v>       0.01873742      -0.01637820      -0.00000000 </v>
   <v>      -0.01873742       0.01637820       0.00000000 </v>
   <v>      -0.02355265      -0.00803798       0.00000000 </v>
   <v>      -0.00481523      -0.02441619      -0.00000000 </v>
  </varray>
  <varray name="stress" >
   <v>     145.45503130      -0.00000017       0.00000000 </v>
   <v>       0.00000017     145.45503130      -0.00000000 </v>
   <v>      -0.00000000       0.00000000     126.87872380 </v>
  </varray>
  <energy>
   <i name="e_fr_energy">    -94.70291492 </i>
   <i name="e_wo_entrp">    -94.70259541 </i>
   <i name="e_0_energy">     -0.00127801 </i>
  </energy>
  <time name="totalsc">   10.83   10.84</time>
 </calculation>
 <calculation>
  <scstep>
   <time name="dav">    2.49    2.49</time>
   <time name="total">    3.19    3.20</time>
   <energy>
    <i name="alphaZ">     84.24197845 </i>
    <i name="ewald">  -2300.41143885 </i>
    <i name="hartreedc">   -589.19736760 </i>
    <i name="XCdc">     62.75480484 </i>
    <i name="pawpsdc">   9022.29900346 </i>
    <i name="pawaedc">  -8890.59965200 </i>
    <i name="eentropy">     -0.00124445 </i>
    <i name="bandstr">    104.83507274 </i>
    <i name="atom">   2411.37598431 </i>
    <i name="e_fr_energy">    -94.70285910 </i>
    <i name="e_wo_entrp">    -94.70161465 </i>
    <i name="e_0_energy">    -94.70254799 </i>
   </energy>
  </scstep>
  <scstep>
   <time name="diag">    0.40    0.40</time>
   <time name="diis">    1.60    1.60</time>
   <time name="orth">    0.04    0.04</time>
   <time name="total">    2.21    2.22</time>
   <energy>
    <i name="e_fr_energy">    -94.70303117 </i>
    <i name="e_wo_entrp">    -94.70178724 </i>
    <i name="e_0_energy">    -94.70272019 </i>
   </energy>
  </scstep>
  <scstep>
   <time name="diag">    0.40    0.40</time>
   <time name="diis">    1.07    1.07</time>
   <time name="orth">    0.04    0.04</time>
   <time name="total">    1.53    1.53</time>
   <energy>
    <i name="alphaZ">     84.24197845 </i>
    <i name="ewald">  -2300.41143885 </i>
    <i name="hartreedc">   -589.20990411 </i>
    <i name="XCdc">     62.75627018 </i>
    <i name="pawpsdc">   9019.73292137 </i>
    <i name="pawaedc">  -8888.03362340 </i>
    <i name="eentropy">     -0.00124493 </i>
    <i name="bandstr">    104.84604261 </i>
    <i name="atom">   2411.37598431 </i>
    <i name="e_fr_energy">    -94.70301437 </i>
    <i name="e_wo_entrp">    -94.70176944 </i>
    <i name="e_0_energy">    -94.70270314 </i>
   </energy>
  </scstep>
  <structure>
   <crystal>
    <varray name="basis" >
     <v>       3.90140728      -6.75743561       0.00000000 </v>
     <v>       3.90140727       6.75743562       0.00000000 </v>
     <v>       0.00000000       0.00000000       2.74448460 </v>
    </varray>
    <i name="volume">    144.70848567 </i>
    <varray name="rec_basis" >
     <v>       0.12815888      -0.07399257       0.00000000 </v>
     <v>       0.12815888       0.07399257       0.00000000 </v>
     <v>       0.00000000       0.00000000       0.36436714 </v>
    </varray>
   </crystal>
   <varray name="positions" >
    <v>       0.19511325       0.83176260       0.75000000 </v>
    <v>       0.36335065       0.19511325       0.25000000 </v>
    <v>       0.83176260       0.63664935       0.25000000 </v>
    <v>       0.16823740       0.36335065       0.75000000 </v>
    <v>       0.63664935       0.80488675       0.75000000 </v>
    <v>       0.80488675       0.16823740       0.25000000 </v>
    <v>       0.33333333       0.66666667       0.75000000 </v>
    <v>       0.66666667       0.33333333       0.25000000 </v>
    <v>       0.96269453       0.61139340       0.75000000 </v>
    <v>       0.35130113       0.96269453       0.25000000 </v>
    <v>       0.61139340       0.64869887       0.25000000 </v>
    <v>       0.38860660       0.35130113       0.75000000 </v>
    <v>       0.03730547       0.38860660       0.25000000 </v>
    <v>       0.64869887       0.03730547       0.75000000 </v>
   </varray>
  </structure>
  <varray name="forces" >
   <v>      -0.01089739      -0.00319729      -0.00000000 </v>
   <v>      -0.00267976      -0.01103607       0.00000000 </v>
   <v>      -0.00821764       0.00783877       0.00000000 </v>
   <v>       0.00821764      -0.00783877       0.00000000 </v>
   <v>       0.00267976       0.01103607       0.00000000 </v>
   <v>       0.01089739       0.00319729       0.00000000 </v>
   <v>       0.00000000       0.00000000      -0.00000000 </v>
   <v>       0.00000000       0.00000000      -0.00000000 </v>
   <v>       0.01243013      -0.00968970      -0.00000000 </v>
   <v>       0.01460659       0.00591996      -0.00000000 </v>
   <v>      -0.00217646      -0.01560966      -0.00000000 </v>
   <v>       0.00217646       0.01560966       0.00000000 </v>
   <v>      -0.01243013       0.00968970      -0.00000000 </v>
   <v>      -0.01460659      -0.00591996       0.00000000 </v>
  </varray>
  <varray name="stress" >
   <v>     145.17477955      -0.00000017       0.00000000 </v>
   <v>       0.00000017     145.17477955       0.00000000 </v>
   <v>      -0.00000000      -0.00000000     126.74265729 </v>
  </varray>
  <energy>
   <i name="e_fr_energy">    -94.70301437 </i>
   <i name="e_wo_entrp">    -94.70270314 </i>
   <i name="e_0_energy">     -0.00124493 </i>
  </energy>
  <time name="totalsc">   11.00   11.02</time>
  <eigenvalues>
   <array>
    <dimension dim="1">band</dimension>
    <dimension dim="2">kpoint</dimension>
    <dimension dim="3">spin</dimension>
    <field>eigene</field>
    <field>occ</field>
    <set>
     <set comment="spin 1">
      <set comment="kpoint 1">
       <r>   -9.9364    1.0000 </r>
       <r>   -8.6876    1.0000 </r>
       <r>   -8.6876    1.0000 </r>
       <r>   -8.0351    1.0000 </r>
       <r>   -8.0351    1.0000 </r>
       <r>   -7.8769    1.0000 </r>
       <r>   -1.5831    1.0000 </r>
       <r>   -1.5831    1.0000 </r>
       <r>   -1.4404    1.0000 </r>
       <r>   -0.6799    1.0000 </r>
       <r>    0.6079    1.0000 </r>
       <r>    1.2418    1.0000 </r>
       <r>    1.2418    1.0000 </r>
       <r>    3.1442    1.0000 </r>
       <r>    3.1442    1.0000 </r>
       <r>    4.2158    1.0000 </r>
       <r>    4.4163    1.0000 </r>
       <r>    4.4163    1.0000 </r>
       <r>    4.9385    1.0000 </r>
       <r>    5.1966    1.0000 </r>
       <r>    5.7557    1.0000 </r>
       <r>    5.7557    1.0000 </r>
       <r>    6.2858    1.0000 </r>
       <r>    6.2858    1.0000 </r>
       <r>    6.4713    1.0000 </r>
       <r>    7.5744    1.0000 </r>
       <r>    7.6301    1.0000 </r>
       <r>    7.6301    1.0000 </r>
       <r>    9.6279    1.0000 </r>
       <r>    9.8377    1.0000 </r>
       <r>    9.8377    1.0000 </r>
       <r>   14.0631    0.0000 </r>
       <r>   14.2458    0.0000 </r>
       <r>   14.2458    0.0000 </r>
       <r>   14.5690    0.0000 </r>
       <r>   14.5690    0.0000 </r>
       <r>   15.4570    0.0000 </r>
       <r>   15.6819    0.0000 </r>
       <r>   15.9885    0.0000 </r>
       <r>   15.9946    0.0000 </r>
      </set>
      <set comment="kpoint 2">
       <r>   -9.8956    1.0000 </r>
       <r>   -8.7809    1.0000 </r>
       <r>   -8.7283    1.0000 </r>
       <r>   -8.2000    1.0000 </r>
       <r>   -7.9728    1.0000 </r>
       <r>   -7.6463    1.0000 </r>
       <r>   -1.8705    1.0000 </r>
       <r>   -1.5746    1.0000 </r>
       <r>   -1.3778    1.0000 </r>
       <r>   -0.3922    1.0000 </r>
       <r>    0.4734    1.0000 </r>
       <r>    1.1316    1.0000 </r>
       <r>    1.3608    1.0000 </r>
       <r>    3.0535    1.0000 </r>
       <r>    3.2045    1.0000 </r>
       <r>    4.1418    1.0000 </r>
       <r>    4.3002    1.0000 </r>
       <r>    4.5661    1.0000 </r>
       <r>    5.2089    1.0000 </r>
       <r>    5.2168    1.0000 </r>
       <r>    5.7235    1.0000 </r>
       <r>    5.7459    1.0000 </r>
       <r>    6.2395    1.0000 </r>
       <r>    6.2970    1.0000 </r>
       <r>    6.5232    1.0000 </r>
       <r>    7.3910    1.0000 </r>
       <r>    7.4351    1.0000 </r>
       <r>    7.6934    1.0000 </r>
       <r>    9.5695    1.0000 </r>
       <r>   10.0028    1.0000 </r>
       <r>   10.0523    1.0000 </r>
       <r>   13.7369    0.0000 </r>
       <r>   14.0863    0.0000 </r>
       <r>   14.2128    0.0000 </r>
       <r>   14.5052    0.0000 </r>
       <r>   14.6548    0.0000 </r>
       <r>   15.4838    0.0000 </r>
       <r>   15.6842    0.0000 </r>
       <r>   15.7159    0.0000 </r>
       <r>   15.9409    0.0000 </r>
      </set>
      <set comment="kpoint 3">
       <r>   -9.7754    1.0000 </r>
       <r>   -9.0256    1.0000 </r>
       <r>   -8.8019    1.0000 </r>
       <r>   -8.2983    1.0000 </r>
       <r>   -7.8483    1.0000 </r>
       <r>   -7.3938    1.0000 </r>
       <r>   -2.2692    1.0000 </r>
       <r>   -1.5538    1.0000 </r>
       <r>   -1.2007    1.0000 </r>
       <r>   -0.1120    1.0000 </r>
       <r>    0.2427    1.0000 </r>
       <r>    0.9028    1.0000 </r>
       <r>    1.7490    1.0000 </r>
       <r>    2.8775    1.0000 </r>
       <r>    3.1882    1.0000 </r>
       <r>    3.9832    1.0000 </r>
       <r>    4.3166    1.0000 </r>
       <r>    4.8201    1.0000 </r>
       <r>    5.2817    1.0000 </r>
       <r>    5.6353    1.0000 </r>
       <r>    5.6365    1.0000 </r>
       <r>    5.7277    1.0000 </r>
       <r>    6.1853    1.0000 </r>
       <r>    6.3237    1.0000 </r>
       <r>    6.6014    1.0000 </r>
       <r>    6.9144    1.0000 </r>
       <r>    7.0832    1.0000 </r>
       <r>    8.0117    1.0000 </r>
       <r>    9.3917    1.0000 </r>
       <r>   10.3002    1.0000 </r>
       <r>   10.5280    0.9976 </r>
       <r>   12.8626    0.0000 </r>
       <r>   13.8279    0.0000 </r>
       <r>   14.2253    0.0000 </r>
       <r>   14.5007    0.0000 </r>
       <r>   14.8055    0.0000 </r>
       <r>   15.3545    0.0000 </r>
       <r>   15.5597    0.0000 </r>
       <r>   15.6074    0.0000 </r>
       <r>   15.8158    0.0000 </r>
      </set>
      <set comment="kpoint 4">
       <r>   -9.5880    1.0000 </r>
       <r>   -9.3046    1.0000 </r>
       <r>   -8.8500    1.0000 </r>
       <r>   -8.3284    1.0000 </r>
       <r>   -7.7572    1.0000 </r>
       <r>   -7.2487    1.0000 </r>
       <r>   -2.5046    1.0000 </r>
       <r>   -1.5359    1.0000 </r>
       <r>   -0.9706    1.0000 </r>
       <r>   -0.3085    1.0000 </r>
       <r>    0.2898    1.0000 </r>
       <r>    0.7319    1.0000 </r>
       <r>    2.3478    1.0000 </r>
       <r>    2.7548    1.0000 </r>
       <r>    2.9408    1.0000 </r>
       <r>    3.6356    1.0000 </r>
       <r>    4.6450    1.0000 </r>
       <r>    5.0098    1.0000 </r>
       <r>    5.3744    1.0000 </r>
       <r>    5.5223    1.0000 </r>
       <r>    5.7121    1.0000 </r>
       <r>    5.8391    1.0000 </r>
       <r>    6.1595    1.0000 </r>
       <r>    6.3470    1.0000 </r>
       <r>    6.5126    1.0000 </r>
       <r>    6.6486    1.0000 </r>
       <r>    6.9060    1.0000 </r>
       <r>    8.4002    1.0000 </r>
       <r>    9.1287    1.0000 </r>
       <r>   10.4786    0.9996 </r>
       <r>   11.1340    0.0000 </r>
       <r>   11.9528    0.0000 </r>
       <r>   13.6562    0.0000 </r>
       <r>   14.2473    0.0000 </r>
       <r>   14.6021    0.0000 </r>
       <r>   14.8292    0.0000 </r>
       <r>   15.2156    0.0000 </r>
       <r>   15.4805    0.0000 </r>
       <r>   15.5916    0.0000 </r>
       <r>   15.6475    0.0000 </r>
      </set>
      <set comment="kpoint 5">
       <r>   -9.8150    1.0000 </r>
       <r>   -8.8900    1.0000 </r>
       <r>   -8.8652    1.0000 </r>
       <r>   -8.2404    1.0000 </r>
       <r>   -7.9074    1.0000 </r>
       <r>   -7.4477    1.0000 </r>
       <r>   -2.1865    1.0000 </r>
       <r>   -1.5299    1.0000 </r>
       <r>   -1.2547    1.0000 </r>
       <r>   -0.1939    1.0000 </r>
       <r>    0.2685    1.0000 </r>
       <r>    1.0799    1.0000 </r>
       <r>    1.5495    1.0000 </r>
       <r>    2.8577    1.0000 </r>
       <r>    3.3449    1.0000 </r>
       <r>    4.0204    1.0000 </r>
       <r>    4.1948    1.0000 </r>
       <r>    4.7978    1.0000 </r>
       <r>    5.2606    1.0000 </r>
       <r>    5.5274    1.0000 </r>
       <r>    5.6755    1.0000 </r>
       <r>    5.7194    1.0000 </r>
       <r>    6.2062    1.0000 </r>
       <r>    6.3107    1.0000 </r>
       <r>    6.5839    1.0000 </r>
       <r>    7.0456    1.0000 </r>
       <r>    7.1795    1.0000 </r>
       <r>    7.9082    1.0000 </r>
       <r>    9.4553    1.0000 </r>
       <r>   10.2492    1.0000 </r>
       <r>   10.3607    1.0000 </r>
       <r>   13.1914    0.0000 </r>
       <r>   13.6847    0.0000 </r>
       <r>   14.3044    0.0000 </r>
       <r>   14.4595    0.0000 </r>
       <r>   14.8174    0.0000 </r>
       <r>   15.5272    0.0000 </r>
       <r>   15.5360    0.0000 </r>
       <r>   15.6176    0.0000 </r>
       <r>   15.8458    0.0000 </r>
      </set>
      <set comment="kpoint 6">
       <r>   -9.6591    1.0000 </r>
       <r>   -9.1468    1.0000 </r>
       <r>   -8.9574    1.0000 </r>
       <r>   -8.2243    1.0000 </r>
       <r>   -7.8361    1.0000 </r>
       <r>   -7.2685    1.0000 </r>
       <r>   -2.4812    1.0000 </r>
       <r>   -1.4407    1.0000 </r>
       <r>   -1.0320    1.0000 </r>
       <r>   -0.2993    1.0000 </r>
       <r>    0.0115    1.0000 </r>
       <r>    1.1755    1.0000 </r>
       <r>    1.9580    1.0000 </r>
       <r>    2.6309    1.0000 </r>
       <r>    3.3566    1.0000 </r>
       <r>    3.7409    1.0000 </r>
       <r>    4.2933    1.0000 </r>
       <r>    5.0490    1.0000 </r>
       <r>    5.3402    1.0000 </r>
       <r>    5.5862    1.0000 </r>
       <r>    5.6827    1.0000 </r>
       <r>    5.7933    1.0000 </r>
       <r>    6.1887    1.0000 </r>
       <r>    6.3228    1.0000 </r>
       <r>    6.6404    1.0000 </r>
       <r>    6.7864    1.0000 </r>
       <r>    6.8219    1.0000 </r>
       <r>    8.2703    1.0000 </r>
       <r>    9.2311    1.0000 </r>
       <r>   10.5483    0.9961 </r>
       <r>   10.7863    0.3570 </r>
       <r>   12.3599    0.0000 </r>
       <r>   13.3302    0.0000 </r>
       <r>   14.3045    0.0000 </r>
       <r>   14.5516    0.0000 </r>
       <r>   15.0472    0.0000 </r>
       <r>   15.1936    0.0000 </r>
       <r>   15.5543    0.0000 </r>
       <r>   15.6261    0.0000 </r>
       <r>   15.7351    0.0000 </r>
      </set>
      <set comment="kpoint 7">
       <r>   -9.4821    1.0000 </r>
       <r>   -9.3715    1.0000 </r>
       <r>   -8.9859    1.0000 </r>
       <r>   -8.2156    1.0000 </r>
       <r>   -7.8026    1.0000 </r>
       <r>   -7.2012    1.0000 </r>
       <r>   -2.5927    1.0000 </r>
       <r>   -1.3865    1.0000 </r>
       <r>   -0.8622    1.0000 </r>
       <r>   -0.4590    1.0000 </r>
       <r>   -0.1230    1.0000 </r>
       <r>    1.2212    1.0000 </r>
       <r>    2.4050    1.0000 </r>
       <r>    2.4846    1.0000 </r>
       <r>    3.1158    1.0000 </r>
       <r>    3.6040    1.0000 </r>
       <r>    4.4668    1.0000 </r>
       <r>    5.1432    1.0000 </r>
       <r>    5.4159    1.0000 </r>
       <r>    5.5020    1.0000 </r>
       <r>    5.6692    1.0000 </r>
       <r>    5.8493    1.0000 </r>
       <r>    6.1858    1.0000 </r>
       <r>    6.3290    1.0000 </r>
       <r>    6.5302    1.0000 </r>
       <r>    6.6623    1.0000 </r>
       <r>    6.8473    1.0000 </r>
       <r>    8.5495    1.0000 </r>
       <r>    9.0224    1.0000 </r>
       <r>   10.6127    1.0047 </r>
       <r>   11.3376    0.0000 </r>
       <r>   11.6452    0.0000 </r>
       <r>   13.2513    0.0000 </r>
       <r>   14.2762    0.0000 </r>
       <r>   14.7320    0.0000 </r>
       <r>   14.8333    0.0000 </r>
       <r>   15.2952    0.0000 </r>
       <r>   15.4541    0.0000 </r>
       <r>   15.6699    0.0000 </r>
       <r>   15.7362    0.0000 </r>
      </set>
      <set comment="kpoint 8">
       <r>   -9.6592    1.0000 </r>
       <r>   -9.1468    1.0000 </r>
       <r>   -8.9573    1.0000 </r>
       <r>   -8.2242    1.0000 </r>
       <r>   -7.8362    1.0000 </r>
       <r>   -7.2685    1.0000 </r>
       <r>   -2.4813    1.0000 </r>
       <r>   -1.4379    1.0000 </r>
       <r>   -1.0391    1.0000 </r>
       <r>   -0.2854    1.0000 </r>
       <r>    0.0027    1.0000 </r>
       <r>    1.1714    1.0000 </r>
       <r>    1.9519    1.0000 </r>
       <r>    2.6621    1.0000 </r>
       <r>    3.3709    1.0000 </r>
       <r>    3.6560    1.0000 </r>
       <r>    4.3415    1.0000 </r>
       <r>    5.0720    1.0000 </r>
       <r>    5.3403    1.0000 </r>
       <r>    5.5863    1.0000 </r>
       <r>    5.6826    1.0000 </r>
       <r>    5.7836    1.0000 </r>
       <r>    6.1888    1.0000 </r>
       <r>    6.3231    1.0000 </r>
       <r>    6.6396    1.0000 </r>
       <r>    6.6456    1.0000 </r>
       <r>    6.9506    1.0000 </r>
       <r>    8.2755    1.0000 </r>
       <r>    9.2278    1.0000 </r>
       <r>   10.4933    0.9993 </r>
       <r>   10.8550   -0.0445 </r>
       <r>   12.3089    0.0000 </r>
       <r>   13.3873    0.0000 </r>
       <r>   14.3431    0.0000 </r>
       <r>   14.4970    0.0000 </r>
       <r>   14.9590    0.0000 </r>
       <r>   15.2842    0.0000 </r>
       <r>   15.5452    0.0000 </r>
       <r>   15.6203    0.0000 </r>
       <r>   15.7489    0.0000 </r>
      </set>
      <set comment="kpoint 9">
       <r>   -9.4763    1.0000 </r>
       <r>   -9.2466    1.0000 </r>
       <r>   -9.1773    1.0000 </r>
       <r>   -8.0727    1.0000 </r>
       <r>   -7.9029    1.0000 </r>
       <r>   -7.1755    1.0000 </r>
       <r>   -2.6437    1.0000 </r>
       <r>   -1.1592    1.0000 </r>
       <r>   -0.8081    1.0000 </r>
       <r>   -0.6337    1.0000 </r>
       <r>   -0.3807    1.0000 </r>
       <r>    1.7566    1.0000 </r>
       <r>    2.0528    1.0000 </r>
       <r>    2.3782    1.0000 </r>
       <r>    3.2644    1.0000 </r>
       <r>    3.7810    1.0000 </r>
       <r>    4.1583    1.0000 </r>
       <r>    5.1844    1.0000 </r>
       <r>    5.4198    1.0000 </r>
       <r>    5.5524    1.0000 </r>
       <r>    5.6010    1.0000 </r>
       <r>    5.8591    1.0000 </r>
       <r>    6.2314    1.0000 </r>
       <r>    6.2938    1.0000 </r>
       <r>    6.6654    1.0000 </r>
       <r>    6.6696    1.0000 </r>
       <r>    6.7539    1.0000 </r>
       <r>    8.6107    1.0000 </r>
       <r>    8.9832    1.0000 </r>
       <r>   10.7992    0.2326 </r>
       <r>   11.1423    0.0000 </r>
       <r>   11.7173    0.0000 </r>
       <r>   12.9591    0.0000 </r>
       <r>   14.2142    0.0000 </r>
       <r>   14.7415    0.0000 </r>
       <r>   14.9959    0.0000 </r>
       <r>   15.1250    0.0000 </r>
       <r>   15.6646    0.0000 </r>
       <r>   15.7218    0.0000 </r>
       <r>   15.7418    0.0000 </r>
      </set>
      <set comment="kpoint 10">
       <r>   -9.8812    1.0000 </r>
       <r>   -8.6397    1.0000 </r>
       <r>   -8.6397    1.0000 </r>
       <r>   -7.9902    1.0000 </r>
       <r>   -7.9902    1.0000 </r>
       <r>   -7.8368    1.0000 </r>
       <r>   -1.5378    1.0000 </r>
       <r>   -1.5378    1.0000 </r>
       <r>   -1.3773    1.0000 </r>
       <r>   -0.6234    1.0000 </r>
       <r>    0.6361    1.0000 </r>
       <r>    1.2758    1.0000 </r>
       <r>    1.2758    1.0000 </r>
       <r>    3.1936    1.0000 </r>
       <r>    3.1936    1.0000 </r>
       <r>    4.2273    1.0000 </r>
       <r>    4.4247    1.0000 </r>
       <r>    4.4247    1.0000 </r>
       <r>    4.9032    1.0000 </r>
       <r>    4.9239    1.0000 </r>
       <r>    5.4834    1.0000 </r>
       <r>    5.4834    1.0000 </r>
       <r>    6.0039    1.0000 </r>
       <r>    6.0039    1.0000 </r>
       <r>    6.1239    1.0000 </r>
       <r>    7.6475    1.0000 </r>
       <r>    7.6475    1.0000 </r>
       <r>    7.7623    1.0000 </r>
       <r>    9.5678    1.0000 </r>
       <r>    9.9489    1.0000 </r>
       <r>    9.9489    1.0000 </r>
       <r>   13.9545    0.0000 </r>
       <r>   14.2776    0.0000 </r>
       <r>   14.2776    0.0000 </r>
       <r>   14.3713    0.0000 </r>
       <r>   14.3713    0.0000 </r>
       <r>   15.0732    0.0000 </r>
       <r>   15.3675    0.0000 </r>
       <r>   15.4375    0.0000 </r>
       <r>   15.4375    0.0000 </r>
      </set>
      <set comment="kpoint 11">
       <r>   -9.8405    1.0000 </r>
       <r>   -8.7321    1.0000 </r>
       <r>   -8.6798    1.0000 </r>
       <r>   -8.1553    1.0000 </r>
       <r>   -7.9288    1.0000 </r>
       <r>   -7.6070    1.0000 </r>
       <r>   -1.8190    1.0000 </r>
       <r>   -1.5282    1.0000 </r>
       <r>   -1.3151    1.0000 </r>
       <r>   -0.3414    1.0000 </r>
       <r>    0.5066    1.0000 </r>
       <r>    1.1667    1.0000 </r>
       <r>    1.3931    1.0000 </r>
       <r>    3.1032    1.0000 </r>
       <r>    3.2421    1.0000 </r>
       <r>    4.1579    1.0000 </r>
       <r>    4.2893    1.0000 </r>
       <r>    4.5696    1.0000 </r>
       <r>    4.9351    1.0000 </r>
       <r>    5.1952    1.0000 </r>
       <r>    5.4533    1.0000 </r>
       <r>    5.4768    1.0000 </r>
       <r>    5.9320    1.0000 </r>
       <r>    6.0282    1.0000 </r>
       <r>    6.2279    1.0000 </r>
       <r>    7.4228    1.0000 </r>
       <r>    7.4693    1.0000 </r>
       <r>    7.8606    1.0000 </r>
       <r>    9.5179    1.0000 </r>
       <r>   10.0936    1.0000 </r>
       <r>   10.1410    1.0000 </r>
       <r>   13.7847    0.0000 </r>
       <r>   14.0540    0.0000 </r>
       <r>   14.1436    0.0000 </r>
       <r>   14.3553    0.0000 </r>
       <r>   14.4639    0.0000 </r>
[...]
       <r>   12.1450    0.0000 </r>
       <r>   13.5198    0.0000 </r>
       <r>   13.5198    0.0000 </r>
       <r>   14.1994    0.0000 </r>
       <r>   14.1994    0.0000 </r>
      </set>
      <set comment="kpoint 80">
       <r>   -7.2727    1.0000 </r>
       <r>   -7.2727    1.0000 </r>
       <r>   -6.7903    1.0000 </r>
       <r>   -6.7903    1.0000 </r>
       <r>   -6.7521    1.0000 </r>
       <r>   -6.7521    1.0000 </r>
       <r>   -1.0580    1.0000 </r>
       <r>   -1.0580    1.0000 </r>
       <r>   -0.1912    1.0000 </r>
       <r>   -0.1912    1.0000 </r>
       <r>    0.3490    1.0000 </r>
       <r>    0.3490    1.0000 </r>
       <r>    1.4984    1.0000 </r>
       <r>    1.4984    1.0000 </r>
       <r>    2.2342    1.0000 </r>
       <r>    2.2342    1.0000 </r>
       <r>    2.3686    1.0000 </r>
       <r>    2.3686    1.0000 </r>
       <r>    3.2144    1.0000 </r>
       <r>    3.2144    1.0000 </r>
       <r>    4.8414    1.0000 </r>
       <r>    4.8414    1.0000 </r>
       <r>    5.1182    1.0000 </r>
       <r>    5.1182    1.0000 </r>
       <r>    6.3172    1.0000 </r>
       <r>    6.3172    1.0000 </r>
       <r>    6.9327    1.0000 </r>
       <r>    6.9327    1.0000 </r>
       <r>    7.6817    1.0000 </r>
       <r>    7.6817    1.0000 </r>
       <r>    9.5022    1.0000 </r>
       <r>    9.5022    1.0000 </r>
       <r>   11.5734    0.0000 </r>
       <r>   11.5734    0.0000 </r>
       <r>   12.3185    0.0000 </r>
       <r>   12.3185    0.0000 </r>
       <r>   13.4203    0.0000 </r>
       <r>   13.4203    0.0000 </r>
       <r>   14.2291    0.0000 </r>
       <r>   14.2291    0.0000 </r>
      </set>
      <set comment="kpoint 81">
       <r>   -7.2626    1.0000 </r>
       <r>   -7.2626    1.0000 </r>
       <r>   -6.8003    1.0000 </r>
       <r>   -6.8003    1.0000 </r>
       <r>   -6.7554    1.0000 </r>
       <r>   -6.7554    1.0000 </r>
       <r>   -1.1181    1.0000 </r>
       <r>   -1.1181    1.0000 </r>
       <r>   -0.0080    1.0000 </r>
       <r>   -0.0080    1.0000 </r>
       <r>    0.3259    1.0000 </r>
       <r>    0.3259    1.0000 </r>
       <r>    1.4194    1.0000 </r>
       <r>    1.4194    1.0000 </r>
       <r>    2.2673    1.0000 </r>
       <r>    2.2673    1.0000 </r>
       <r>    2.2901    1.0000 </r>
       <r>    2.2901    1.0000 </r>
       <r>    3.2101    1.0000 </r>
       <r>    3.2101    1.0000 </r>
       <r>    4.8013    1.0000 </r>
       <r>    4.8013    1.0000 </r>
       <r>    5.0990    1.0000 </r>
       <r>    5.0990    1.0000 </r>
       <r>    6.3529    1.0000 </r>
       <r>    6.3529    1.0000 </r>
       <r>    6.8181    1.0000 </r>
       <r>    6.8181    1.0000 </r>
       <r>    7.9600    1.0000 </r>
       <r>    7.9600    1.0000 </r>
       <r>    9.5043    1.0000 </r>
       <r>    9.5043    1.0000 </r>
       <r>   11.5520    0.0000 </r>
       <r>   11.5520    0.0000 </r>
       <r>   12.0797    0.0000 </r>
       <r>   12.0797    0.0000 </r>
       <r>   13.6558    0.0000 </r>
       <r>   13.6558    0.0000 </r>
       <r>   14.1226    0.0000 </r>
       <r>   14.1226    0.0000 </r>
      </set>
     </set>
    </set>
   </array>
  </eigenvalues>
  <separator name="orbital magnetization" >
   <v name="MAGDIPOLOUT">      0.00000000      0.00000000      0.00000000</v>
  </separator>
  <dos>
   <i name="efermi">     10.77253783 </i>
   <total>
    <array>
     <dimension dim="1">gridpoints</dimension>
     <dimension dim="2">spin</dimension>
     <field>energy</field>
     <field>total</field>
     <field>integrated</field>
     <set>
      <set comment="spin 1">
       <r>   -11.2362     0.0000     0.0000 </r>
       <r>   -11.1409     0.0000     0.0000 </r>
       <r>   -11.0456     0.0000     0.0000 </r>
       <r>   -10.9502     0.0000     0.0000 </r>
       <r>   -10.8549     0.0000     0.0000 </r>
       <r>   -10.7596     0.0000     0.0000 </r>
       <r>   -10.6643     0.0000     0.0000 </r>
       <r>   -10.5690     0.0000     0.0000 </r>
       <r>   -10.4737     0.0000     0.0000 </r>
       <r>   -10.3784     0.0000     0.0000 </r>
       <r>   -10.2830     0.0000     0.0000 </r>
       <r>   -10.1877     0.0001     0.0000 </r>
       <r>   -10.0924     0.0015     0.0002 </r>
       <r>    -9.9971    -0.0113    -0.0009 </r>
       <r>    -9.9018     0.1049     0.0091 </r>
       <r>    -9.8065     0.5508     0.0616 </r>
       <r>    -9.7111     0.7980     0.1376 </r>
       <r>    -9.6158     1.1446     0.2467 </r>
       <r>    -9.5205     1.2585     0.3667 </r>
       <r>    -9.4252     1.3819     0.4984 </r>
       <r>    -9.3299     1.6195     0.6528 </r>
       <r>    -9.2346     1.6369     0.8088 </r>
       <r>    -9.1392     1.9711     0.9967 </r>
       <r>    -9.0439     2.1070     1.1975 </r>
       <r>    -8.9486     2.7039     1.4552 </r>
       <r>    -8.8533     2.9095     1.7326 </r>
       <r>    -8.7580     3.4129     2.0579 </r>
       <r>    -8.6627     3.3440     2.3766 </r>
       <r>    -8.5673     2.5189     2.6167 </r>
       <r>    -8.4720     2.5241     2.8573 </r>
       <r>    -8.3767     2.4752     3.0932 </r>
       <r>    -8.2814     2.3433     3.3166 </r>
       <r>    -8.1861     3.4514     3.6455 </r>
       <r>    -8.0908     4.1141     4.0377 </r>
       <r>    -7.9954     4.1241     4.4308 </r>
       <r>    -7.9001     3.2913     4.7445 </r>
       <r>    -7.8048     5.1367     5.2341 </r>
       <r>    -7.7095     4.5854     5.6712 </r>
       <r>    -7.6142     5.2464     6.1712 </r>
       <r>    -7.5189     4.7792     6.6268 </r>
       <r>    -7.4235     3.8459     6.9933 </r>
       <r>    -7.3282     5.1049     7.4799 </r>
       <r>    -7.2329     7.9880     8.2413 </r>
       <r>    -7.1376     4.9075     8.7091 </r>
       <r>    -7.0423     5.6367     9.2463 </r>
       <r>    -6.9470     5.4707     9.7678 </r>
       <r>    -6.8516     3.6895    10.1195 </r>
       <r>    -6.7563     6.9669    10.7835 </r>
       <r>    -6.6610     6.8763    11.4389 </r>
       <r>    -6.5657     4.0265    11.8227 </r>
       <r>    -6.4704     1.8867    12.0026 </r>
       <r>    -6.3751    -0.0262    12.0001 </r>
       <r>    -6.2797    -0.0048    11.9996 </r>
       <r>    -6.1844     0.0039    12.0000 </r>
       <r>    -6.0891     0.0001    12.0000 </r>
       <r>    -5.9938     0.0000    12.0000 </r>
       <r>    -5.8985     0.0000    12.0000 </r>
       <r>    -5.8032     0.0000    12.0000 </r>
       <r>    -5.7078     0.0000    12.0000 </r>
       <r>    -5.6125     0.0000    12.0000 </r>
       <r>    -5.5172     0.0000    12.0000 </r>
       <r>    -5.4219     0.0000    12.0000 </r>
       <r>    -5.3266     0.0000    12.0000 </r>
       <r>    -5.2313     0.0000    12.0000 </r>
       <r>    -5.1360     0.0000    12.0000 </r>
       <r>    -5.0406     0.0000    12.0000 </r>
       <r>    -4.9453     0.0000    12.0000 </r>
       <r>    -4.8500     0.0000    12.0000 </r>
       <r>    -4.7547     0.0000    12.0000 </r>
       <r>    -4.6594     0.0000    12.0000 </r>
       <r>    -4.5641     0.0000    12.0000 </r>
       <r>    -4.4687     0.0000    12.0000 </r>
       <r>    -4.3734     0.0000    12.0000 </r>
       <r>    -4.2781     0.0000    12.0000 </r>
       <r>    -4.1828     0.0000    12.0000 </r>
       <r>    -4.0875     0.0000    12.0000 </r>
       <r>    -3.9922     0.0000    12.0000 </r>
       <r>    -3.8968     0.0000    12.0000 </r>
       <r>    -3.8015     0.0000    12.0000 </r>
       <r>    -3.7062     0.0000    12.0000 </r>
       <r>    -3.6109     0.0000    12.0000 </r>
       <r>    -3.5156     0.0000    12.0000 </r>
       <r>    -3.4203     0.0000    12.0000 </r>
       <r>    -3.3249     0.0000    12.0000 </r>
       <r>    -3.2296     0.0000    12.0000 </r>
       <r>    -3.1343     0.0000    12.0000 </r>
       <r>    -3.0390     0.0000    12.0000 </r>
       <r>    -2.9437     0.0001    12.0000 </r>
       <r>    -2.8484     0.0015    12.0001 </r>
       <r>    -2.7530    -0.0076    11.9994 </r>
       <r>    -2.6577     0.0446    12.0037 </r>
       <r>    -2.5624     0.5166    12.0529 </r>
       <r>    -2.4671     0.9123    12.1399 </r>
       <r>    -2.3718     1.2454    12.2586 </r>
       <r>    -2.2765     0.6876    12.3241 </r>
       <r>    -2.1811     1.1458    12.4333 </r>
       <r>    -2.0858     0.7246    12.5024 </r>
       <r>    -1.9905     1.0157    12.5992 </r>
       <r>    -1.8952     0.9937    12.6939 </r>
       <r>    -1.7999     0.3648    12.7287 </r>
       <r>    -1.7046     0.7908    12.8041 </r>
       <r>    -1.6092     1.1246    12.9113 </r>
       <r>    -1.5139     1.7678    13.0798 </r>
       <r>    -1.4186     1.9933    13.2698 </r>
       <r>    -1.3233     2.7800    13.5347 </r>
       <r>    -1.2280     1.4917    13.6769 </r>
       <r>    -1.1327     3.7183    14.0313 </r>
       <r>    -1.0373     5.0703    14.5146 </r>
       <r>    -0.9420     4.5440    14.9477 </r>
       <r>    -0.8467     4.3816    15.3654 </r>
       <r>    -0.7514     6.0335    15.9405 </r>
       <r>    -0.6561     5.6744    16.4813 </r>
       <r>    -0.5608     2.7343    16.7420 </r>
       <r>    -0.4655     2.2107    16.9527 </r>
       <r>    -0.3701     3.2769    17.2650 </r>
       <r>    -0.2748     4.1149    17.6572 </r>
       <r>    -0.1795     4.5647    18.0923 </r>
       <r>    -0.0842     4.7663    18.5466 </r>
       <r>     0.0111     4.4591    18.9717 </r>
       <r>     0.1064     4.9197    19.4406 </r>
       <r>     0.2018     4.0560    19.8272 </r>
       <r>     0.2971     3.7963    20.1890 </r>
       <r>     0.3924     5.5817    20.7211 </r>
       <r>     0.4877     4.2211    21.1234 </r>
       <r>     0.5830     4.2617    21.5296 </r>
       <r>     0.6783     3.1613    21.8309 </r>
       <r>     0.7737     3.9995    22.2122 </r>
       <r>     0.8690     2.9512    22.4934 </r>
       <r>     0.9643     2.6091    22.7421 </r>
       <r>     1.0596     4.0590    23.1290 </r>
       <r>     1.1549     3.7717    23.4885 </r>
       <r>     1.2502     4.7138    23.9378 </r>
       <r>     1.3456     4.7697    24.3925 </r>
       <r>     1.4409     3.7098    24.7461 </r>
       <r>     1.5362     3.8935    25.1172 </r>
       <r>     1.6315     3.3629    25.4377 </r>
       <r>     1.7268     3.4662    25.7681 </r>
       <r>     1.8221     3.3687    26.0892 </r>
       <r>     1.9175     3.2124    26.3954 </r>
       <r>     2.0128     4.8921    26.8617 </r>
       <r>     2.1081     5.6975    27.4048 </r>
       <r>     2.2034     3.9401    27.7803 </r>
       <r>     2.2987     5.7008    28.3237 </r>
       <r>     2.3940     8.7546    29.1582 </r>
       <r>     2.4894     6.4202    29.7701 </r>
       <r>     2.5847     5.0014    30.2468 </r>
       <r>     2.6800     4.0987    30.6375 </r>
       <r>     2.7753     2.7650    30.9010 </r>
       <r>     2.8706     3.9652    31.2790 </r>
       <r>     2.9659     4.4254    31.7008 </r>
       <r>     3.0613     5.6681    32.2411 </r>
       <r>     3.1566     6.1729    32.8294 </r>
       <r>     3.2519     7.3424    33.5293 </r>
       <r>     3.3472     5.5959    34.0627 </r>
       <r>     3.4425     5.0754    34.5464 </r>
       <r>     3.5378     3.7486    34.9037 </r>
       <r>     3.6332     6.3465    35.5087 </r>
       <r>     3.7285     5.2472    36.0088 </r>
       <r>     3.8238     4.1778    36.4070 </r>
       <r>     3.9191     4.2015    36.8075 </r>
       <r>     4.0144     3.7948    37.1692 </r>
       <r>     4.1097     4.5188    37.5999 </r>
       <r>     4.2051     5.3533    38.1102 </r>
       <r>     4.3004     4.7287    38.5609 </r>
       <r>     4.3957     5.2183    39.0583 </r>
       <r>     4.4910     4.3746    39.4753 </r>
       <r>     4.5863     4.9957    39.9514 </r>
       <r>     4.6816     5.3145    40.4580 </r>
       <r>     4.7769     5.7981    41.0106 </r>
       <r>     4.8723     7.2825    41.7048 </r>
       <r>     4.9676     5.3865    42.2182 </r>
       <r>     5.0629     6.5723    42.8446 </r>
       <r>     5.1582     9.0346    43.7058 </r>
       <r>     5.2535     8.2688    44.4939 </r>
       <r>     5.3488     6.5937    45.1224 </r>
       <r>     5.4442     7.4061    45.8284 </r>
       <r>     5.5395     6.9046    46.4865 </r>
       <r>     5.6348     3.4908    46.8192 </r>
       <r>     5.7301     1.8348    46.9941 </r>
       <r>     5.8254     1.9692    47.1818 </r>
       <r>     5.9207     2.5207    47.4221 </r>
       <r>     6.0161     2.0224    47.6148 </r>
       <r>     6.1114     2.6223    47.8648 </r>
       <r>     6.2067     2.4648    48.0997 </r>
       <r>     6.3020     4.1989    48.4999 </r>
       <r>     6.3973     5.9309    49.0652 </r>
       <r>     6.4926     3.5439    49.4030 </r>
       <r>     6.5880     5.0795    49.8872 </r>
       <r>     6.6833     6.4572    50.5027 </r>
       <r>     6.7786     5.7491    51.0507 </r>
       <r>     6.8739     5.5755    51.5821 </r>
       <r>     6.9692     7.6872    52.3148 </r>
       <r>     7.0645     6.8817    52.9707 </r>
       <r>     7.1599     5.9343    53.5364 </r>
       <r>     7.2552     5.3160    54.0431 </r>
       <r>     7.3505     3.3723    54.3645 </r>
       <r>     7.4458     4.1600    54.7610 </r>
       <r>     7.5411     4.4870    55.1887 </r>
       <r>     7.6364     2.4402    55.4213 </r>
       <r>     7.7318     1.9030    55.6027 </r>
       <r>     7.8271     0.5173    55.6520 </r>
       <r>     7.9224     1.3825    55.7838 </r>
       <r>     8.0177     1.4466    55.9217 </r>
       <r>     8.1130     2.2572    56.1368 </r>
       <r>     8.2083     2.1996    56.3465 </r>
       <r>     8.3037     2.1839    56.5546 </r>
       <r>     8.3990     2.2693    56.7709 </r>
       <r>     8.4943     3.0552    57.0621 </r>
       <r>     8.5896     3.1011    57.3577 </r>
       <r>     8.6849     2.7060    57.6156 </r>
       <r>     8.7802     2.8318    57.8856 </r>
       <r>     8.8756     1.9549    58.0719 </r>
       <r>     8.9709     0.5064    58.1202 </r>
       <r>     9.0662     1.6125    58.2739 </r>
       <r>     9.1615     1.9533    58.4601 </r>
       <r>     9.2568     1.9785    58.6486 </r>
       <r>     9.3521     2.8649    58.9217 </r>
       <r>     9.4474     2.8720    59.1955 </r>
       <r>     9.5428     1.7073    59.3582 </r>
       <r>     9.6381     2.1654    59.5646 </r>
       <r>     9.7334     0.8455    59.6452 </r>
       <r>     9.8287     1.1298    59.7529 </r>
       <r>     9.9240     1.7673    59.9213 </r>
       <r>    10.0193     2.4018    60.1502 </r>
       <r>    10.1147     2.7823    60.4154 </r>
       <r>    10.2100     1.0303    60.5136 </r>
       <r>    10.3053     1.7495    60.6804 </r>
       <r>    10.4006     2.7721    60.9446 </r>
       <r>    10.4959     4.2393    61.3487 </r>
       <r>    10.5912     3.5950    61.6914 </r>
       <r>    10.6866     1.5756    61.8415 </r>
       <r>    10.7819     1.9161    62.0242 </r>
       <r>    10.8772     2.1490    62.2290 </r>
       <r>    10.9725     1.1083    62.3347 </r>
       <r>    11.0678     1.4237    62.4704 </r>
       <r>    11.1631     1.7615    62.6383 </r>
       <r>    11.2585     2.4083    62.8678 </r>
       <r>    11.3538     2.2110    63.0786 </r>
       <r>    11.4491     3.5168    63.4138 </r>
       <r>    11.5444     2.8505    63.6855 </r>
       <r>    11.6397     4.1117    64.0774 </r>
       <r>    11.7350     3.9639    64.4552 </r>
       <r>    11.8304     4.4501    64.8794 </r>
       <r>    11.9257     3.5436    65.2171 </r>
       <r>    12.0210     4.2532    65.6225 </r>
       <r>    12.1163     4.8802    66.0877 </r>
       <r>    12.2116     4.5546    66.5218 </r>
       <r>    12.3069     3.6693    66.8716 </r>
       <r>    12.4023     2.5300    67.1127 </r>
       <r>    12.4976     2.1739    67.3199 </r>
       <r>    12.5929     4.1261    67.7132 </r>
       <r>    12.6882     2.8195    67.9820 </r>
       <r>    12.7835     1.9786    68.1706 </r>
       <r>    12.8788     2.8481    68.4420 </r>
       <r>    12.9742     2.8612    68.7148 </r>
       <r>    13.0695     2.6836    68.9705 </r>
       <r>    13.1648     2.1782    69.1782 </r>
       <r>    13.2601     4.6318    69.6196 </r>
       <r>    13.3554     5.0499    70.1010 </r>
       <r>    13.4507     3.6198    70.4460 </r>
       <r>    13.5461     3.1238    70.7438 </r>
       <r>    13.6414     3.2417    71.0527 </r>
       <r>    13.7367     3.1126    71.3494 </r>
       <r>    13.8320     3.2234    71.6567 </r>
       <r>    13.9273     4.4523    72.0811 </r>
       <r>    14.0226     3.4183    72.4069 </r>
       <r>    14.1180     6.0613    72.9846 </r>
       <r>    14.2133     7.6115    73.7101 </r>
       <r>    14.3086     5.4631    74.2308 </r>
       <r>    14.4039     6.8895    74.8875 </r>
       <r>    14.4992     5.7671    75.4372 </r>
       <r>    14.5945     3.5738    75.7778 </r>
       <r>    14.6898     3.7572    76.1360 </r>
       <r>    14.7852     2.5221    76.3764 </r>
       <r>    14.8805     3.0691    76.6689 </r>
       <r>    14.9758     2.8968    76.9450 </r>
       <r>    15.0711     2.0681    77.1421 </r>
       <r>    15.1664     4.0236    77.5257 </r>
       <r>    15.2617     3.7105    77.8793 </r>
       <r>    15.3571     2.3967    78.1078 </r>
       <r>    15.4524     4.8457    78.5697 </r>
       <r>    15.5477     4.3669    78.9859 </r>
       <r>    15.6430     3.2335    79.2941 </r>
       <r>    15.7383     3.2306    79.6020 </r>
       <r>    15.8336     1.3910    79.7346 </r>
       <r>    15.9290     1.6055    79.8876 </r>
       <r>    16.0243     1.1744    79.9996 </r>
       <r>    16.1196     0.0034    79.9999 </r>
       <r>    16.2149    -0.0007    79.9998 </r>
       <r>    16.3102     0.0016    80.0000 </r>
       <r>    16.4055     0.0001    80.0000 </r>
       <r>    16.5009     0.0000    80.0000 </r>
       <r>    16.5962     0.0000    80.0000 </r>
       <r>    16.6915     0.0000    80.0000 </r>
       <r>    16.7868     0.0000    80.0000 </r>
       <r>    16.8821     0.0000    80.0000 </r>
       <r>    16.9774     0.0000    80.0000 </r>
       <r>    17.0728     0.0000    80.0000 </r>
       <r>    17.1681     0.0000    80.0000 </r>
       <r>    17.2634     0.0000    80.0000 </r>
       <r>    17.3587     0.0000    80.0000 </r>
      </set>
     </set>
    </array>
   </total>
  </dos>
 </calculation>
 <structure name="finalpos" >
  <crystal>
   <varray name="basis" >
    <v>       3.90140728      -6.75743561       0.00000000 </v>
    <v>       3.90140727       6.75743562       0.00000000 </v>
    <v>       0.00000000       0.00000000       2.74448460 </v>
   </varray>
   <i name="volume">    144.70848567 </i>
   <varray name="rec_basis" >
    <v>       0.12815888      -0.07399257       0.00000000 </v>
    <v>       0.12815888       0.07399257       0.00000000 </v>
    <v>       0.00000000       0.00000000       0.36436714 </v>
   </varray>
  </crystal>
  <varray name="positions" >
   <v>       0.19511325       0.83176260       0.75000000 </v>
   <v>       0.36335065       0.19511325       0.25000000 </v>
   <v>       0.83176260       0.63664935       0.25000000 </v>
   <v>       0.16823740       0.36335065       0.75000000 </v>
   <v>       0.63664935       0.80488675       0.75000000 </v>
   <v>       0.80488675       0.16823740       0.25000000 </v>
   <v>       0.33333333       0.66666667       0.75000000 </v>
   <v>       0.66666667       0.33333333       0.25000000 </v>
   <v>       0.96269453       0.61139340       0.75000000 </v>
   <v>       0.35130113       0.96269453       0.25000000 </v>
   <v>       0.61139340       0.64869887       0.25000000 </v>
   <v>       0.38860660       0.35130113       0.75000000 </v>
   <v>       0.03730547       0.38860660       0.25000000 </v>
   <v>       0.64869887       0.03730547       0.75000000 </v>
  </varray>
 </structure>
</modeling>
