unknown system                          
           1
     3.901407   -6.757436    0.000000
     3.901407    6.757436    0.000000
     0.000000    0.000000    2.744485
   Si   N 
   6   8
Direct configuration=     1
   0.19708959  0.83151770  0.75000000
   0.36557189  0.19708959  0.25000000
   0.83151770  0.63442811  0.25000000
   0.16848230  0.36557189  0.75000000
   0.63442811  0.80291041  0.75000000
   0.80291041  0.16848230  0.25000000
   0.33333333  0.66666667  0.75000000
   0.66666667  0.33333333  0.25000000
   0.96358754  0.61246345  0.75000000
   0.35112409  0.96358754  0.25000000
   0.61246345  0.64887591  0.25000000
   0.38753655  0.35112409  0.75000000
   0.03641246  0.38753655  0.25000000
   0.64887591  0.03641246  0.75000000
Direct configuration=     2
   0.19525185  0.83154114  0.75000000
   0.36371071  0.19525185  0.25000000
   0.83154114  0.63628929  0.25000000
   0.16845886  0.36371071  0.75000000
   0.63628929  0.80474815  0.75000000
   0.80474815  0.16845886  0.25000000
   0.33333333  0.66666667  0.75000000
   0.66666667  0.33333333  0.25000000
   0.96392789  0.61071610  0.75000000
   0.35321179  0.96392789  0.25000000
   0.61071610  0.64678821  0.25000000
   0.38928390  0.35321179  0.75000000
   0.03607211  0.38928390  0.25000000
   0.64678821  0.03607211  0.75000000
Direct configuration=     3
   0.19607740  0.83153061  0.75000000
   0.36454679  0.19607740  0.25000000
   0.83153061  0.63545321  0.25000000
   0.16846939  0.36454679  0.75000000
   0.63545321  0.80392260  0.75000000
   0.80392260  0.16846939  0.25000000
   0.33333333  0.66666667  0.75000000
   0.66666667  0.33333333  0.25000000
   0.96377500  0.61150105  0.75000000
   0.35227395  0.96377500  0.25000000
   0.61150105  0.64772605  0.25000000
   0.38849895  0.35227395  0.75000000
   0.03622500  0.38849895  0.25000000
   0.64772605  0.03622500  0.75000000
Direct configuration=     4
   0.19594124  0.83187110  0.75000000
   0.36407014  0.19594124  0.25000000
   0.83187110  0.63592986  0.25000000
   0.16812890  0.36407014  0.75000000
   0.63592986  0.80405876  0.75000000
   0.80405876  0.16812890  0.25000000
   0.33333333  0.66666667  0.75000000
   0.66666667  0.33333333  0.25000000
   0.96317013  0.61117278  0.75000000
   0.35199735  0.96317013  0.25000000
   0.61117278  0.64800265  0.25000000
   0.38882722  0.35199735  0.75000000
   0.03682987  0.38882722  0.25000000
   0.64800265  0.03682987  0.75000000
Direct configuration=     5
   0.19594327  0.83186601  0.75000000
   0.36407727  0.19594327  0.25000000
   0.83186601  0.63592273  0.25000000
   0.16813399  0.36407727  0.75000000
   0.63592273  0.80405673  0.75000000
   0.80405673  0.16813399  0.25000000
   0.33333333  0.66666667  0.75000000
   0.66666667  0.33333333  0.25000000
   0.96317917  0.61117769  0.75000000
   0.35200148  0.96317917  0.25000000
   0.61117769  0.64799852  0.25000000
   0.38882231  0.35200148  0.75000000
   0.03682083  0.38882231  0.25000000
   0.64799852  0.03682083  0.75000000
Direct configuration=     6
   0.19541529  0.83180023  0.75000000
   0.36361506  0.19541529  0.25000000
   0.83180023  0.63638494  0.25000000
   0.16819977  0.36361506  0.75000000
   0.63638494  0.80458471  0.75000000
   0.80458471  0.16819977  0.25000000
   0.33333333  0.66666667  0.75000000
   0.66666667  0.33333333  0.25000000
   0.96287088  0.61131490  0.75000000
   0.35155598  0.96287088  0.25000000
   0.61131490  0.64844402  0.25000000
   0.38868510  0.35155598  0.75000000
   0.03712912  0.38868510  0.25000000
   0.64844402  0.03712912  0.75000000
Direct configuration=     7
   0.19511325  0.83176260  0.75000000
   0.36335065  0.19511325  0.25000000
   0.83176260  0.63664935  0.25000000
   0.16823740  0.36335065  0.75000000
   0.63664935  0.80488675  0.75000000
   0.80488675  0.16823740  0.25000000
   0.33333333  0.66666667  0.75000000
   0.66666667  0.33333333  0.25000000
   0.96269453  0.61139340  0.75000000
   0.35130113  0.96269453  0.25000000
   0.61139340  0.64869887  0.25000000
   0.38860660  0.35130113  0.75000000
   0.03730547  0.38860660  0.25000000
   0.64869887  0.03730547  0.75000000
