  28  28   0   0
  0.1350234E+02  0.8799324E-09  0.8799324E-09  0.5638167E-09  0.5000000E-15
  1.000000000000000E-004
  CAR 
 unknown system                          
     12.74539169    -12.61221357  301      6.73997814      1.00000000
    -12.612  0.0000E+00  0.0000E+00
    -12.528  0.0000E+00  0.0000E+00
    -12.443  0.0000E+00  0.0000E+00
    -12.359  0.0000E+00  0.0000E+00
    -12.274  0.9728E-30  0.8223E-31
    -12.190  0.3356E-24  0.2837E-25
    -12.105  0.2708E-19  0.2289E-20
    -12.021  0.5105E-15  0.4315E-16
    -11.936  0.2227E-11  0.1883E-12
    -11.851  0.2214E-08  0.1873E-09
    -11.767  0.4803E-06  0.4079E-07
    -11.682  0.1989E-04  0.1722E-05
    -11.598  0.6033E-04  0.6821E-05
    -11.513 -0.6226E-03 -0.4581E-04
    -11.429  0.4666E-02  0.3486E-03
    -11.344  0.2302E-01  0.2295E-02
    -11.260  0.4037E-01  0.5707E-02
    -11.175  0.4548E-01  0.9552E-02
    -11.091  0.4972E-01  0.1375E-01
    -11.006  0.5639E-01  0.1852E-01
    -10.922  0.9942E-01  0.2692E-01
    -10.837  0.1003E+00  0.3540E-01
    -10.753  0.8646E-01  0.4271E-01
    -10.668  0.8914E-01  0.5025E-01
    -10.584  0.4232E-01  0.5382E-01
    -10.499  0.3947E-01  0.5716E-01
    -10.415  0.4209E-02  0.5751E-01
    -10.330  0.6385E-01  0.6291E-01
    -10.246  0.9394E-01  0.7085E-01
    -10.161  0.1972E-01  0.7252E-01
    -10.076  0.7251E-01  0.7865E-01
     -9.992  0.1692E+00  0.9295E-01
     -9.907  0.9845E-01  0.1013E+00
     -9.823  0.6677E-01  0.1069E+00
     -9.738  0.5299E-01  0.1114E+00
     -9.654  0.4133E-01  0.1149E+00
     -9.569  0.9852E-01  0.1232E+00
     -9.485  0.1528E+00  0.1361E+00
     -9.400  0.1898E+00  0.1522E+00
     -9.316  0.1587E+00  0.1656E+00
     -9.231  0.1482E+00  0.1781E+00
     -9.147  0.1009E+00  0.1866E+00
     -9.062  0.1167E+00  0.1965E+00
     -8.978  0.1853E+00  0.2122E+00
     -8.893  0.2538E+00  0.2336E+00
     -8.809  0.8193E-01  0.2406E+00
     -8.724 -0.6780E-02  0.2400E+00
     -8.640 -0.1001E-03  0.2400E+00
     -8.555  0.3389E-03  0.2400E+00
     -8.470  0.1092E-04  0.2400E+00
     -8.386  0.5902E-07  0.2400E+00
     -8.301  0.6551E-10  0.2400E+00
     -8.217  0.1602E-13  0.2400E+00
     -8.132  0.1824E-18  0.2400E+00
     -8.048  0.0000E+00  0.2400E+00
     -7.963  0.0000E+00  0.2400E+00
     -7.879  0.0000E+00  0.2400E+00
     -7.794  0.0000E+00  0.2400E+00
     -7.710  0.0000E+00  0.2400E+00
     -7.625  0.0000E+00  0.2400E+00
     -7.541  0.0000E+00  0.2400E+00
     -7.456  0.0000E+00  0.2400E+00
     -7.372  0.0000E+00  0.2400E+00
     -7.287  0.0000E+00  0.2400E+00
     -7.203  0.0000E+00  0.2400E+00
     -7.118  0.0000E+00  0.2400E+00
     -7.034  0.0000E+00  0.2400E+00
     -6.949  0.0000E+00  0.2400E+00
     -6.864  0.0000E+00  0.2400E+00
     -6.780  0.0000E+00  0.2400E+00
     -6.695  0.0000E+00  0.2400E+00
     -6.611  0.0000E+00  0.2400E+00
     -6.526  0.0000E+00  0.2400E+00
     -6.442  0.0000E+00  0.2400E+00
     -6.357  0.0000E+00  0.2400E+00
     -6.273  0.0000E+00  0.2400E+00
     -6.188  0.0000E+00  0.2400E+00
     -6.104  0.0000E+00  0.2400E+00
     -6.019  0.0000E+00  0.2400E+00
     -5.935  0.0000E+00  0.2400E+00
     -5.850  0.0000E+00  0.2400E+00
     -5.766  0.0000E+00  0.2400E+00
     -5.681  0.0000E+00  0.2400E+00
     -5.597  0.0000E+00  0.2400E+00
     -5.512  0.0000E+00  0.2400E+00
     -5.428  0.0000E+00  0.2400E+00
     -5.343  0.1338E-33  0.2400E+00
     -5.259  0.1128E-27  0.2400E+00
     -5.174  0.2190E-22  0.2400E+00
     -5.089  0.9703E-18  0.2400E+00
     -5.005  0.9687E-14  0.2400E+00
     -4.920  0.2126E-10  0.2400E+00
     -4.836  0.9951E-08  0.2400E+00
     -4.751  0.9427E-06  0.2400E+00
     -4.667  0.1548E-04  0.2400E+00
     -4.582 -0.1840E-04  0.2400E+00
     -4.498 -0.1805E-03  0.2400E+00
     -4.413  0.4147E-02  0.2403E+00
     -4.329  0.1044E-01  0.2412E+00
     -4.244  0.1187E-01  0.2422E+00
     -4.160  0.2307E-01  0.2442E+00
     -4.075  0.1386E-01  0.2453E+00
     -3.991  0.2940E-01  0.2478E+00
     -3.906  0.3122E-01  0.2505E+00
     -3.822  0.2818E-01  0.2528E+00
     -3.737  0.4212E-01  0.2564E+00
     -3.653  0.4962E-01  0.2606E+00
     -3.568  0.8842E-01  0.2681E+00
     -3.483  0.8239E-01  0.2750E+00
     -3.399  0.9721E-01  0.2833E+00
     -3.314  0.9399E-01  0.2912E+00
     -3.230  0.8511E-01  0.2984E+00
     -3.145  0.7189E-01  0.3045E+00
     -3.061  0.6908E-01  0.3103E+00
     -2.976  0.6626E-01  0.3159E+00
     -2.892  0.5656E-01  0.3207E+00
     -2.807  0.9357E-01  0.3286E+00
     -2.723  0.1176E+00  0.3385E+00
     -2.638  0.1088E+00  0.3477E+00
     -2.554  0.1103E+00  0.3571E+00
     -2.469  0.1260E+00  0.3677E+00
     -2.385  0.1107E+00  0.3771E+00
     -2.300  0.9501E-01  0.3851E+00
     -2.216  0.1125E+00  0.3946E+00
     -2.131  0.8313E-01  0.4016E+00
     -2.047  0.5518E-01  0.4063E+00
     -1.962  0.2742E-01  0.4086E+00
     -1.877  0.1213E-01  0.4096E+00
     -1.793  0.4094E-01  0.4131E+00
     -1.708  0.3191E-01  0.4158E+00
     -1.624  0.2528E-01  0.4179E+00
     -1.539  0.6133E-01  0.4231E+00
     -1.455  0.1025E+00  0.4318E+00
     -1.370  0.6547E-01  0.4373E+00
     -1.286  0.4414E-01  0.4411E+00
     -1.201  0.8244E-01  0.4480E+00
     -1.117  0.1028E+00  0.4567E+00
     -1.032  0.1223E+00  0.4671E+00
     -0.948  0.1181E+00  0.4770E+00
     -0.863  0.5779E-01  0.4819E+00
     -0.779  0.8101E-01  0.4888E+00
     -0.694  0.7243E-01  0.4949E+00
     -0.610  0.6231E-01  0.5002E+00
     -0.525  0.9271E-01  0.5080E+00
     -0.441  0.1112E+00  0.5174E+00
     -0.356  0.1004E+00  0.5259E+00
     -0.272  0.8202E-01  0.5328E+00
     -0.187  0.8485E-01  0.5400E+00
     -0.102  0.9303E-01  0.5478E+00
     -0.018  0.1142E+00  0.5575E+00
      0.067  0.1198E+00  0.5676E+00
      0.151  0.1057E+00  0.5766E+00
      0.236  0.1280E+00  0.5874E+00
      0.320  0.1493E+00  0.6000E+00
      0.405  0.1724E+00  0.6146E+00
      0.489  0.9372E-01  0.6225E+00
      0.574  0.1328E+00  0.6337E+00
      0.658  0.1392E+00  0.6455E+00
      0.743  0.1306E+00  0.6565E+00
      0.827  0.1126E+00  0.6660E+00
      0.912  0.1318E+00  0.6772E+00
      0.996  0.1887E+00  0.6931E+00
      1.081  0.1731E+00  0.7077E+00
      1.165  0.1333E+00  0.7190E+00
      1.250  0.1137E+00  0.7286E+00
      1.334  0.1294E+00  0.7396E+00
      1.419  0.1059E+00  0.7485E+00
      1.504  0.9767E-01  0.7568E+00
      1.588  0.1293E+00  0.7677E+00
      1.673  0.1132E+00  0.7773E+00
      1.757  0.1283E+00  0.7881E+00
      1.842  0.1193E+00  0.7982E+00
      1.926  0.1009E+00  0.8067E+00
      2.011  0.9764E-01  0.8150E+00
      2.095  0.9672E-01  0.8232E+00
      2.180  0.1052E+00  0.8321E+00
      2.264  0.1107E+00  0.8414E+00
      2.349  0.1119E+00  0.8509E+00
      2.433  0.7417E-01  0.8571E+00
      2.518  0.7568E-01  0.8635E+00
      2.602  0.1071E+00  0.8726E+00
      2.687  0.1061E+00  0.8816E+00
      2.771  0.9084E-01  0.8892E+00
      2.856  0.1374E+00  0.9008E+00
      2.940  0.1287E+00  0.9117E+00
      3.025  0.8517E-01  0.9189E+00
      3.110  0.8195E-01  0.9259E+00
      3.194  0.1215E+00  0.9361E+00
      3.279  0.1430E+00  0.9482E+00
      3.363  0.1041E+00  0.9570E+00
      3.448  0.1437E+00  0.9692E+00
      3.532  0.1259E+00  0.9798E+00
      3.617  0.8790E-01  0.9872E+00
      3.701  0.9072E-01  0.9949E+00
      3.786  0.1317E+00  0.1006E+01
      3.870  0.2173E+00  0.1024E+01
      3.955  0.1377E+00  0.1036E+01
      4.039  0.8282E-01  0.1043E+01
      4.124  0.1064E+00  0.1052E+01
      4.208  0.9608E-01  0.1060E+01
      4.293  0.5718E-01  0.1065E+01
      4.377  0.1204E+00  0.1075E+01
      4.462  0.1914E+00  0.1091E+01
      4.546  0.1650E+00  0.1105E+01
      4.631  0.1357E+00  0.1117E+01
      4.715  0.1222E+00  0.1127E+01
      4.800  0.6921E-01  0.1133E+01
      4.885  0.7268E-01  0.1139E+01
      4.969  0.9937E-01  0.1147E+01
      5.054  0.8533E-01  0.1155E+01
      5.138  0.1256E+00  0.1165E+01
      5.223  0.1396E+00  0.1177E+01
      5.307  0.1144E+00  0.1187E+01
      5.392  0.8779E-01  0.1194E+01
      5.476  0.4499E-01  0.1198E+01
      5.561  0.2449E-01  0.1200E+01
      5.645  0.6631E-01  0.1206E+01
      5.730  0.1043E+00  0.1214E+01
      5.814  0.3994E-01  0.1218E+01
      5.899 -0.4607E-02  0.1217E+01
      5.983  0.1433E-03  0.1217E+01
      6.068  0.1409E-03  0.1217E+01
      6.152  0.3439E-05  0.1218E+01
      6.237  0.1015E-04  0.1218E+01
      6.321  0.1228E-03  0.1218E+01
      6.406 -0.3639E-03  0.1217E+01
      6.491  0.8073E-03  0.1218E+01
      6.575  0.2865E-01  0.1220E+01
      6.660  0.7375E-01  0.1226E+01
      6.744  0.1736E+00  0.1241E+01
      6.829  0.1755E+00  0.1256E+01
      6.913  0.6965E-01  0.1262E+01
      6.998  0.1165E-01  0.1263E+01
      7.082 -0.1207E-02  0.1262E+01
      7.167  0.1458E-03  0.1262E+01
      7.251  0.5956E-04  0.1262E+01
      7.336  0.1855E-05  0.1262E+01
      7.420  0.1112E-07  0.1262E+01
      7.505  0.5963E-10  0.1263E+01
      7.589  0.3768E-07  0.1263E+01
      7.674  0.6391E-05  0.1263E+01
      7.758  0.1601E-03  0.1263E+01
      7.843 -0.6823E-03  0.1262E+01
      7.927 -0.2340E-03  0.1262E+01
      8.012  0.3870E-01  0.1266E+01
      8.096  0.2400E-01  0.1268E+01
      8.181 -0.2949E-02  0.1267E+01
      8.266  0.8651E-04  0.1267E+01
      8.350  0.7876E-04  0.1268E+01
      8.435 -0.6108E-04  0.1267E+01
      8.519  0.7300E-03  0.1268E+01
      8.604  0.4102E-02  0.1268E+01
      8.688  0.1336E-01  0.1269E+01
      8.773  0.1561E-01  0.1270E+01
      8.857  0.2495E-01  0.1272E+01
      8.942  0.4369E-01  0.1276E+01
      9.026  0.8929E-01  0.1284E+01
      9.111  0.1766E+00  0.1299E+01
      9.195  0.1699E+00  0.1313E+01
      9.280  0.1004E+00  0.1321E+01
      9.364  0.1006E+00  0.1330E+01
      9.449  0.1219E+00  0.1340E+01
      9.533  0.1463E+00  0.1353E+01
      9.618  0.7729E-01  0.1359E+01
      9.702  0.8083E-01  0.1366E+01
      9.787  0.8969E-01  0.1374E+01
      9.872  0.8498E-01  0.1381E+01
      9.956  0.1291E+00  0.1392E+01
     10.041  0.1382E+00  0.1403E+01
     10.125  0.9978E-01  0.1412E+01
     10.210  0.1225E+00  0.1422E+01
     10.294  0.1375E+00  0.1434E+01
     10.379  0.1158E+00  0.1444E+01
     10.463  0.1362E+00  0.1455E+01
     10.548  0.1633E+00  0.1469E+01
     10.632  0.1420E+00  0.1481E+01
     10.717  0.1473E+00  0.1493E+01
     10.801  0.1681E+00  0.1508E+01
     10.886  0.1582E+00  0.1521E+01
     10.970  0.1576E+00  0.1534E+01
     11.055  0.1533E+00  0.1547E+01
     11.139  0.1458E+00  0.1560E+01
     11.224  0.1549E+00  0.1573E+01
     11.308  0.1675E+00  0.1587E+01
     11.393  0.9828E-01  0.1595E+01
     11.478  0.4769E-01  0.1599E+01
     11.562  0.9389E-02  0.1600E+01
     11.647  0.8749E-03  0.1600E+01
     11.731  0.1695E-03  0.1600E+01
     11.816 -0.4201E-05  0.1600E+01
     11.900  0.9459E-05  0.1600E+01
     11.985  0.4048E-06  0.1600E+01
     12.069  0.2566E-08  0.1600E+01
     12.154  0.3153E-11  0.1600E+01
     12.238  0.8220E-15  0.1600E+01
     12.323  0.0000E+00  0.1600E+01
     12.407  0.0000E+00  0.1600E+01
     12.492  0.0000E+00  0.1600E+01
     12.576  0.0000E+00  0.1600E+01
     12.661  0.0000E+00  0.1600E+01
     12.745  0.0000E+00  0.1600E+01
