   28   28  100    1
  0.1350234E+02  0.8799324E-09  0.8799324E-09  0.5638167E-09  0.5000000E-15
  1.000000000000000E-004
  CAR 
 unknown system                          
    124     44     80
 
  0.3742002E-15  0.3742002E-15  0.3742002E-15  0.3472222E-02
    1      -11.459595   1.000000
    2      -10.862018   1.000000
    3      -10.862018   1.000000
    4      -10.117222   1.000000
    5      -10.117222   1.000000
    6       -9.460716   1.000000
    7       -9.180933   1.000000
    8       -9.116681   1.000000
    9       -9.116681   1.000000
   10       -9.096851   1.000000
   11       -9.038051   1.000000
   12       -9.038051   1.000000
   13       -4.474874   1.000000
   14       -3.683040   1.000000
   15       -3.683040   1.000000
   16       -3.341536   1.000000
   17       -2.882330   1.000000
   18       -2.570041   1.000000
   19       -2.570041   1.000000
   20       -2.032832   1.000000
   21       -1.624758   1.000000
   22       -1.624758   1.000000
   23       -1.214159   1.000000
   24       -1.005102   1.000000
   25       -1.005102   1.000000
   26       -0.637770   1.000000
   27       -0.593739   1.000000
   28        0.104735   1.000000
   29        0.259768   1.000000
   30        0.259768   1.000000
   31        0.555225   1.000000
   32        0.824000   1.000000
   33        0.947756   1.000000
   34        0.947756   1.000000
   35        1.104095   1.000000
   36        1.104095   1.000000
   37        1.458058   1.000000
   38        1.567646   1.000000
   39        1.567646   1.000000
   40        1.749066   1.000000
   41        1.749066   1.000000
   42        2.482441   1.000000
   43        2.614275   1.000000
   44        2.614275   1.000000
   45        2.712153   1.000000
   46        2.712153   1.000000
   47        3.225093   1.000000
   48        3.400452   1.000000
   49        3.494629   1.000000
   50        3.494629   1.000000
   51        3.571278   1.000000
   52        4.096565   1.000000
   53        4.180300   1.000000
   54        4.293777   1.000000
   55        4.293777   1.000000
   56        4.706068   1.000000
   57        4.706068   1.000000
   58        5.254963   1.000000
   59        5.254963   1.000000
   60        5.666704   1.000000
   61        5.666704   1.000000
   62        6.490065   0.997919
   63        6.926596   0.004015
   64        8.513846   0.000000
   65        8.513846   0.000000
   66        8.895602   0.000000
   67        9.279267   0.000000
   68        9.279267   0.000000
   69        9.496659   0.000000
   70        9.496660   0.000000
   71       10.294258   0.000000
   72       10.339742   0.000000
   73       10.339743   0.000000
   74       10.384096   0.000000
   75       11.057045   0.000000
   76       11.099964   0.000000
   77       11.280964   0.000000
   78       11.415414   0.000000
   79       11.415427   0.000000
   80       11.570403   0.000000
 
  0.1666667E+00  0.1272140E-14  0.3742002E-15  0.2083333E-01
    1      -11.431607   1.000000
    2      -10.919117   1.000000
    3      -10.883263   1.000000
    4      -10.087815   1.000000
    5      -10.055495   1.000000
    6       -9.436127   1.000000
    7       -9.283813   1.000000
    8       -9.132727   1.000000
    9       -9.111725   1.000000
   10       -9.089375   1.000000
   11       -9.037231   1.000000
   12       -9.005292   1.000000
   13       -4.402481   1.000000
   14       -3.693990   1.000000
   15       -3.606499   1.000000
   16       -3.296369   1.000000
   17       -2.943949   1.000000
   18       -2.638868   1.000000
   19       -2.568888   1.000000
   20       -2.244103   1.000000
   21       -1.848247   1.000000
   22       -1.576484   1.000000
   23       -1.237459   1.000000
   24       -1.000943   1.000000
   25       -0.812497   1.000000
   26       -0.496215   1.000000
   27       -0.448940   1.000000
   28        0.141873   1.000000
   29        0.187173   1.000000
   30        0.205291   1.000000
   31        0.566424   1.000000
   32        0.711300   1.000000
   33        0.922986   1.000000
   34        0.953601   1.000000
   35        1.105032   1.000000
   36        1.140712   1.000000
   37        1.443728   1.000000
   38        1.577624   1.000000
   39        1.720737   1.000000
   40        1.788872   1.000000
   41        1.810397   1.000000
   42        2.402151   1.000000
   43        2.504393   1.000000
   44        2.566692   1.000000
   45        2.767161   1.000000
   46        2.826126   1.000000
   47        3.128408   1.000000
   48        3.215702   1.000000
   49        3.445768   1.000000
   50        3.597902   1.000000
   51        3.805494   1.000000
   52        4.098793   1.000000
   53        4.153339   1.000000
   54        4.339055   1.000000
   55        4.367216   1.000000
   56        4.610883   1.000000
   57        4.690297   1.000000
   58        5.169396   1.000000
   59        5.194135   1.000000
   60        5.552924   1.000000
   61        5.670726   1.000000
   62        6.507970   0.996652
   63        6.874590  -0.023868
   64        8.623954   0.000000
   65        8.687472   0.000000
   66        9.086002   0.000000
   67        9.222405   0.000000
   68        9.260765   0.000000
   69        9.573221   0.000000
   70        9.636985   0.000000
   71        9.942213   0.000000
   72       10.232681   0.000000
   73       10.433485   0.000000
   74       10.672054   0.000000
   75       10.900561   0.000000
   76       11.037131   0.000000
   77       11.152141   0.000000
   78       11.224669   0.000000
   79       11.309120   0.000000
   80       11.503440   0.000000
 
  0.3333333E+00  0.3766651E-15  0.3742002E-15  0.2083333E-01
    1      -11.353287   1.000000
    2      -11.048705   1.000000
    3      -10.920177   1.000000
    4      -10.040750   1.000000
    5       -9.896116   1.000000
    6       -9.472196   1.000000
    7       -9.369889   1.000000
    8       -9.178427   1.000000
    9       -9.115294   1.000000
   10       -9.078127   1.000000
   11       -9.035346   1.000000
   12       -8.980055   1.000000
   13       -4.194324   1.000000
   14       -3.725256   1.000000
   15       -3.448733   1.000000
   16       -3.249256   1.000000
   17       -3.071507   1.000000
   18       -2.758219   1.000000
   19       -2.588616   1.000000
   20       -2.520063   1.000000
   21       -2.194006   1.000000
   22       -1.446304   1.000000
   23       -1.259313   1.000000
   24       -1.089451   1.000000
   25       -0.612692   1.000000
   26       -0.290903   1.000000
   27       -0.176782   1.000000
   28        0.039490   1.000000
   29        0.230210   1.000000
   30        0.248953   1.000000
   31        0.565573   1.000000
   32        0.674907   1.000000
   33        0.859262   1.000000
   34        0.919868   1.000000
   35        1.017971   1.000000
   36        1.177822   1.000000
   37        1.380943   1.000000
   38        1.614876   1.000000
   39        1.799604   1.000000
   40        1.901390   1.000000
   41        2.004206   1.000000
   42        2.270623   1.000000
   43        2.341935   1.000000
   44        2.544095   1.000000
   45        2.793049   1.000000
   46        2.967979   1.000000
   47        3.152068   1.000000
   48        3.270842   1.000000
   49        3.380692   1.000000
   50        3.697540   1.000000
   51        3.823622   1.000000
   52        4.056948   1.000000
   53        4.119681   1.000000
   54        4.212410   1.000000
   55        4.450773   1.000000
   56        4.630158   1.000000
   57        4.681689   1.000000
   58        4.969068   1.000000
   59        5.113020   1.000000
   60        5.359804   1.000000
   61        5.723709   1.000000
   62        6.556056   0.996386
   63        6.771392   0.191886
   64        8.850906   0.000000
   65        8.997599   0.000000
   66        9.130843   0.000000
   67        9.321382   0.000000
   68        9.472718   0.000000
   69        9.640052   0.000000
   70        9.794365   0.000000
   71        9.913489   0.000000
   72       10.113825   0.000000
   73       10.353443   0.000000
   74       10.579584   0.000000
   75       10.718436   0.000000
   76       10.827203   0.000000
   77       11.017049   0.000000
   78       11.096996   0.000000
   79       11.222952   0.000000
   80       11.282523   0.000000
 
  0.5000000E+00  0.3527179E-15  0.3742002E-15  0.1041667E-01
    1      -11.273990   1.000000
    2      -11.150911   1.000000
    3      -10.936500   1.000000
    4      -10.021472   1.000000
    5       -9.694116   1.000000
    6       -9.681712   1.000000
    7       -9.310465   1.000000
    8       -9.226740   1.000000
    9       -9.117106   1.000000
   10       -9.072735   1.000000
   11       -9.034238   1.000000
   12       -8.975739   1.000000
   13       -3.966066   1.000000
   14       -3.820628   1.000000
   15       -3.492973   1.000000
   16       -3.207038   1.000000
   17       -3.015262   1.000000
   18       -2.799333   1.000000
   19       -2.739931   1.000000
   20       -2.548459   1.000000
   21       -2.352766   1.000000
   22       -1.372780   1.000000
   23       -1.254354   1.000000
   24       -1.168709   1.000000
   25       -0.428000   1.000000
   26       -0.394227   1.000000
   27       -0.036372   1.000000
   28       -0.022602   1.000000
   29        0.296195   1.000000
   30        0.386656   1.000000
   31        0.478732   1.000000
   32        0.755024   1.000000
   33        0.865168   1.000000
   34        0.894253   1.000000
   35        0.932970   1.000000
   36        1.211156   1.000000
   37        1.259643   1.000000
   38        1.630061   1.000000
   39        1.799015   1.000000
   40        1.959488   1.000000
   41        2.102797   1.000000
   42        2.203741   1.000000
   43        2.310337   1.000000
   44        2.491092   1.000000
   45        2.802793   1.000000
   46        3.082562   1.000000
   47        3.206371   1.000000
   48        3.358485   1.000000
   49        3.485768   1.000000
   50        3.679650   1.000000
   51        3.724895   1.000000
   52        3.929003   1.000000
   53        4.071677   1.000000
   54        4.184180   1.000000
   55        4.547914   1.000000
   56        4.561698   1.000000
   57        4.598016   1.000000
   58        4.928858   1.000000
   59        5.204009   1.000000
   60        5.212741   1.000000
   61        5.764280   1.000000
   62        6.602730   1.021438
   63        6.702922   0.853084
   64        8.956773   0.000000
   65        9.007945   0.000000
   66        9.275856   0.000000
   67        9.370904   0.000000
   68        9.569604   0.000000
   69        9.707582   0.000000
   70        9.759780   0.000000
   71        9.890222   0.000000
   72       10.355929   0.000000
   73       10.388351   0.000000
   74       10.539941   0.000000
   75       10.589289   0.000000
   76       10.752431   0.000000
   77       10.803701   0.000000
   78       10.812350   0.000000
   79       11.121399   0.000000
   80       11.201866   0.000000
 
  0.1666667E+00  0.1666667E+00  0.3742002E-15  0.2083333E-01
    1      -11.378112   1.000000
    2      -11.001990   1.000000
    3      -10.923277   1.000000
    4      -10.023016   1.000000
    5       -9.972505   1.000000
    6       -9.419194   1.000000
    7       -9.389828   1.000000
    8       -9.152375   1.000000
    9       -9.123199   1.000000
   10       -9.080494   1.000000
   11       -9.034384   1.000000
   12       -8.986509   1.000000
   13       -4.260466   1.000000
   14       -3.693781   1.000000
   15       -3.506550   1.000000
   16       -3.255849   1.000000
   17       -3.030174   1.000000
   18       -2.761495   1.000000
   19       -2.563174   1.000000
   20       -2.478556   1.000000
   21       -2.056673   1.000000
   22       -1.544258   1.000000
   23       -1.245157   1.000000
   24       -1.049190   1.000000
   25       -0.664188   1.000000
   26       -0.300437   1.000000
   27       -0.234770   1.000000
   28        0.069204   1.000000
   29        0.179477   1.000000
   30        0.223274   1.000000
   31        0.624904   1.000000
   32        0.626445   1.000000
   33        0.841304   1.000000
   34        1.009874   1.000000
   35        1.023635   1.000000
   36        1.140020   1.000000
   37        1.411073   1.000000
   38        1.625640   1.000000
   39        1.830886   1.000000
   40        1.854035   1.000000
   41        1.881272   1.000000
   42        2.302860   1.000000
   43        2.382924   1.000000
   44        2.575461   1.000000
   45        2.831541   1.000000
   46        2.876322   1.000000
   47        3.104755   1.000000
   48        3.249151   1.000000
   49        3.425536   1.000000
   50        3.708334   1.000000
   51        3.815425   1.000000
   52        4.097185   1.000000
   53        4.097951   1.000000
   54        4.333257   1.000000
   55        4.449952   1.000000
   56        4.462888   1.000000
   57        4.720936   1.000000
   58        5.025342   1.000000
   59        5.122251   1.000000
   60        5.431691   1.000000
   61        5.698643   1.000000
   62        6.539473   0.995072
   63        6.798695   0.018050
   64        8.816863   0.000000
   65        8.925130   0.000000
   66        9.160717   0.000000
   67        9.184628   0.000000
   68        9.452394   0.000000
   69        9.650030   0.000000
   70        9.801577   0.000000
   71        9.895266   0.000000
   72       10.082336   0.000000
   73       10.432719   0.000000
   74       10.550124   0.000000
   75       10.714881   0.000000
   76       10.896699   0.000000
   77       11.033883   0.000000
   78       11.074246   0.000000
   79       11.309469   0.000000
   80       11.388596   0.000000
 
  0.3333333E+00  0.1666667E+00  0.3742002E-15  0.4166667E-01
    1      -11.285216   1.000000
    2      -11.119921   1.000000
    3      -10.961995   1.000000
    4       -9.966283   1.000000
    5       -9.816969   1.000000
    6       -9.613291   1.000000
    7       -9.317430   1.000000
    8       -9.195113   1.000000
    9       -9.134136   1.000000
   10       -9.072058   1.000000
   11       -9.028309   1.000000
   12       -8.985250   1.000000
   13       -4.004109   1.000000
   14       -3.714504   1.000000
   15       -3.502895   1.000000
   16       -3.340689   1.000000
   17       -3.001360   1.000000
   18       -2.808182   1.000000
   19       -2.663881   1.000000
   20       -2.552031   1.000000
   21       -2.316361   1.000000
   22       -1.457740   1.000000
   23       -1.246758   1.000000
   24       -1.157913   1.000000
   25       -0.479672   1.000000
   26       -0.257478   1.000000
   27       -0.099991   1.000000
   28       -0.019151   1.000000
   29        0.316326   1.000000
   30        0.352206   1.000000
   31        0.553016   1.000000
   32        0.718190   1.000000
   33        0.779106   1.000000
   34        0.940720   1.000000
   35        1.011328   1.000000
   36        1.142237   1.000000
   37        1.275827   1.000000
   38        1.694175   1.000000
   39        1.831710   1.000000
   40        1.889553   1.000000
   41        1.997985   1.000000
   42        2.187767   1.000000
   43        2.239095   1.000000
   44        2.633191   1.000000
   45        2.788729   1.000000
   46        3.086132   1.000000
   47        3.238938   1.000000
   48        3.382608   1.000000
   49        3.436100   1.000000
   50        3.731234   1.000000
   51        3.812955   1.000000
   52        3.970002   1.000000
   53        4.054882   1.000000
   54        4.192050   1.000000
   55        4.415636   1.000000
   56        4.449883   1.000000
   57        4.620843   1.000000
   58        4.848310   1.000000
   59        5.234063   1.000000
   60        5.361299   1.000000
   61        5.733516   1.000000
   62        6.593139   1.013302
   63        6.708686   0.807100
   64        8.968108   0.000000
   65        9.049332   0.000000
   66        9.258951   0.000000
   67        9.432999   0.000000
   68        9.484472   0.000000
   69        9.664498   0.000000
   70        9.812471   0.000000
   71        9.971617   0.000000
   72       10.178843   0.000000
   73       10.344696   0.000000
   74       10.416464   0.000000
   75       10.634934   0.000000
   76       10.692316   0.000000
   77       10.877861   0.000000
   78       10.963488   0.000000
   79       11.229796   0.000000
   80       11.280401   0.000000
 
  0.3333333E+00  0.3333333E+00  0.3742002E-15  0.6944444E-02
    1      -11.196893   1.000000
    2      -11.196893   1.000000
    3      -10.997980   1.000000
    4       -9.848663   1.000000
    5       -9.770644   1.000000
    6       -9.770644   1.000000
    7       -9.281649   1.000000
    8       -9.175845   1.000000
    9       -9.175845   1.000000
   10       -9.069187   1.000000
   11       -9.008000   1.000000
   12       -9.008000   1.000000
   13       -3.803346   1.000000
   14       -3.613897   1.000000
   15       -3.596888   1.000000
   16       -3.596888   1.000000
   17       -2.882940   1.000000
   18       -2.882940   1.000000
   19       -2.551228   1.000000
   20       -2.519642   1.000000
   21       -2.519642   1.000000
   22       -1.465622   1.000000
   23       -1.225367   1.000000
   24       -1.225367   1.000000
   25       -0.371365   1.000000
   26       -0.209881   1.000000
   27       -0.209881   1.000000
   28        0.016405   1.000000
   29        0.408934   1.000000
   30        0.408934   1.000000
   31        0.646189   1.000000
   32        0.663009   1.000000
   33        0.663009   1.000000
   34        1.035244   1.000000
   35        1.065330   1.000000
   36        1.117301   1.000000
   37        1.117301   1.000000
   38        1.777291   1.000000
   39        1.777291   1.000000
   40        1.899678   1.000000
   41        2.061240   1.000000
   42        2.093325   1.000000
   43        2.093325   1.000000
   44        2.756715   1.000000
   45        2.756715   1.000000
   46        3.151536   1.000000
   47        3.349201   1.000000
   48        3.454913   1.000000
   49        3.454913   1.000000
   50        3.750668   1.000000
   51        3.947094   1.000000
   52        3.947094   1.000000
   53        4.047046   1.000000
   54        4.147716   1.000000
   55        4.147716   1.000000
   56        4.467310   1.000000
   57        4.467310   1.000000
   58        4.749339   1.000000
   59        5.394008   1.000000
   60        5.394008   1.000000
   61        5.701968   1.000000
   62        6.644432   1.051622
   63        6.644432   1.051622
   64        9.073866   0.000000
   65        9.073867   0.000000
   66        9.393304   0.000000
   67        9.393304   0.000000
   68        9.476729   0.000000
   69        9.745837   0.000000
   70        9.745837   0.000000
   71       10.004219   0.000000
   72       10.047686   0.000000
   73       10.384458   0.000000
   74       10.514911   0.000000
   75       10.528287   0.000000
   76       10.528287   0.000000
   77       10.943578   0.000000
   78       10.943578   0.000000
   79       11.286464   0.000000
   80       11.286464   0.000000
 
  0.3742002E-15  0.3742002E-15  0.1250000E+00  0.6944444E-02
    1      -11.413690   1.000000
    2      -10.820157   1.000000
    3      -10.820157   1.000000
    4      -10.096314   1.000000
    5      -10.096314   1.000000
    6       -9.670114   1.000000
    7       -9.216528   1.000000
    8       -9.216528   1.000000
    9       -9.158093   1.000000
   10       -9.057489   1.000000
   11       -9.057489   1.000000
   12       -8.977392   1.000000
   13       -4.428591   1.000000
   14       -3.549505   1.000000
   15       -3.549504   1.000000
   16       -3.433463   1.000000
   17       -2.730904   1.000000
   18       -2.516492   1.000000
   19       -2.516492   1.000000
   20       -2.079686   1.000000
   21       -1.596173   1.000000
   22       -1.596173   1.000000
   23       -1.136465   1.000000
   24       -1.042212   1.000000
   25       -1.042211   1.000000
   26       -0.805057   1.000000
   27       -0.621365   1.000000
   28        0.267698   1.000000
   29        0.267698   1.000000
   30        0.345962   1.000000
   31        0.491591   1.000000
   32        0.804185   1.000000
   33        0.886507   1.000000
   34        0.886507   1.000000
   35        1.055934   1.000000
   36        1.055934   1.000000
   37        1.477335   1.000000
   38        1.530216   1.000000
   39        1.530216   1.000000
   40        1.682815   1.000000
   41        1.682815   1.000000
   42        2.376671   1.000000
   43        2.603010   1.000000
   44        2.603010   1.000000
   45        2.750970   1.000000
   46        2.750970   1.000000
   47        3.203510   1.000000
   48        3.209933   1.000000
   49        3.447772   1.000000
   50        3.447772   1.000000
   51        3.758326   1.000000
   52        3.957796   1.000000
   53        4.284970   1.000000
   54        4.284970   1.000000
   55        4.334831   1.000000
   56        4.731652   1.000000
   57        4.731652   1.000000
   58        5.242587   1.000000
   59        5.242587   1.000000
   60        5.632270   1.000000
   61        5.632271   1.000000
   62        6.543785   0.995179
   63        6.847088  -0.047940
   64        8.583210   0.000000
   65        8.583210   0.000000
   66        8.994224   0.000000
   67        9.310508   0.000000
   68        9.310508   0.000000
   69        9.682053   0.000000
   70        9.682054   0.000000
   71       10.316600   0.000000
   72       10.367087   0.000000
   73       10.367090   0.000000
   74       10.452664   0.000000
   75       10.918196   0.000000
   76       11.067712   0.000000
   77       11.067713   0.000000
   78       11.158155   0.000000
   79       11.439561   0.000000
   80       11.499501   0.000000
 
  0.1666667E+00  0.1272140E-14  0.1250000E+00  0.4166667E-01
    1      -11.386034   1.000000
    2      -10.877432   1.000000
    3      -10.841098   1.000000
    4      -10.068311   1.000000
    5      -10.036377   1.000000
    6       -9.641208   1.000000
    7       -9.289795   1.000000
    8       -9.241946   1.000000
    9       -9.198602   1.000000
   10       -9.059935   1.000000
   11       -8.998756   1.000000
   12       -8.966712   1.000000
   13       -4.353634   1.000000
   14       -3.579490   1.000000
   15       -3.480163   1.000000
   16       -3.376418   1.000000
   17       -2.790295   1.000000
   18       -2.598851   1.000000
   19       -2.511055   1.000000
   20       -2.248585   1.000000
   21       -1.822427   1.000000
   22       -1.563733   1.000000
   23       -1.164873   1.000000
   24       -1.003869   1.000000
   25       -0.850475   1.000000
   26       -0.711786   1.000000
   27       -0.466164   1.000000
   28        0.164609   1.000000
   29        0.216449   1.000000
   30        0.370081   1.000000
   31        0.508308   1.000000
   32        0.646872   1.000000
   33        0.867313   1.000000
   34        0.925201   1.000000
   35        1.021629   1.000000
   36        1.156878   1.000000
   37        1.425124   1.000000
   38        1.533237   1.000000
   39        1.677584   1.000000
   40        1.722274   1.000000
   41        1.769537   1.000000
   42        2.324175   1.000000
   43        2.489684   1.000000
   44        2.648553   1.000000
   45        2.764145   1.000000
   46        2.861014   1.000000
   47        3.038347   1.000000
   48        3.208619   1.000000
   49        3.500813   1.000000
   50        3.577363   1.000000
   51        3.785378   1.000000
   52        3.964433   1.000000
   53        4.225945   1.000000
   54        4.329585   1.000000
   55        4.396010   1.000000
   56        4.620825   1.000000
   57        4.705387   1.000000
   58        5.148171   1.000000
   59        5.192635   1.000000
   60        5.519775   1.000000
   61        5.641194   1.000000
   62        6.562148   0.997631
   63        6.823332  -0.045394
   64        8.682879   0.000000
   65        8.743009   0.000000
   66        9.155248   0.000000
   67        9.281095   0.000000
   68        9.322388   0.000000
   69        9.648733   0.000000
   70        9.803972   0.000000
   71        9.989102   0.000000
   72       10.259873   0.000000
   73       10.498694   0.000000
   74       10.637547   0.000000
   75       10.794329   0.000000
   76       10.982041   0.000000
   77       11.121756   0.000000
   78       11.174298   0.000000
   79       11.237142   0.000000
   80       11.326861   0.000000
 
  0.3333333E+00  0.3766651E-15  0.1250000E+00  0.4166667E-01
    1      -11.308588   1.000000
    2      -11.006460   1.000000
    3      -10.877453   1.000000
    4      -10.026490   1.000000
    5       -9.881993   1.000000
    6       -9.558766   1.000000
    7       -9.471355   1.000000
    8       -9.320662   1.000000
    9       -9.206357   1.000000
   10       -9.061840   1.000000
   11       -8.951481   1.000000
   12       -8.947068   1.000000
   13       -4.141011   1.000000
   14       -3.627829   1.000000
   15       -3.356827   1.000000
   16       -3.294553   1.000000
   17       -2.951706   1.000000
   18       -2.727471   1.000000
   19       -2.530772   1.000000
   20       -2.465181   1.000000
   21       -2.161362   1.000000
   22       -1.424283   1.000000
   23       -1.160316   1.000000
   24       -1.051035   1.000000
   25       -0.752425   1.000000
   26       -0.452538   1.000000
   27       -0.218399   1.000000
   28       -0.009749   1.000000
   29        0.143870   1.000000
   30        0.352173   1.000000
   31        0.583179   1.000000
   32        0.629611   1.000000
   33        0.817083   1.000000
   34        0.907231   1.000000
   35        1.000316   1.000000
   36        1.183377   1.000000
   37        1.363461   1.000000
   38        1.567614   1.000000
   39        1.703481   1.000000
   40        1.845857   1.000000
   41        1.986948   1.000000
   42        2.223869   1.000000
   43        2.424120   1.000000
   44        2.572385   1.000000
   45        2.806338   1.000000
   46        2.972575   1.000000
   47        3.164743   1.000000
   48        3.283586   1.000000
   49        3.461881   1.000000
   50        3.704662   1.000000
   51        3.814222   1.000000
   52        3.986391   1.000000
   53        4.086140   1.000000
   54        4.183292   1.000000
   55        4.444419   1.000000
   56        4.607380   1.000000
   57        4.681188   1.000000
   58        4.949106   1.000000
   59        5.086964   1.000000
   60        5.316107   1.000000
   61        5.691728   1.000000
   62        6.611471   1.029679
   63        6.766192   0.236978
   64        8.890418   0.000000
   65        9.046594   0.000000
   66        9.148846   0.000000
   67        9.368385   0.000000
   68        9.501241   0.000000
   69        9.671194   0.000000
   70        9.826484   0.000000
   71        9.987199   0.000000
   72       10.151968   0.000000
   73       10.391809   0.000000
   74       10.583728   0.000000
   75       10.703139   0.000000
   76       10.814951   0.000000
   77       10.980863   0.000000
   78       11.080931   0.000000
   79       11.187876   0.000000
   80       11.304903   0.000000
 
  0.5000000E+00  0.3527179E-15  0.1250000E+00  0.2083333E-01
    1      -11.230443   1.000000
    2      -11.107573   1.000000
    3      -10.893558   1.000000
    4      -10.010779   1.000000
    5       -9.693409   1.000000
    6       -9.667450   1.000000
    7       -9.470705   1.000000
    8       -9.404699   1.000000
    9       -9.208438   1.000000
   10       -9.062282   1.000000
   11       -8.938099   1.000000
   12       -8.937421   1.000000
   13       -3.916097   1.000000
   14       -3.732519   1.000000
   15       -3.425005   1.000000
   16       -3.211389   1.000000
   17       -2.906381   1.000000
   18       -2.808696   1.000000
   19       -2.673469   1.000000
   20       -2.422327   1.000000
   21       -2.353582   1.000000
   22       -1.325673   1.000000
   23       -1.164545   1.000000
   24       -1.115496   1.000000
   25       -0.607183   1.000000
   26       -0.494305   1.000000
   27       -0.118999   1.000000
   28       -0.033905   1.000000
   29        0.072732   1.000000
   30        0.366631   1.000000
   31        0.617959   1.000000
   32        0.677421   1.000000
   33        0.866605   1.000000
   34        0.880797   1.000000
   35        0.975798   1.000000
   36        1.192273   1.000000
   37        1.272597   1.000000
   38        1.581196   1.000000
   39        1.676063   1.000000
   40        1.935211   1.000000
   41        2.029138   1.000000
   42        2.266789   1.000000
   43        2.342010   1.000000
   44        2.523604   1.000000
   45        2.836793   1.000000
   46        3.080456   1.000000
   47        3.262490   1.000000
   48        3.398859   1.000000
   49        3.467221   1.000000
   50        3.710651   1.000000
   51        3.848334   1.000000
   52        3.925816   1.000000
   53        3.930322   1.000000
   54        4.104126   1.000000
   55        4.512434   1.000000
   56        4.556054   1.000000
   57        4.602324   1.000000
   58        4.927218   1.000000
   59        5.102234   1.000000
   60        5.174066   1.000000
   61        5.726576   1.000000
   62        6.659088   1.042443
   63        6.718885   0.715592
   64        9.015087   0.000000
   65        9.050198   0.000000
   66        9.187990   0.000000
   67        9.391234   0.000000
   68        9.667575   0.000000
   69        9.713934   0.000000
   70        9.783894   0.000000
   71        9.957664   0.000000
   72       10.239367   0.000000
   73       10.432814   0.000000
   74       10.576100   0.000000
   75       10.646912   0.000000
   76       10.790476   0.000000
   77       10.824949   0.000000
   78       10.847599   0.000000
   79       11.170685   0.000000
   80       11.196668   0.000000
 
  0.1666667E+00  0.1666667E+00  0.1250000E+00  0.2083333E-01