       N       E                     dE             d eps       ncg     rms          rms(c)
DAV:   1     0.468191156099E+03    0.46819E+03   -0.48611E+04  7040   0.111E+03
DAV:   2    -0.168465656140E+03   -0.63666E+03   -0.61052E+03  8888   0.237E+02
DAV:   3    -0.222675334563E+03   -0.54210E+02   -0.53689E+02  8456   0.739E+01
DAV:   4    -0.224095719898E+03   -0.14204E+01   -0.14119E+01  8840   0.124E+01
DAV:   5    -0.224133098687E+03   -0.37379E-01   -0.37328E-01  8624   0.193E+00    0.333E+01
RMM:   6    -0.201889066286E+03    0.22244E+02   -0.11314E+02  7056   0.260E+01    0.146E+01
RMM:   7    -0.201528147067E+03    0.36092E+00   -0.37620E+00  7496   0.435E+00    0.834E+00
RMM:   8    -0.201401454500E+03    0.12669E+00   -0.14338E+00  7040   0.302E+00    0.172E+00
RMM:   9    -0.201334822113E+03    0.66632E-01   -0.82015E-02  7040   0.778E-01    0.892E-01
RMM:  10    -0.201324325905E+03    0.10496E-01   -0.20635E-01  7041   0.106E+00    0.543E-01
RMM:  11    -0.201322071404E+03    0.22545E-02   -0.11075E-02  7043   0.266E-01    0.254E-01
RMM:  12    -0.201321274353E+03    0.79705E-03   -0.68088E-03  7040   0.209E-01    0.110E-01
RMM:  13    -0.201321006179E+03    0.26817E-03   -0.74544E-04  6130   0.645E-02    0.348E-02
RMM:  14    -0.201320985807E+03    0.20373E-04   -0.54977E-05  4261   0.242E-02
   1 F= -.20132099E+03 E0= -.20131871E+03  d E =-.201321E+03
       N       E                     dE             d eps       ncg     rms          rms(c)
DAV:   1    -0.201422223461E+03   -0.10122E+00   -0.13426E+01  7744   0.141E+01    0.868E-01
RMM:   2    -0.201443438248E+03   -0.21215E-01   -0.29333E-01  7040   0.174E+00    0.480E-01
RMM:   3    -0.201439704101E+03    0.37341E-02   -0.14792E-02  7168   0.360E-01    0.322E-01
RMM:   4    -0.201438538986E+03    0.11651E-02   -0.75081E-03  7040   0.234E-01    0.126E-01
RMM:   5    -0.201438417349E+03    0.12164E-03   -0.50707E-04  5700   0.548E-02    0.709E-02
RMM:   6    -0.201438433614E+03   -0.16265E-04   -0.13131E-04  4341   0.318E-02
   2 F= -.20143843E+03 E0= -.20143593E+03  d E =-.117448E+00
       N       E                     dE             d eps       ncg     rms          rms(c)
DAV:   1    -0.201441945445E+03   -0.35281E-02   -0.72195E-01  7984   0.326E+00    0.200E-01
RMM:   2    -0.201443099694E+03   -0.11542E-02   -0.15364E-02  7040   0.396E-01    0.112E-01
RMM:   3    -0.201442923552E+03    0.17614E-03   -0.79895E-04  6365   0.843E-02    0.755E-02
RMM:   4    -0.201442868762E+03    0.54789E-04   -0.32286E-04  4713   0.521E-02
   3 F= -.20144287E+03 E0= -.20144035E+03  d E =-.121883E+00
       N       E                     dE             d eps       ncg     rms          rms(c)
DAV:   1    -0.201493663245E+03   -0.50740E-01   -0.73097E+00  7136   0.101E+01    0.612E-01
RMM:   2    -0.201507182780E+03   -0.13520E-01   -0.16012E-01  7040   0.126E+00    0.328E-01
RMM:   3    -0.201505679115E+03    0.15037E-02   -0.75963E-03  7286   0.235E-01    0.238E-01
RMM:   4    -0.201504797672E+03    0.88144E-03   -0.26445E-03  7042   0.135E-01    0.114E-01
RMM:   5    -0.201504717467E+03    0.80205E-04   -0.88009E-04  6601   0.729E-02
   4 F= -.20150472E+03 E0= -.20150226E+03  d E =-.618487E-01
       N       E                     dE             d eps       ncg     rms          rms(c)
DAV:   1    -0.201511688239E+03   -0.68906E-02   -0.36450E+00  7072   0.714E+00    0.443E-01
RMM:   2    -0.201518803481E+03   -0.71152E-02   -0.82052E-02  7040   0.900E-01    0.255E-01
RMM:   3    -0.201517808653E+03    0.99483E-03   -0.40489E-03  7299   0.168E-01    0.189E-01
RMM:   4    -0.201517282775E+03    0.52588E-03   -0.12612E-03  7037   0.941E-02    0.102E-01
RMM:   5    -0.201517214998E+03    0.67777E-04   -0.70393E-04  6400   0.662E-02
   5 F= -.20151721E+03 E0= -.20151482E+03  d E =-.743462E-01
       N       E                     dE             d eps       ncg     rms          rms(c)
DAV:   1    -0.201530103944E+03   -0.12821E-01   -0.85972E+00  7040   0.112E+01    0.784E-01
RMM:   2    -0.201547585042E+03   -0.17481E-01   -0.19929E-01  7040   0.140E+00    0.385E-01
RMM:   3    -0.201543916344E+03    0.36687E-02   -0.10740E-02  7297   0.259E-01    0.250E-01
RMM:   4    -0.201542398358E+03    0.15180E-02   -0.22478E-03  7045   0.133E-01    0.132E-01
RMM:   5    -0.201542117475E+03    0.28088E-03   -0.18393E-03  7035   0.111E-01    0.326E-02
RMM:   6    -0.201542108267E+03    0.92081E-05   -0.53071E-05  4254   0.221E-02
   6 F= -.20154211E+03 E0= -.20153975E+03  d E =-.248933E-01
       N       E                     dE             d eps       ncg     rms          rms(c)
DAV:   1    -0.201542109123E+03    0.83518E-05   -0.24058E-05  5184   0.132E-02    0.399E-03
RMM:   2    -0.201542109124E+03   -0.11005E-08   -0.55647E-07  1148   0.539E-03
   7 F= -.20154211E+03 E0= -.20153976E+03  d E =-.248941E-01
       N       E                     dE             d eps       ncg     rms          rms(c)
DAV:   1    -0.201553335203E+03   -0.11226E-01   -0.15893E+00  7104   0.483E+00    0.424E-01
RMM:   2    -0.201557311079E+03   -0.39759E-02   -0.35818E-02  7040   0.624E-01    0.289E-01
RMM:   3    -0.201554641118E+03    0.26700E-02   -0.31767E-03  7060   0.135E-01    0.148E-01
RMM:   4    -0.201554520892E+03    0.12023E-03   -0.50069E-04  6249   0.626E-02    0.869E-02
RMM:   5    -0.201554526532E+03   -0.56401E-05   -0.22177E-04  4261   0.453E-02
   8 F= -.20155453E+03 E0= -.20155228E+03  d E =-.124174E-01
       N       E                     dE             d eps       ncg     rms          rms(c)
DAV:   1    -0.201554779567E+03   -0.25868E-03   -0.60802E-02  8128   0.945E-01    0.846E-02
RMM:   2    -0.201554956641E+03   -0.17707E-03   -0.13861E-03  7039   0.123E-01    0.622E-02
RMM:   3    -0.201554847057E+03    0.10958E-03   -0.10940E-04  4186   0.273E-02    0.312E-02
RMM:   4    -0.201554846672E+03    0.38500E-06   -0.28795E-05  3964   0.165E-02
   9 F= -.20155485E+03 E0= -.20155263E+03  d E =-.127375E-01
       N       E                     dE             d eps       ncg     rms          rms(c)
DAV:   1    -0.201556515899E+03   -0.16688E-02   -0.98140E-01  7040   0.384E+00    0.285E-01
RMM:   2    -0.201558558921E+03   -0.20430E-02   -0.23798E-02  7040   0.479E-01    0.148E-01
RMM:   3    -0.201558112078E+03    0.44684E-03   -0.13599E-03  6874   0.949E-02    0.997E-02
RMM:   4    -0.201557922154E+03    0.18992E-03   -0.28381E-04  4528   0.486E-02    0.571E-02
RMM:   5    -0.201557889642E+03    0.32513E-04   -0.25078E-04  4253   0.459E-02
  10 F= -.20155789E+03 E0= -.20155572E+03  d E =-.304297E-02
       N       E                     dE             d eps       ncg     rms          rms(c)
DAV:   1    -0.201557902116E+03    0.20038E-04   -0.10098E-03  8072   0.124E-01    0.939E-03
RMM:   2    -0.201557902786E+03   -0.67022E-06   -0.20971E-05  3696   0.158E-02
  11 F= -.20155790E+03 E0= -.20155574E+03  d E =-.305611E-02
       N       E                     dE             d eps       ncg     rms          rms(c)
DAV:   1    -0.201558862435E+03   -0.96032E-03   -0.29427E-01  7072   0.210E+00    0.103E-01
RMM:   2    -0.201559313471E+03   -0.45104E-03   -0.53388E-03  7040   0.230E-01    0.563E-02
RMM:   3    -0.201559269189E+03    0.44282E-04   -0.22254E-04  4663   0.447E-02
  12 F= -.20155927E+03 E0= -.20155707E+03  d E =-.136640E-02
       N       E                     dE             d eps       ncg     rms          rms(c)
DAV:   1    -0.201559294114E+03    0.19357E-04   -0.10444E-01  7408   0.125E+00    0.641E-02
RMM:   2    -0.201559442219E+03   -0.14810E-03   -0.18054E-03  7039   0.134E-01    0.407E-02
RMM:   3    -0.201559426888E+03    0.15331E-04   -0.80036E-05  4230   0.266E-02
  13 F= -.20155943E+03 E0= -.20155723E+03  d E =-.152410E-02
       N       E                     dE             d eps       ncg     rms          rms(c)
DAV:   1    -0.201560051619E+03   -0.60940E-03   -0.17777E-01  7040   0.158E+00    0.933E-02
RMM:   2    -0.201560336310E+03   -0.28469E-03   -0.35762E-03  7040   0.191E-01    0.539E-02
RMM:   3    -0.201560298596E+03    0.37713E-04   -0.14392E-04  4399   0.379E-02
  14 F= -.20156030E+03 E0= -.20155812E+03  d E =-.871708E-03
       N       E                     dE             d eps       ncg     rms          rms(c)
DAV:   1    -0.201560309841E+03    0.26469E-04   -0.15301E-02  7984   0.462E-01    0.344E-02
RMM:   2    -0.201560332558E+03   -0.22717E-04   -0.26698E-04  4803   0.536E-02
  15 F= -.20156033E+03 E0= -.20155819E+03  d E =-.905670E-03
