 vasp.5.4.4.18Apr17-6-g9f103f2a35 (build Nov 01 2019 12:17:22) complex          
  
 executed on             LinuxIFC date 2023.05.19  18:21:55
 running on   16 total cores
 distrk:  each k-point on   16 cores,    1 groups
 distr:  one band on NCORES_PER_BAND=   4 cores,    4 groups


--------------------------------------------------------------------------------------------------------


 INCAR:
 POTCAR:    PAW_PBE N 08Apr2002                   
 POTCAR:    PAW_PBE Si 05Jan2001                  
 POTCAR:    PAW_PBE N 08Apr2002                   
   VRHFIN =N: s2p3                                                              
   LEXCH  = PE                                                                  
   EATOM  =   264.5486 eV,   19.4438 Ry                                         
                                                                                
   TITEL  = PAW_PBE N 08Apr2002                                                 
   LULTRA =        F    use ultrasoft PP ?                                      
   IUNSCR =        1    unscreen: 0-lin 1-nonlin 2-no                           
   RPACOR =    1.200    partial core radius                                     
   POMASS =   14.001; ZVAL   =    5.000    mass and valenz                      
   RCORE  =    1.500    outmost cutoff radius                                   
   RWIGS  =    1.400; RWIGS  =    0.741    wigner-seitz radius (au A)           
   ENMAX  =  400.000; ENMIN  =  300.000 eV                                      
   ICORE  =        2    local potential                                         
   LCOR   =        T    correct aug charges                                     
   LPAW   =        T    paw PP                                                  
   EAUG   =  627.112                                                            
   DEXC   =    0.000                                                            
   RMAX   =    1.529    core radius for proj-oper                               
   RAUG   =    1.300    factor for augmentation sphere                          
   RDEP   =    1.514    radius for radial grids                                 
   RDEPT  =    1.338    core radius for aug-charge                              
                                                                                
   Atomic configuration                                                         
    4 entries                                                                   
     n  l   j            E        occ.                                          
     1  0  0.50      -384.7179   2.0000                                         
     2  0  0.50       -18.5828   2.0000                                         
     2  1  0.50        -7.0898   3.0000                                         
     3  2  1.50        -6.8029   0.0000                                         
   Description                                                                  
     l       E           TYP  RCUT    TYP  RCUT                                 
     0    -18.5828119     23  1.200                                             
     0    -13.5018863     23  1.200                                             
     1     -7.0897853     23  1.500                                             
     1      9.5240782     23  1.500                                             
     2     -6.8029130      7  1.500                                             
  local pseudopotential read in
  partial core-charges read in
  partial kinetic energy density read in
  atomic valenz-charges read in
  non local Contribution for L=           0  read in
    real space projection operators read in
  non local Contribution for L=           0  read in
    real space projection operators read in
  non local Contribution for L=           1  read in
    real space projection operators read in
  non local Contribution for L=           1  read in
    real space projection operators read in
    PAW grid and wavefunctions read in
 
   number of l-projection  operators is LMAX  =           4
   number of lm-projection operators is LMMAX =           8
 
 POTCAR:    PAW_PBE Si 05Jan2001                  
   VRHFIN =Si: s2p2                                                             
   LEXCH  = PE                                                                  
   EATOM  =   103.0669 eV,    7.5752 Ry                                         
                                                                                
   TITEL  = PAW_PBE Si 05Jan2001                                                
   LULTRA =        F    use ultrasoft PP ?                                      
   IUNSCR =        1    unscreen: 0-lin 1-nonlin 2-no                           
   RPACOR =    1.500    partial core radius                                     
   POMASS =   28.085; ZVAL   =    4.000    mass and valenz                      
   RCORE  =    1.900    outmost cutoff radius                                   
   RWIGS  =    2.480; RWIGS  =    1.312    wigner-seitz radius (au A)           
   ENMAX  =  245.345; ENMIN  =  184.009 eV                                      
   ICORE  =        2    local potential                                         
   LCOR   =        T    correct aug charges                                     
   LPAW   =        T    paw PP                                                  
   EAUG   =  322.069                                                            
   DEXC   =    0.000                                                            
   RMAX   =    1.950    core radius for proj-oper                               
   RAUG   =    1.300    factor for augmentation sphere                          
   RDEP   =    1.993    radius for radial grids                                 
   RDEPT  =    1.837    core radius for aug-charge                              
                                                                                
   Atomic configuration                                                         
    6 entries                                                                   
     n  l   j            E        occ.                                          
     1  0  0.50     -1785.8828   2.0000                                         
     2  0  0.50      -139.4969   2.0000                                         
     2  1  1.50       -95.5546   6.0000                                         
     3  0  0.50       -10.8127   2.0000                                         
     3  1  0.50        -4.0811   2.0000                                         
     3  2  1.50        -4.0817   0.0000                                         
   Description                                                                  
     l       E           TYP  RCUT    TYP  RCUT                                 
     0    -10.8127223     23  1.900                                             
     0     -7.6451159     23  1.900                                             
     1     -4.0811372     23  1.900                                             
     1      2.4879257     23  1.900                                             
     2     -4.0817478      7  1.900                                             
  local pseudopotential read in
  partial core-charges read in
  partial kinetic energy density read in
  atomic valenz-charges read in
  non local Contribution for L=           0  read in
    real space projection operators read in
  non local Contribution for L=           0  read in
    real space projection operators read in
  non local Contribution for L=           1  read in
    real space projection operators read in
  non local Contribution for L=           1  read in
    real space projection operators read in
    PAW grid and wavefunctions read in
 
   number of l-projection  operators is LMAX  =           4
   number of lm-projection operators is LMMAX =           8
 
 Optimization of the real space projectors (new method)

 maximal supplied QI-value         = 25.13
 optimisation between [QCUT,QGAM] = [ 10.05, 20.36] = [ 28.30,116.06] Ry 
 Optimized for a Real-space Cutoff    1.70 Angstroem

   l    n(q)    QCUT    max X(q) W(low)/X(q) W(high)/X(q)  e(spline) 
   0     10    10.053    79.467    0.61E-04    0.98E-04    0.61E-06
   0     10    10.053    66.151    0.60E-04    0.98E-04    0.61E-06
   1     10    10.053     8.350    0.17E-03    0.71E-03    0.45E-05
   1     10    10.053     5.531    0.18E-03    0.77E-03    0.49E-05
 Optimization of the real space projectors (new method)

 maximal supplied QI-value         = 19.84
 optimisation between [QCUT,QGAM] = [ 10.12, 20.44] = [ 28.68,116.96] Ry 
 Optimized for a Real-space Cutoff    1.38 Angstroem

   l    n(q)    QCUT    max X(q) W(low)/X(q) W(high)/X(q)  e(spline) 
   0      8    10.119   159.560    0.58E-04    0.11E-03    0.54E-07
   0      8    10.119   115.863    0.56E-04    0.11E-03    0.54E-07
   1      8    10.119    88.339    0.22E-03    0.17E-03    0.19E-06
   1      8    10.119    48.592    0.22E-03    0.17E-03    0.18E-06
  PAW_PBE N 08Apr2002                   :
 energy of atom  1       EATOM= -264.5486
 kinetic energy error for atom=    0.0736 (will be added to EATOM!!)
  PAW_PBE Si 05Jan2001                  :
 energy of atom  2       EATOM= -103.0669
 kinetic energy error for atom=    0.0012 (will be added to EATOM!!)
 
 
 POSCAR: Si12 N16                                
  positions in direct lattice
  No initial velocities read in
 exchange correlation table for  LEXCH =        8
   RHO(1)=    0.500       N(1)  =     2000
   RHO(2)=  100.500       N(2)  =     4000
 


--------------------------------------------------------------------------------------------------------


 ion  position               nearest neighbor table
   1  0.008  0.647  0.213-  14 1.78  23 1.80  25 1.83
   2  0.639  0.992  0.213-  16 1.78  22 1.80  28 1.83
   3  0.914  0.322  0.992-  22 1.79  25 1.81  18 1.82
   4  0.647  0.008  0.713-  22 1.78  16 1.80  26 1.83
   5  0.086  0.407  0.492-  13 1.79  18 1.81  25 1.82
   6  0.322  0.914  0.492-  14 1.79  26 1.81  28 1.82
   7  0.353  0.361  0.213-  13 1.78  15 1.80  21 1.83
   8  0.593  0.678  0.492-  16 1.79  27 1.81  21 1.82
   9  0.992  0.639  0.713-  23 1.78  14 1.80  18 1.83
  10  0.361  0.353  0.713-  15 1.78  13 1.80  27 1.83
  11  0.678  0.593  0.992-  23 1.79  21 1.81  27 1.82
  12  0.407  0.086  0.992-  15 1.79  28 1.81  26 1.82
  13  0.213  0.300  0.467-   7 1.78   5 1.79  10 1.80  19 2.36  21 3.01  18 3.09  15 3.12  15 3.12
                            27 3.13
  14  0.087  0.787  0.467-   1 1.78   6 1.79   9 1.80  19 2.36  25 3.01  26 3.09  23 3.12  23 3.12
                            18 3.13
  15  0.300  0.213  0.967-  10 1.78  12 1.79   7 1.80  17 2.36  27 3.01  28 3.09  13 3.12  13 3.12
                            21 3.13
  16  0.700  0.913  0.467-   2 1.78   8 1.79   4 1.80  19 2.36  28 3.01  27 3.09  22 3.12  22 3.12
                            26 3.13
  17  0.000  0.000  0.957-  22 2.36  15 2.36  23 2.36  19 2.82  19 2.82
  18  0.067  0.484  0.783-   5 1.81   3 1.82   9 1.83  24 2.34  25 3.00  25 3.00  23 3.01  13 3.09
                            14 3.13
  19  0.000  0.000  0.457-  14 2.36  16 2.36  13 2.36  17 2.82  17 2.82
  20  0.667  0.333  0.476-  21 2.34  28 2.34  25 2.34
  21  0.582  0.516  0.283-  11 1.81   8 1.82   7 1.83  20 2.34  27 3.00  27 3.00  13 3.01  23 3.09
                            15 3.13
  22  0.787  0.087  0.967-   4 1.78   3 1.79   2 1.80  17 2.36  26 3.01  25 3.09  16 3.12  16 3.12
                            28 3.13
  23  0.913  0.700  0.967-   9 1.78  11 1.79   1 1.80  17 2.36  18 3.01  21 3.09  14 3.12  14 3.12
                            25 3.13
  24  0.333  0.667  0.976-  27 2.34  18 2.34  26 2.34
  25  0.933  0.418  0.283-   3 1.81   5 1.82   1 1.83  20 2.34  18 3.00  18 3.00  14 3.01  22 3.09
                            23 3.13
  26  0.418  0.933  0.783-   6 1.81  12 1.82   4 1.83  24 2.34  28 3.00  28 3.00  22 3.01  14 3.09
                            16 3.13
  27  0.516  0.582  0.783-   8 1.81  11 1.82  10 1.83  24 2.34  21 3.00  21 3.00  15 3.01  16 3.09
                            13 3.13
  28  0.484  0.067  0.283-  12 1.81   6 1.82   2 1.83  20 2.34  26 3.00  26 3.00  16 3.01  15 3.09
                            22 3.13
 
  LATTYP: Found a hexagonal cell.
 ALAT       =     8.7993241080
 C/A-ratio  =     0.6407499831
  
  Lattice vectors:
  
 A1 = (   4.3996620540,  -7.6204382136,   0.0000000000)
 A2 = (   4.3996620540,   7.6204382136,   0.0000000000)
 A3 = (   0.0000000000,   0.0000000000,   5.6381667737)


Analysis of symmetry for initial positions (statically):
=====================================================================
 Subroutine PRICEL returns:
 Original cell was already a primitive cell.
 

 Routine SETGRP: Setting up the symmetry group for a 
 hexagonal supercell.


 Subroutine GETGRP returns: Found  6 space group operations
 (whereof  3 operations were pure point group operations)
 out of a pool of 24 trial point group operations.


The static configuration has the point symmetry C_3 .
 The point group associated with its full space group is C_3v.


Analysis of symmetry for dynamics (positions and initial velocities):
=====================================================================
 Subroutine PRICEL returns:
 Original cell was already a primitive cell.
 

 Routine SETGRP: Setting up the symmetry group for a 
 hexagonal supercell.


 Subroutine GETGRP returns: Found  6 space group operations
 (whereof  3 operations were pure point group operations)
 out of a pool of 24 trial point group operations.


The dynamic configuration has the point symmetry C_3 .
 The point group associated with its full space group is C_3v.


 Subroutine INISYM returns: Found  6 space group operations
 (whereof  3 operations are pure point group operations),
 and found     1 'primitive' translations

 
 
 KPOINTS: Automatic mesh                          

Automatic generation of k-mesh.
 generate k-points for:    6    6    8
Space group operators:
 irot       det(A)        alpha          n_x          n_y          n_z        tau_x        tau_y        tau_z
    1     1.000000     0.000000     1.000000     0.000000     0.000000     0.000000     0.000000     0.000000
    2     1.000000   120.000000     0.000000     0.000000    -1.000000     0.000000     0.000000     0.000000
    3     1.000000   120.000000     0.000000     0.000000     1.000000     0.000000     0.000000     0.000000
    4    -1.000000   180.000000    -0.000000     1.000000     0.000000     0.000000     0.000000     0.500000
    5    -1.000000   180.000000     0.866025     0.500000     0.000000     0.000000     0.000000     0.500000
    6    -1.000000   180.000000     0.866025    -0.500000     0.000000     0.000000     0.000000     0.500000
 
 Subroutine IBZKPT returns following result:
 ===========================================
 
 Found     44 irreducible k-points:
 
 Following reciprocal coordinates:
            Coordinates               Weight
  0.000000  0.000000  0.000000      1.000000
  0.166667  0.000000  0.000000      6.000000
  0.333333  0.000000  0.000000      6.000000
  0.500000  0.000000  0.000000      3.000000
  0.166667  0.166667  0.000000      6.000000
  0.333333  0.166667  0.000000     12.000000
  0.333333  0.333333  0.000000      2.000000
  0.000000  0.000000  0.125000      2.000000
  0.166667  0.000000  0.125000     12.000000
  0.333333  0.000000  0.125000     12.000000
  0.500000  0.000000  0.125000      6.000000
  0.166667  0.166667  0.125000      6.000000
  0.333333  0.166667  0.125000     12.000000
  0.333333  0.333333  0.125000      2.000000
 -0.166667  0.333333  0.125000      6.000000
 -0.333333  0.500000  0.125000     12.000000
 -0.333333 -0.333333  0.125000      2.000000
  0.000000  0.000000  0.250000      2.000000
  0.166667  0.000000  0.250000     12.000000
  0.333333  0.000000  0.250000     12.000000
  0.500000  0.000000  0.250000      6.000000
  0.166667  0.166667  0.250000      6.000000
  0.333333  0.166667  0.250000     12.000000
  0.333333  0.333333  0.250000      2.000000
 -0.166667  0.333333  0.250000      6.000000
 -0.333333  0.500000  0.250000     12.000000
 -0.333333 -0.333333  0.250000      2.000000
  0.000000  0.000000  0.375000      2.000000
  0.166667  0.000000  0.375000     12.000000
  0.333333  0.000000  0.375000     12.000000
  0.500000  0.000000  0.375000      6.000000
  0.166667  0.166667  0.375000      6.000000
  0.333333  0.166667  0.375000     12.000000
  0.333333  0.333333  0.375000      2.000000
 -0.166667  0.333333  0.375000      6.000000
 -0.333333  0.500000  0.375000     12.000000
 -0.333333 -0.333333  0.375000      2.000000
  0.000000  0.000000  0.500000      1.000000
  0.166667  0.000000  0.500000      6.000000
  0.333333  0.000000  0.500000      6.000000
  0.500000  0.000000  0.500000      3.000000
  0.166667  0.166667  0.500000      6.000000
  0.333333  0.166667  0.500000     12.000000
  0.333333  0.333333  0.500000      2.000000
 
 Following cartesian coordinates:
            Coordinates               Weight
  0.000000 -0.000000  0.000000      1.000000
  0.018941 -0.010936  0.000000      6.000000
  0.037882 -0.021871  0.000000      6.000000
  0.056823 -0.032807  0.000000      3.000000
  0.037882  0.000000  0.000000      6.000000
  0.056823 -0.010936  0.000000     12.000000
  0.075763  0.000000  0.000000      2.000000
  0.000000 -0.000000  0.022170      2.000000
  0.018941 -0.010936  0.022170     12.000000
  0.037882 -0.021871  0.022170     12.000000
  0.056823 -0.032807  0.022170      6.000000
  0.037882  0.000000  0.022170      6.000000
  0.056823 -0.010936  0.022170     12.000000
  0.075763  0.000000  0.022170      2.000000
  0.018941  0.032807  0.022170      6.000000
  0.018941  0.054678  0.022170     12.000000
 -0.075763  0.000000  0.022170      2.000000
  0.000000 -0.000000  0.044341      2.000000
  0.018941 -0.010936  0.044341     12.000000
  0.037882 -0.021871  0.044341     12.000000
  0.056823 -0.032807  0.044341      6.000000
  0.037882  0.000000  0.044341      6.000000
  0.056823 -0.010936  0.044341     12.000000
  0.075763  0.000000  0.044341      2.000000
  0.018941  0.032807  0.044341      6.000000
  0.018941  0.054678  0.044341     12.000000
 -0.075763  0.000000  0.044341      2.000000
  0.000000 -0.000000  0.066511      2.000000
  0.018941 -0.010936  0.066511     12.000000
  0.037882 -0.021871  0.066511     12.000000
  0.056823 -0.032807  0.066511      6.000000
  0.037882  0.000000  0.066511      6.000000
  0.056823 -0.010936  0.066511     12.000000
  0.075763  0.000000  0.066511      2.000000
  0.018941  0.032807  0.066511      6.000000
  0.018941  0.054678  0.066511     12.000000
 -0.075763  0.000000  0.066511      2.000000
  0.000000 -0.000000  0.088681      1.000000
  0.018941 -0.010936  0.088681      6.000000
  0.037882 -0.021871  0.088681      6.000000
  0.056823 -0.032807  0.088681      3.000000
  0.037882  0.000000  0.088681      6.000000
  0.056823 -0.010936  0.088681     12.000000
  0.075763  0.000000  0.088681      2.000000
 


--------------------------------------------------------------------------------------------------------




 Dimension of arrays:
   k-points           NKPTS =     44   k-points in BZ     NKDIM =     44   number of bands    NBANDS=     80
   number of dos      NEDOS =    301   number of ions     NIONS =     28
   non local maximal  LDIM  =      4   non local SUM 2l+1 LMDIM =      8
   total plane-waves  NPLWV = 144000
   max r-space proj   IRMAX =   7859   max aug-charges    IRDMAX=  12933
   dimension x,y,z NGX =    60 NGY =   60 NGZ =   40
   dimension x,y,z NGXF=   120 NGYF=  120 NGZF=   80
   support grid    NGXF=   120 NGYF=  120 NGZF=   80
   ions per type =              12  16
   NGX,Y,Z   is equivalent  to a cutoff of  11.34, 11.34, 11.79 a.u.
   NGXF,Y,Z  is equivalent  to a cutoff of  22.67, 22.67, 23.59 a.u.

 SYSTEM =  unknown system                          
 POSCAR =  Si12 N16                                

 Startparameter for this run:
   NWRITE =      2    write-flag & timer
   PREC   = accura    normal or accurate (medium, high low for compatibility)
   ISTART =      0    job   : 0-new  1-cont  2-samecut
   ICHARG =      2    charge: 1-file 2-atom 10-const
   ISPIN  =      1    spin polarized calculation?
   LNONCOLLINEAR =      F non collinear calculations
   LSORBIT =      F    spin-orbit coupling
   INIWAV =      1    electr: 0-lowe 1-rand  2-diag
   LASPH  =      F    aspherical Exc in radial PAW
   METAGGA=      F    non-selfconsistent MetaGGA calc.

 Electronic Relaxation 1
   ENCUT  =  400.0 eV  29.40 Ry    5.42 a.u.  14.35 14.35  9.19*2*pi/ulx,y,z
   ENINI  =  400.0     initial cutoff
   ENAUG  =  627.1 eV  augmentation charge cutoff
   NELM   =     60;   NELMIN=  2; NELMDL= -5     # of ELM steps 
   EDIFF  = 0.1E-03   stopping-criterion for ELM
   LREAL  =      T    real-space projection
   NLSPLINE    = F    spline interpolate recip. space projectors
   LCOMPAT=      F    compatible to vasp.4.4
   GGA_COMPAT  = T    GGA compatible to vasp.4.4-vasp.4.6
   LMAXPAW     = -100 max onsite density
   LMAXMIX     =    2 max onsite mixed and CHGCAR
   VOSKOWN=      0    Vosko Wilk Nusair interpolation
   ROPT   =   -0.00025  -0.00025
 Ionic relaxation
   EDIFFG = 0.1E-02   stopping-criterion for IOM
   NSW    =    100    number of steps for IOM
   NBLOCK =      1;   KBLOCK =    100    inner block; outer block 
   IBRION =      2    ionic relax: 0-MD 1-quasi-New 2-CG
   NFREE  =      1    steps in history (QN), initial steepest desc. (CG)
   ISIF   =      2    stress and relaxation
   IWAVPR =     11    prediction:  0-non 1-charg 2-wave 3-comb
   ISYM   =      2    0-nonsym 1-usesym 2-fastsym
   LCORR  =      T    Harris-Foulkes like correction to forces

   POTIM  = 0.5000    time-step for ionic-motion
   TEIN   =    0.0    initial temperature
   TEBEG  =    0.0;   TEEND  =   0.0 temperature during run
   SMASS  =  -3.00    Nose mass-parameter (am)
   estimated Nose-frequenzy (Omega)   =  0.10E-29 period in steps =****** mass=  -0.177E-26a.u.
   SCALEE = 1.0000    scale energy and forces
   NPACO  =    256;   APACO  = 16.0  distance and # of slots for P.C.
   PSTRESS=    0.0 pullay stress

  Mass of Ions in am
   POMASS =  14.00 28.09
  Ionic Valenz
   ZVAL   =   5.00  4.00
  Atomic Wigner-Seitz radii
   RWIGS  =  -1.00 -1.00
  virtual crystal weights 
   VCA    =   1.00  1.00
   NELECT =     124.0000    total number of electrons
   NUPDOWN=      -1.0000    fix difference up-down

 DOS related values:
   EMIN   =  10.00;   EMAX   =-10.00  energy-range for DOS
   EFERMI =   0.00
   ISMEAR =     2;   SIGMA  =   0.10  broadening in eV -4-tet -1-fermi 0-gaus

 Electronic relaxation 2 (details)
   IALGO  =     68    algorithm
   LDIAG  =      T    sub-space diagonalisation (order eigenvalues)
   LSUBROT=      F    optimize rotation matrix (better conditioning)
   TURBO    =      0    0=normal 1=particle mesh
   IRESTART =      0    0=no restart 2=restart with 2 vectors
   NREBOOT  =      0    no. of reboots
   NMIN     =      0    reboot dimension
   EREF     =   0.00    reference energy to select bands
   IMIX   =      4    mixing-type and parameters
     AMIX     =   0.40;   BMIX     =  1.00
     AMIX_MAG =   1.60;   BMIX_MAG =  1.00
     AMIN     =   0.10
     WC   =   100.;   INIMIX=   1;  MIXPRE=   1;  MAXMIX= -45

 Intra band minimization:
   WEIMIN = 0.0010     energy-eigenvalue tresh-hold
   EBREAK =  0.31E-06  absolut break condition
   DEPER  =   0.30     relativ break condition  

   TIME   =   0.40     timestep for ELM

  volume/ion in A,a.u.               =      13.50        91.12
  Fermi-wavevector in a.u.,A,eV,Ry     =   1.128998  2.133496 17.342468  1.274635
  Thomas-Fermi vector in A             =   2.265690
 
 Write flags
   LWAVE        =      F    write WAVECAR
   LDOWNSAMPLE  =      F    k-point downsampling of WAVECAR
   LCHARG       =      F    write CHGCAR
   LVTOT        =      F    write LOCPOT, total local potential
   LVHAR        =      F    write LOCPOT, Hartree potential only
   LELF         =      F    write electronic localiz. function (ELF)
   LORBIT       =      0    0 simple, 1 ext, 2 COOP (PROOUT), +10 PAW based schemes


 Dipole corrections
   LMONO  =      F    monopole corrections only (constant potential shift)
   LDIPOL =      F    correct potential (dipole corrections)
   IDIPOL =      0    1-x, 2-y, 3-z, 4-all directions 
   EPSILON=  1.0000000 bulk dielectric constant

 Exchange correlation treatment:
   GGA     =    --    GGA type
   LEXCH   =     8    internal setting for exchange type
   VOSKOWN=      0    Vosko Wilk Nusair interpolation
   LHFCALC =     F    Hartree Fock is set to
   LHFONE  =     F    Hartree Fock one center treatment
   AEXX    =    0.0000 exact exchange contribution

 Linear response parameters
   LEPSILON=     F    determine dielectric tensor
   LRPA    =     F    only Hartree local field effects (RPA)
   LNABLA  =     F    use nabla operator in PAW spheres
   LVEL    =     F    velocity operator in full k-point grid
   LINTERFAST=   F  fast interpolation
   KINTER  =     0    interpolate to denser k-point grid
   CSHIFT  =0.1000    complex shift for real part using Kramers Kronig
   OMEGAMAX=  -1.0    maximum frequency
   DEG_THRESHOLD= 0.2000000E-02 threshold for treating states as degnerate
   RTIME   =   -0.100 relaxation time in fs
  (WPLASMAI=    0.000 imaginary part of plasma frequency in eV, 0.658/RTIME)
   DFIELD  = 0.0000000 0.0000000 0.0000000 field for delta impulse in time
 
 Orbital magnetization related:
   ORBITALMAG=     F  switch on orbital magnetization
   LCHIMAG   =     F  perturbation theory with respect to B field
   DQ        =  0.001000  dq finite difference perturbation B field
   LLRAUG    =     F  two centre corrections for induced B field



--------------------------------------------------------------------------------------------------------


 conjugate gradient relaxation of ions
 charge density and potential will be updated during run
 non-spin polarized calculation
 RMM-DIIS sequential band-by-band and
  variant of blocked Davidson during initial phase
 perform sub-space diagonalisation
    before iterative eigenvector-optimisation
 modified Broyden-mixing scheme, WC =      100.0
 initial mixing is a Kerker type mixing with AMIX =  0.4000 and BMIX =      1.0000
 Hartree-type preconditioning will be used
 using additional bands           18
 real space projection scheme for non local part
 use partial core corrections
 calculate Harris-corrections to forces 
   (improved forces if not selfconsistent)
 use gradient corrections 
 use of overlap-Matrix (Vanderbilt PP)
 Methfessel and Paxton  Order N= 2 SIGMA  =   0.10


--------------------------------------------------------------------------------------------------------


  energy-cutoff  :      400.00
  volume of cell :      378.07
      direct lattice vectors                 reciprocal lattice vectors
     4.399662054 -7.620438214  0.000000000     0.113645092 -0.065613025  0.000000000
     4.399662054  7.620438214  0.000000000     0.113645092  0.065613025  0.000000000
     0.000000000  0.000000000  5.638166774     0.000000000  0.000000000  0.177362615

  length of vectors
     8.799324108  8.799324108  5.638166774     0.131226049  0.131226049  0.177362615


 
 k-points in units of 2pi/SCALE and weight: Automatic mesh                          
   0.00000000 -0.00000000  0.00000000       0.003
   0.01894085 -0.01093550  0.00000000       0.021
   0.03788170 -0.02187101  0.00000000       0.021
   0.05682255 -0.03280651  0.00000000       0.010
   0.03788170  0.00000000  0.00000000       0.021
   0.05682255 -0.01093550  0.00000000       0.042
   0.07576339  0.00000000  0.00000000       0.007
   0.00000000 -0.00000000  0.02217033       0.007
   0.01894085 -0.01093550  0.02217033       0.042
   0.03788170 -0.02187101  0.02217033       0.042
   0.05682255 -0.03280651  0.02217033       0.021
   0.03788170  0.00000000  0.02217033       0.021
   0.05682255 -0.01093550  0.02217033       0.042
   0.07576339  0.00000000  0.02217033       0.007
   0.01894085  0.03280651  0.02217033       0.021
   0.01894085  0.05467752  0.02217033       0.042
  -0.07576339  0.00000000  0.02217033       0.007
   0.00000000 -0.00000000  0.04434065       0.007
   0.01894085 -0.01093550  0.04434065       0.042
   0.03788170 -0.02187101  0.04434065       0.042
   0.05682255 -0.03280651  0.04434065       0.021
   0.03788170  0.00000000  0.04434065       0.021
   0.05682255 -0.01093550  0.04434065       0.042
   0.07576339  0.00000000  0.04434065       0.007
   0.01894085  0.03280651  0.04434065       0.021
   0.01894085  0.05467752  0.04434065       0.042
  -0.07576339  0.00000000  0.04434065       0.007
   0.00000000 -0.00000000  0.06651098       0.007
   0.01894085 -0.01093550  0.06651098       0.042
   0.03788170 -0.02187101  0.06651098       0.042
   0.05682255 -0.03280651  0.06651098       0.021
   0.03788170  0.00000000  0.06651098       0.021
   0.05682255 -0.01093550  0.06651098       0.042
   0.07576339  0.00000000  0.06651098       0.007
   0.01894085  0.03280651  0.06651098       0.021
   0.01894085  0.05467752  0.06651098       0.042
  -0.07576339  0.00000000  0.06651098       0.007
   0.00000000 -0.00000000  0.08868131       0.003
   0.01894085 -0.01093550  0.08868131       0.021
   0.03788170 -0.02187101  0.08868131       0.021
   0.05682255 -0.03280651  0.08868131       0.010
   0.03788170  0.00000000  0.08868131       0.021
   0.05682255 -0.01093550  0.08868131       0.042
   0.07576339  0.00000000  0.08868131       0.007
 
 k-points in reciprocal lattice and weights: Automatic mesh                          
   0.00000000  0.00000000  0.00000000       0.003
   0.16666667  0.00000000  0.00000000       0.021
   0.33333333  0.00000000  0.00000000       0.021
   0.50000000  0.00000000  0.00000000       0.010
   0.16666667  0.16666667  0.00000000       0.021
   0.33333333  0.16666667  0.00000000       0.042
   0.33333333  0.33333333  0.00000000       0.007
   0.00000000  0.00000000  0.12500000       0.007
   0.16666667  0.00000000  0.12500000       0.042
   0.33333333  0.00000000  0.12500000       0.042
   0.50000000  0.00000000  0.12500000       0.021
   0.16666667  0.16666667  0.12500000       0.021
   0.33333333  0.16666667  0.12500000       0.042
   0.33333333  0.33333333  0.12500000       0.007
  -0.16666667  0.33333333  0.12500000       0.021
  -0.33333333  0.50000000  0.12500000       0.042
  -0.33333333 -0.33333333  0.12500000       0.007
   0.00000000  0.00000000  0.25000000       0.007
   0.16666667  0.00000000  0.25000000       0.042
   0.33333333  0.00000000  0.25000000       0.042
   0.50000000  0.00000000  0.25000000       0.021
   0.16666667  0.16666667  0.25000000       0.021
   0.33333333  0.16666667  0.25000000       0.042
   0.33333333  0.33333333  0.25000000       0.007
  -0.16666667  0.33333333  0.25000000       0.021
  -0.33333333  0.50000000  0.25000000       0.042
  -0.33333333 -0.33333333  0.25000000       0.007
   0.00000000  0.00000000  0.37500000       0.007
   0.16666667  0.00000000  0.37500000       0.042
   0.33333333  0.00000000  0.37500000       0.042
   0.50000000  0.00000000  0.37500000       0.021
   0.16666667  0.16666667  0.37500000       0.021
   0.33333333  0.16666667  0.37500000       0.042
   0.33333333  0.33333333  0.37500000       0.007
  -0.16666667  0.33333333  0.37500000       0.021
  -0.33333333  0.50000000  0.37500000       0.042
  -0.33333333 -0.33333333  0.37500000       0.007
   0.00000000  0.00000000  0.50000000       0.003
   0.16666667  0.00000000  0.50000000       0.021
   0.33333333  0.00000000  0.50000000       0.021
   0.50000000  0.00000000  0.50000000       0.010
   0.16666667  0.16666667  0.50000000       0.021
   0.33333333  0.16666667  0.50000000       0.042
   0.33333333  0.33333333  0.50000000       0.007
 
 position of ions in fractional coordinates (direct lattice) 
   0.00847736  0.64712623  0.21326215
   0.63864887  0.99152264  0.21326215
   0.91417805  0.32157747  0.99187268
   0.64712623  0.00847736  0.71326215
   0.08582195  0.40739942  0.49187268
   0.32157747  0.91417805  0.49187268
   0.35287377  0.36135113  0.21326215
   0.59260058  0.67842253  0.49187268
   0.99152264  0.63864887  0.71326215
   0.36135113  0.35287377  0.71326215
   0.67842253  0.59260058  0.99187268
   0.40739942  0.08582195  0.99187268
   0.21311138  0.30040483  0.46674092
   0.08729345  0.78688862  0.46674092
   0.30040483  0.21311138  0.96674092
   0.69959517  0.91270655  0.46674092
   0.00000000  0.00000000  0.95692726
   0.06686359  0.48449764  0.78259872
   0.00000000  0.00000000  0.45692726
   0.66666667  0.33333333  0.47577702
   0.58236595  0.51550236  0.28259872
   0.78688862  0.08729345  0.96674092
   0.91270655  0.69959517  0.96674092
   0.33333333  0.66666667  0.97577702
   0.93313641  0.41763405  0.28259872
   0.41763405  0.93313641  0.78259872
   0.51550236  0.58236595  0.78259872
   0.48449764  0.06686359  0.28259872
 
 position of ions in cartesian coordinates  (Angst):
   2.88443425  4.86678427  1.20240757
   7.17220374  2.68905275  1.20240757
   5.43690669 -4.51587613  5.59234357
   2.88443425 -4.86678427  4.02149096
   2.17000731  2.45056124  2.77326019
   5.43690669  4.51587613  2.77326019
   3.14234817  0.06460120  1.20240757
   5.59207216  0.65400084  2.77326019
   7.17220374 -2.68905275  4.02149096
   3.14234817 -0.06460120  4.02149096
   5.59207216 -0.65400084  5.59234357
   2.17000731 -2.45056124  5.59234357
   2.25929777  0.66521432  2.63156312
   3.84610567  5.33122179  2.63156312
   2.25929777 -0.66521432  5.45064651
   7.09358272  1.62400211  2.63156312
   0.00000000  0.00000000  5.39531549
   2.42580306  3.18255444  4.41242212
   0.00000000  0.00000000  2.57623210
   4.39966205 -2.54014607  2.68251016
   4.83024959 -0.50952986  1.59333874
   3.84610567 -5.33122179  5.45064651
   7.09358272 -1.62400211  5.45064651
   4.39966205  2.54014607  5.50159355
   5.94293352 -3.92835392  1.59333874
   5.94293352  3.92835392  4.41242212
   4.83024959  0.50952986  4.41242212
   2.42580306 -3.18255444  1.59333874
 


--------------------------------------------------------------------------------------------------------


 k-point  1 :   0.0000 0.0000 0.0000  plane waves:    6841
 k-point  2 :   0.1667 0.0000 0.0000  plane waves:    6859
 k-point  3 :   0.3333 0.0000 0.0000  plane waves:    6869
 k-point  4 :   0.5000 0.0000 0.0000  plane waves:    6866
 k-point  5 :   0.1667 0.1667 0.0000  plane waves:    6879
 k-point  6 :   0.3333 0.1667 0.0000  plane waves:    6875
 k-point  7 :   0.3333 0.3333 0.0000  plane waves:    6900
 k-point  8 :   0.0000 0.0000 0.1250  plane waves:    6883
 k-point  9 :   0.1667 0.0000 0.1250  plane waves:    6869
 k-point 10 :   0.3333 0.0000 0.1250  plane waves:    6861
 k-point 11 :   0.5000 0.0000 0.1250  plane waves:    6864
 k-point 12 :   0.1667 0.1667 0.1250  plane waves:    6869
 k-point 13 :   0.3333 0.1667 0.1250  plane waves:    6862
 k-point 14 :   0.3333 0.3333 0.1250  plane waves:    6870
 k-point 15 :  -0.1667 0.3333 0.1250  plane waves:    6869
 k-point 16 :  -0.3333 0.5000 0.1250  plane waves:    6862
 k-point 17 :  -0.3333-0.3333 0.1250  plane waves:    6870
 k-point 18 :   0.0000 0.0000 0.2500  plane waves:    6894
 k-point 19 :   0.1667 0.0000 0.2500  plane waves:    6872
 k-point 20 :   0.3333 0.0000 0.2500  plane waves:    6860
 k-point 21 :   0.5000 0.0000 0.2500  plane waves:    6862
 k-point 22 :   0.1667 0.1667 0.2500  plane waves:    6865
 k-point 23 :   0.3333 0.1667 0.2500  plane waves:    6867
 k-point 24 :   0.3333 0.3333 0.2500  plane waves:    6864
 k-point 25 :  -0.1667 0.3333 0.2500  plane waves:    6865
 k-point 26 :  -0.3333 0.5000 0.2500  plane waves:    6867
 k-point 27 :  -0.3333-0.3333 0.2500  plane waves:    6864
 k-point 28 :   0.0000 0.0000 0.3750  plane waves:    6864
 k-point 29 :   0.1667 0.0000 0.3750  plane waves:    6875
 k-point 30 :   0.3333 0.0000 0.3750  plane waves:    6874
 k-point 31 :   0.5000 0.0000 0.3750  plane waves:    6866
 k-point 32 :   0.1667 0.1667 0.3750  plane waves:    6890
 k-point 33 :   0.3333 0.1667 0.3750  plane waves:    6863
 k-point 34 :   0.3333 0.3333 0.3750  plane waves:    6834
 k-point 35 :  -0.1667 0.3333 0.3750  plane waves:    6890
 k-point 36 :  -0.3333 0.5000 0.3750  plane waves:    6863
 k-point 37 :  -0.3333-0.3333 0.3750  plane waves:    6834
 k-point 38 :   0.0000 0.0000 0.5000  plane waves:    6882
 k-point 39 :   0.1667 0.0000 0.5000  plane waves:    6892
 k-point 40 :   0.3333 0.0000 0.5000  plane waves:    6884
 k-point 41 :   0.5000 0.0000 0.5000  plane waves:    6852
 k-point 42 :   0.1667 0.1667 0.5000  plane waves:    6868
 k-point 43 :   0.3333 0.1667 0.5000  plane waves:    6848
 k-point 44 :   0.3333 0.3333 0.5000  plane waves:    6846

 maximum and minimum number of plane-waves per node :      1755     1692

 maximum number of plane-waves:      6900
 maximum index in each direction: 
   IXMAX=   14   IYMAX=   14   IZMAX=    9
   IXMIN=  -14   IYMIN=  -14   IZMIN=   -9


 real space projection operators:
  total allocation   :       9765.62 KBytes
  max/ min on nodes  :       2446.50       2437.62


 parallel 3D FFT for wavefunctions:
    minimum data exchange during FFTs selected (reduces bandwidth)
 parallel 3D FFT for charge:
    minimum data exchange during FFTs selected (reduces bandwidth)


 total amount of memory used by VASP MPI-rank0    71436. kBytes
=======================================================================

   base      :      30000. kBytes
   nonlr-proj:       6744. kBytes
   fftplans  :       3664. kBytes
   grid      :       5832. kBytes
   one-center:         21. kBytes
   wavefun   :      25175. kBytes
 
     INWAV:  cpu time    0.0000: real time    0.0000
 Broyden mixing: mesh for mixing (old mesh)
   NGX = 29   NGY = 29   NGZ = 19
  (NGX  =120   NGY  =120   NGZ  = 80)
  gives a total of  15979 points

 initial charge density was supplied:
 charge density of overlapping atoms calculated
 number of electron     124.0000000 magnetization 
 keeping initial charge density in first step


--------------------------------------------------------------------------------------------------------


 Maximum index for non-local projection operator         1913
 Maximum index for augmentation-charges         1056 (set IRDMAX)


--------------------------------------------------------------------------------------------------------


 First call to EWALD:  gamma=   0.245
 Maximum number of real-space cells 3x 3x 3
 Maximum number of reciprocal cells 3x 3x 2

    FEWALD:  cpu time    0.0022: real time    0.0024


--------------------------------------- Iteration      1(   1)  ---------------------------------------


    POTLOK:  cpu time    0.0517: real time    0.0531
    SETDIJ:  cpu time    0.0045: real time    0.0045
     EDDAV:  cpu time    7.2462: real time    7.2462
       DOS:  cpu time    0.0032: real time    0.0032
    --------------------------------------------
      LOOP:  cpu time    7.3057: real time    7.3070

 eigenvalue-minimisations  :  7040
 total energy-change (2. order) : 0.4681912E+03  (-0.4861084E+04)
 number of electron     124.0000000 magnetization 
 augmentation part      124.0000000 magnetization 

 Free energy of the ion-electron system (eV)
  ---------------------------------------------------
  alpha Z        PSCENC =       128.97792015
  Ewald energy   TEWEN  =     -4117.50531433
  -Hartree energ DENC   =     -1110.47800039
  -exchange      EXHF   =         0.00000000
  -V(xc)+E(xc)   XCENC  =        93.39668945
  PAW double counting   =      3869.17357318    -3601.97287308
  entropy T*S    EENTRO =         0.00153401
  eigenvalues    EBANDS =       383.84565849
  atomic energy  EATOM  =      4822.75196862
  Solvation  Ediel_sol  =         0.00000000
  ---------------------------------------------------
  free energy    TOTEN  =       468.19115610 eV

  energy without entropy =      468.18962209  energy(sigma->0) =      468.19077260


--------------------------------------------------------------------------------------------------------




--------------------------------------- Iteration      1(   2)  ---------------------------------------


     EDDAV:  cpu time    7.7847: real time    7.7855
       DOS:  cpu time    0.0034: real time    0.0034
    --------------------------------------------
      LOOP:  cpu time    7.7880: real time    7.7888

 eigenvalue-minimisations  :  8888
 total energy-change (2. order) :-0.6366568E+03  (-0.6105157E+03)
 number of electron     124.0000000 magnetization 
 augmentation part      124.0000000 magnetization 

 Free energy of the ion-electron system (eV)
  ---------------------------------------------------
  alpha Z        PSCENC =       128.97792015
  Ewald energy   TEWEN  =     -4117.50531433
  -Hartree energ DENC   =     -1110.47800039
  -exchange      EXHF   =         0.00000000
  -V(xc)+E(xc)   XCENC  =        93.39668945
  PAW double counting   =      3869.17357318    -3601.97287308
  entropy T*S    EENTRO =         0.00347182
  eigenvalues    EBANDS =      -252.81309156
  atomic energy  EATOM  =      4822.75196862
  Solvation  Ediel_sol  =         0.00000000
  ---------------------------------------------------
  free energy    TOTEN  =      -168.46565614 eV

  energy without entropy =     -168.46912796  energy(sigma->0) =     -168.46652410


--------------------------------------------------------------------------------------------------------




--------------------------------------- Iteration      1(   3)  ---------------------------------------


     EDDAV:  cpu time    7.4238: real time    7.4257
       DOS:  cpu time    0.0034: real time    0.0034
    --------------------------------------------
      LOOP:  cpu time    7.4272: real time    7.4291

 eigenvalue-minimisations  :  8456
 total energy-change (2. order) :-0.5420968E+02  (-0.5368947E+02)
 number of electron     124.0000000 magnetization 
 augmentation part      124.0000000 magnetization 

 Free energy of the ion-electron system (eV)
  ---------------------------------------------------
  alpha Z        PSCENC =       128.97792015
  Ewald energy   TEWEN  =     -4117.50531433
  -Hartree energ DENC   =     -1110.47800039
  -exchange      EXHF   =         0.00000000
  -V(xc)+E(xc)   XCENC  =        93.39668945
  PAW double counting   =      3869.17357318    -3601.97287308
  entropy T*S    EENTRO =        -0.02397990
  eigenvalues    EBANDS =      -306.99531826
  atomic energy  EATOM  =      4822.75196862
  Solvation  Ediel_sol  =         0.00000000
  ---------------------------------------------------
  free energy    TOTEN  =      -222.67533456 eV

  energy without entropy =     -222.65135466  energy(sigma->0) =     -222.66933959


--------------------------------------------------------------------------------------------------------




--------------------------------------- Iteration      1(   4)  ---------------------------------------


     EDDAV:  cpu time    7.7013: real time    7.7032
       DOS:  cpu time    0.0036: real time    0.0036
    --------------------------------------------
      LOOP:  cpu time    7.7049: real time    7.7068

 eigenvalue-minimisations  :  8840
 total energy-change (2. order) :-0.1420385E+01  (-0.1411879E+01)
 number of electron     124.0000000 magnetization 
 augmentation part      124.0000000 magnetization 

 Free energy of the ion-electron system (eV)
  ---------------------------------------------------
  alpha Z        PSCENC =       128.97792015
  Ewald energy   TEWEN  =     -4117.50531433
  -Hartree energ DENC   =     -1110.47800039
  -exchange      EXHF   =         0.00000000
  -V(xc)+E(xc)   XCENC  =        93.39668945
  PAW double counting   =      3869.17357318    -3601.97287308
  entropy T*S    EENTRO =        -0.02649223
  eigenvalues    EBANDS =      -308.41319126
  atomic energy  EATOM  =      4822.75196862
  Solvation  Ediel_sol  =         0.00000000
  ---------------------------------------------------
  free energy    TOTEN  =      -224.09571990 eV

  energy without entropy =     -224.06922767  energy(sigma->0) =     -224.08909684


--------------------------------------------------------------------------------------------------------




--------------------------------------- Iteration      1(   5)  ---------------------------------------


     EDDAV:  cpu time    7.5584: real time    7.5604
       DOS:  cpu time    0.0035: real time    0.0035
    CHARGE:  cpu time    0.3751: real time    0.3751
    MIXING:  cpu time    0.0014: real time    0.0014
    --------------------------------------------
      LOOP:  cpu time    7.9385: real time    7.9405

 eigenvalue-minimisations  :  8624
 total energy-change (2. order) :-0.3737879E-01  (-0.3732829E-01)
 number of electron     124.0000003 magnetization 
 augmentation part        0.8317875 magnetization 

 Broyden mixing:
  rms(total) = 0.33289E+01    rms(broyden)= 0.33278E+01
  rms(prec ) = 0.48027E+01
  weight for this iteration     100.00

 Free energy of the ion-electron system (eV)
  ---------------------------------------------------
  alpha Z        PSCENC =       128.97792015
  Ewald energy   TEWEN  =     -4117.50531433
  -Hartree energ DENC   =     -1110.47800039
  -exchange      EXHF   =         0.00000000
  -V(xc)+E(xc)   XCENC  =        93.39668945
  PAW double counting   =      3869.17357318    -3601.97287308
  entropy T*S    EENTRO =        -0.02648482
  eigenvalues    EBANDS =      -308.45057746
  atomic energy  EATOM  =      4822.75196862
  Solvation  Ediel_sol  =         0.00000000
  ---------------------------------------------------
  free energy    TOTEN  =      -224.13309869 eV

  energy without entropy =     -224.10661387  energy(sigma->0) =     -224.12647748


--------------------------------------------------------------------------------------------------------




--------------------------------------- Iteration      1(   6)  ---------------------------------------


    POTLOK:  cpu time    0.0468: real time    0.0485
    SETDIJ:  cpu time    0.0049: real time    0.0050
    EDDIAG:  cpu time    0.9777: real time    0.9778
  RMM-DIIS:  cpu time    4.3513: real time    4.3514
    ORTHCH:  cpu time    0.0938: real time    0.0938
       DOS:  cpu time    0.0037: real time    0.0037
    CHARGE:  cpu time    0.3649: real time    0.3649
    MIXING:  cpu time    0.0013: real time    0.0014
    --------------------------------------------
      LOOP:  cpu time    5.8445: real time    5.8465

 eigenvalue-minimisations  :  7056
 total energy-change (2. order) : 0.2224403E+02  (-0.1131414E+02)
 number of electron     124.0000003 magnetization 
 augmentation part       -0.6599230 magnetization 

 Broyden mixing:
  rms(total) = 0.14646E+01    rms(broyden)= 0.14640E+01
  rms(prec ) = 0.16576E+01
  weight for this iteration     100.00

 eigenvalues of (default mixing * dielectric matrix)
  average eigenvalue GAMMA=   1.0495
  1.0495

 Free energy of the ion-electron system (eV)
  ---------------------------------------------------
  alpha Z        PSCENC =       128.97792015
  Ewald energy   TEWEN  =     -4117.50531433
  -Hartree energ DENC   =     -1296.21572984
  -exchange      EXHF   =         0.00000000
  -V(xc)+E(xc)   XCENC  =       106.30200340
  PAW double counting   =      7485.52461487    -7220.47277818
  entropy T*S    EENTRO =        -0.00238745
  eigenvalues    EBANDS =      -111.24936352
  atomic energy  EATOM  =      4822.75196862
  Solvation  Ediel_sol  =         0.00000000
  ---------------------------------------------------
  free energy    TOTEN  =      -201.88906629 eV

  energy without entropy =     -201.88667883  energy(sigma->0) =     -201.88846942


--------------------------------------------------------------------------------------------------------




--------------------------------------- Iteration      1(   7)  ---------------------------------------


    POTLOK:  cpu time    0.0440: real time    0.0456
    SETDIJ:  cpu time    0.0050: real time    0.0051
    EDDIAG:  cpu time    0.9863: real time    0.9866
  RMM-DIIS:  cpu time    4.6193: real time    4.6192
    ORTHCH:  cpu time    0.0964: real time    0.0964
       DOS:  cpu time    0.0038: real time    0.0038
    CHARGE:  cpu time    0.3712: real time    0.3712
    MIXING:  cpu time    0.0015: real time    0.0015
    --------------------------------------------
      LOOP:  cpu time    6.1274: real time    6.1295

 eigenvalue-minimisations  :  7496
 total energy-change (2. order) : 0.3609192E+00  (-0.3762030E+00)
 number of electron     124.0000003 magnetization 
 augmentation part       -0.7676678 magnetization 

 Broyden mixing:
  rms(total) = 0.83432E+00    rms(broyden)= 0.83424E+00
  rms(prec ) = 0.96335E+00
  weight for this iteration     100.00

 eigenvalues of (default mixing * dielectric matrix)
  average eigenvalue GAMMA=   1.5857
  1.1119  2.0595

 Free energy of the ion-electron system (eV)
  ---------------------------------------------------
  alpha Z        PSCENC =       128.97792015
  Ewald energy   TEWEN  =     -4117.50531433
  -Hartree energ DENC   =     -1305.39021890
  -exchange      EXHF   =         0.00000000
  -V(xc)+E(xc)   XCENC  =       107.70048630
  PAW double counting   =     10472.26711714   -10207.92710525
  entropy T*S    EENTRO =        -0.00969439
  eigenvalues    EBANDS =      -102.39330640
  atomic energy  EATOM  =      4822.75196862
  Solvation  Ediel_sol  =         0.00000000
  ---------------------------------------------------
  free energy    TOTEN  =      -201.52814707 eV

  energy without entropy =     -201.51845267  energy(sigma->0) =     -201.52572347


--------------------------------------------------------------------------------------------------------




--------------------------------------- Iteration      1(   8)  ---------------------------------------


    POTLOK:  cpu time    0.0444: real time    0.0460
    SETDIJ:  cpu time    0.0048: real time    0.0050
    EDDIAG:  cpu time    0.9870: real time    0.9870
  RMM-DIIS:  cpu time    4.3576: real time    4.3578
    ORTHCH:  cpu time    0.0903: real time    0.0903
       DOS:  cpu time    0.0037: real time    0.0037
    CHARGE:  cpu time    0.3686: real time    0.3686
    MIXING:  cpu time    0.0013: real time    0.0013
    --------------------------------------------
      LOOP:  cpu time    5.8577: real time    5.8596

 eigenvalue-minimisations  :  7040
 total energy-change (2. order) : 0.1266926E+00  (-0.1433756E+00)
 number of electron     124.0000003 magnetization 
 augmentation part       -0.6545084 magnetization 

 Broyden mixing:
  rms(total) = 0.17202E+00    rms(broyden)= 0.17199E+00
  rms(prec ) = 0.31834E+00
  weight for this iteration     100.00

 eigenvalues of (default mixing * dielectric matrix)
  average eigenvalue GAMMA=   1.3857
  2.2732  0.9420  0.9420

 Free energy of the ion-electron system (eV)
  ---------------------------------------------------
  alpha Z        PSCENC =       128.97792015
  Ewald energy   TEWEN  =     -4117.50531433
  -Hartree energ DENC   =     -1301.21161394
  -exchange      EXHF   =         0.00000000
  -V(xc)+E(xc)   XCENC  =       108.38186156
  PAW double counting   =     13982.60409876   -13718.92866228
  entropy T*S    EENTRO =        -0.00566259
  eigenvalues    EBANDS =      -106.46605045
  atomic energy  EATOM  =      4822.75196862
  Solvation  Ediel_sol  =         0.00000000
  ---------------------------------------------------
  free energy    TOTEN  =      -201.40145450 eV

  energy without entropy =     -201.39579191  energy(sigma->0) =     -201.40003885


--------------------------------------------------------------------------------------------------------




--------------------------------------- Iteration      1(   9)  ---------------------------------------


    POTLOK:  cpu time    0.0433: real time    0.0450
    SETDIJ:  cpu time    0.0044: real time    0.0044
    EDDIAG:  cpu time    0.9827: real time    0.9828
  RMM-DIIS:  cpu time    4.4413: real time    4.5706
    ORTHCH:  cpu time    0.0938: real time    0.0940
       DOS:  cpu time    0.0036: real time    0.0036
    CHARGE:  cpu time    0.3809: real time    0.3812
    MIXING:  cpu time    0.0014: real time    0.0014
    --------------------------------------------
      LOOP:  cpu time    5.9514: real time    6.0830

 eigenvalue-minimisations  :  7040
 total energy-change (2. order) : 0.6663239E-01  (-0.8201458E-02)
 number of electron     124.0000003 magnetization 
 augmentation part       -0.6633360 magnetization 

 Broyden mixing:
  rms(total) = 0.89172E-01    rms(broyden)= 0.89166E-01
  rms(prec ) = 0.14809E+00
  weight for this iteration     100.00

 eigenvalues of (default mixing * dielectric matrix)
  average eigenvalue GAMMA=   1.3161
  2.3530  1.1222  1.1222  0.6667

 Free energy of the ion-electron system (eV)
  ---------------------------------------------------
  alpha Z        PSCENC =       128.97792015
  Ewald energy   TEWEN  =     -4117.50531433
  -Hartree energ DENC   =     -1308.02469902
  -exchange      EXHF   =         0.00000000
  -V(xc)+E(xc)   XCENC  =       109.00277583
  PAW double counting   =     14623.90775301   -14360.37277593
  entropy T*S    EENTRO =        -0.00999196
  eigenvalues    EBANDS =      -100.06245850
  atomic energy  EATOM  =      4822.75196862
  Solvation  Ediel_sol  =         0.00000000
  ---------------------------------------------------
  free energy    TOTEN  =      -201.33482211 eV

  energy without entropy =     -201.32483016  energy(sigma->0) =     -201.33232412


--------------------------------------------------------------------------------------------------------




--------------------------------------- Iteration      1(  10)  ---------------------------------------


    POTLOK:  cpu time    0.0438: real time    0.0458
    SETDIJ:  cpu time    0.0043: real time    0.0043
    EDDIAG:  cpu time    1.1552: real time    1.1554
  RMM-DIIS:  cpu time    8.3712: real time    8.3680
    ORTHCH:  cpu time    5.0358: real time    5.0342
       DOS:  cpu time    0.0039: real time    0.0039
    CHARGE:  cpu time    1.9484: real time    1.9478
    MIXING:  cpu time    0.3024: real time    0.3023
    --------------------------------------------
      LOOP:  cpu time   16.8650: real time   16.8618

 eigenvalue-minimisations  :  7041
 total energy-change (2. order) : 0.1049621E-01  (-0.2063499E-01)
 number of electron     124.0000003 magnetization 
 augmentation part       -0.7261918 magnetization 

 Broyden mixing:
  rms(total) = 0.54327E-01    rms(broyden)= 0.54279E-01
  rms(prec ) = 0.85236E-01
  weight for this iteration     100.00

 eigenvalues of (default mixing * dielectric matrix)
  average eigenvalue GAMMA=   1.4164
  2.2513  2.2513  1.0028  1.0028  0.5736

 Free energy of the ion-electron system (eV)
  ---------------------------------------------------
  alpha Z        PSCENC =       128.97792015
  Ewald energy   TEWEN  =     -4117.50531433
  -Hartree energ DENC   =     -1316.44261907
  -exchange      EXHF   =         0.00000000
  -V(xc)+E(xc)   XCENC  =       109.56004943
  PAW double counting   =     14730.11224941   -14466.62685950
  entropy T*S    EENTRO =        -0.00747662
  eigenvalues    EBANDS =       -92.14424401
  atomic energy  EATOM  =      4822.75196862
  Solvation  Ediel_sol  =         0.00000000
  ---------------------------------------------------
  free energy    TOTEN  =      -201.32432590 eV

  energy without entropy =     -201.31684929  energy(sigma->0) =     -201.32245675


--------------------------------------------------------------------------------------------------------




--------------------------------------- Iteration      1(  11)  ---------------------------------------


    POTLOK:  cpu time    0.9934: real time    1.0177
    SETDIJ:  cpu time    0.1653: real time    0.1653
    EDDIAG:  cpu time   27.9764: real time   28.0206
  RMM-DIIS:  cpu time    8.2307: real time    8.2291
    ORTHCH:  cpu time    5.0476: real time    5.0472
       DOS:  cpu time    0.0038: real time    0.0038
    CHARGE:  cpu time    1.9249: real time    1.9249
    MIXING:  cpu time    0.2725: real time    0.2724
    --------------------------------------------
      LOOP:  cpu time   44.6147: real time   44.6811

 eigenvalue-minimisations  :  7043
 total energy-change (2. order) : 0.2254501E-02  (-0.1107516E-02)
 number of electron     124.0000003 magnetization 
 augmentation part       -0.7184649 magnetization 

 Broyden mixing:
  rms(total) = 0.25384E-01    rms(broyden)= 0.25382E-01
  rms(prec ) = 0.47459E-01
  weight for this iteration     100.00

 eigenvalues of (default mixing * dielectric matrix)
  average eigenvalue GAMMA=   1.4378
  2.4176  2.4176  1.1331  1.0596  1.0596  0.5392

 Free energy of the ion-electron system (eV)
  ---------------------------------------------------
  alpha Z        PSCENC =       128.97792015
  Ewald energy   TEWEN  =     -4117.50531433
  -Hartree energ DENC   =     -1315.06678445
  -exchange      EXHF   =         0.00000000
  -V(xc)+E(xc)   XCENC  =       109.47776376
  PAW double counting   =     14614.06706543   -14350.55572505
  entropy T*S    EENTRO =        -0.00959210
  eigenvalues    EBANDS =       -93.45937344
  atomic energy  EATOM  =      4822.75196862
  Solvation  Ediel_sol  =         0.00000000
  ---------------------------------------------------
  free energy    TOTEN  =      -201.32207140 eV

  energy without entropy =     -201.31247930  energy(sigma->0) =     -201.31967338


--------------------------------------------------------------------------------------------------------




--------------------------------------- Iteration      1(  12)  ---------------------------------------


    POTLOK:  cpu time    0.4545: real time    0.4560
    SETDIJ:  cpu time    0.0048: real time    0.0048
    EDDIAG:  cpu time    0.9739: real time    0.9739
  RMM-DIIS:  cpu time    4.3788: real time    4.3789
    ORTHCH:  cpu time    0.0920: real time    0.0920
       DOS:  cpu time    0.0039: real time    0.0039
    CHARGE:  cpu time    0.3831: real time    0.3831
    MIXING:  cpu time    0.0016: real time    0.0016
    --------------------------------------------
      LOOP:  cpu time    6.2927: real time    6.2942

 eigenvalue-minimisations  :  7040
 total energy-change (2. order) : 0.7970504E-03  (-0.6808801E-03)
 number of electron     124.0000003 magnetization 
 augmentation part       -0.7109197 magnetization 

 Broyden mixing:
  rms(total) = 0.11018E-01    rms(broyden)= 0.11014E-01
  rms(prec ) = 0.28813E-01
  weight for this iteration     100.00

 eigenvalues of (default mixing * dielectric matrix)
  average eigenvalue GAMMA=   1.4536
  2.5297  2.5297  1.6458  1.0160  1.0160  0.9178  0.5203

 Free energy of the ion-electron system (eV)
  ---------------------------------------------------
  alpha Z        PSCENC =       128.97792015
  Ewald energy   TEWEN  =     -4117.50531433
  -Hartree energ DENC   =     -1314.24802727
  -exchange      EXHF   =         0.00000000
  -V(xc)+E(xc)   XCENC  =       109.43798510
  PAW double counting   =     14587.35455318   -14323.83981388
  entropy T*S    EENTRO =        -0.00836736
  eigenvalues    EBANDS =       -94.24217857
  atomic energy  EATOM  =      4822.75196862
  Solvation  Ediel_sol  =         0.00000000
  ---------------------------------------------------
  free energy    TOTEN  =      -201.32127435 eV

  energy without entropy =     -201.31290699  energy(sigma->0) =     -201.31918251


--------------------------------------------------------------------------------------------------------




--------------------------------------- Iteration      1(  13)  ---------------------------------------


    POTLOK:  cpu time    0.0438: real time    0.0456
    SETDIJ:  cpu time    0.0044: real time    0.0044
    EDDIAG:  cpu time    0.9746: real time    0.9753
  RMM-DIIS:  cpu time    3.9572: real time    3.9602
    ORTHCH:  cpu time    0.0940: real time    0.0940
       DOS:  cpu time    0.0037: real time    0.0037
    CHARGE:  cpu time    0.3818: real time    0.3820
    MIXING:  cpu time    0.0016: real time    0.0016
    --------------------------------------------
      LOOP:  cpu time    5.4610: real time    5.4668

 eigenvalue-minimisations  :  6130
 total energy-change (2. order) : 0.2681738E-03  (-0.7454355E-04)
 number of electron     124.0000003 magnetization 
 augmentation part       -0.7082828 magnetization 

 Broyden mixing:
  rms(total) = 0.34751E-02    rms(broyden)= 0.34691E-02
  rms(prec ) = 0.63069E-02
  weight for this iteration     100.00

 eigenvalues of (default mixing * dielectric matrix)
  average eigenvalue GAMMA=   1.4397
  2.7721  2.4352  1.8151  1.0296  1.0296  1.0439  0.8728  0.5189

 Free energy of the ion-electron system (eV)
  ---------------------------------------------------
  alpha Z        PSCENC =       128.97792015
  Ewald energy   TEWEN  =     -4117.50531433
  -Hartree energ DENC   =     -1314.23287865
  -exchange      EXHF   =         0.00000000
  -V(xc)+E(xc)   XCENC  =       109.44431670
  PAW double counting   =     14558.46221369   -14294.94530184
  entropy T*S    EENTRO =        -0.00916511
  eigenvalues    EBANDS =       -94.26476540
  atomic energy  EATOM  =      4822.75196862
  Solvation  Ediel_sol  =         0.00000000
  ---------------------------------------------------
  free energy    TOTEN  =      -201.32100618 eV

  energy without entropy =     -201.31184107  energy(sigma->0) =     -201.31871490


--------------------------------------------------------------------------------------------------------




--------------------------------------- Iteration      1(  14)  ---------------------------------------


    POTLOK:  cpu time    0.0436: real time    0.0454
    SETDIJ:  cpu time    0.0044: real time    0.0044
    EDDIAG:  cpu time    0.9730: real time    0.9735
  RMM-DIIS:  cpu time    2.9747: real time    2.9759
    ORTHCH:  cpu time    0.0945: real time    0.0945
       DOS:  cpu time    0.0038: real time    0.0038
    --------------------------------------------
      LOOP:  cpu time    4.0939: real time    4.0974

 eigenvalue-minimisations  :  4261
 total energy-change (2. order) : 0.2037268E-04  (-0.5497688E-05)
 number of electron     124.0000003 magnetization 
 augmentation part       -0.7082828 magnetization 

 Free energy of the ion-electron system (eV)
  ---------------------------------------------------
  alpha Z        PSCENC =       128.97792015
  Ewald energy   TEWEN  =     -4117.50531433
  -Hartree energ DENC   =     -1314.42093268
  -exchange      EXHF   =         0.00000000
  -V(xc)+E(xc)   XCENC  =       109.45690104
  PAW double counting   =     14555.40455766   -14291.88808717
  entropy T*S    EENTRO =        -0.00908343
  eigenvalues    EBANDS =       -94.08891566
  atomic energy  EATOM  =      4822.75196862
  Solvation  Ediel_sol  =         0.00000000
  ---------------------------------------------------
  free energy    TOTEN  =      -201.32098581 eV

  energy without entropy =     -201.31190238  energy(sigma->0) =     -201.31871495


--------------------------------------------------------------------------------------------------------




 average (electrostatic) potential at core
  the test charge radii are     0.7089  0.9892
  (the norm of the test charge is              1.0000)
       1 -62.3523       2 -62.3523       3 -62.3382       4 -62.3523       5 -62.3382
       6 -62.3382       7 -62.3523       8 -62.3382       9 -62.3523      10 -62.3523
      11 -62.3382      12 -62.3382      13 -83.6907      14 -83.6907      15 -83.6907
      16 -83.6907      17 -82.6117      18 -83.4988      19 -82.6117      20 -81.9882
      21 -83.4988      22 -83.6907      23 -83.6907      24 -81.9882      25 -83.4988
      26 -83.4988      27 -83.4988      28 -83.4988
 
 
 
 E-fermi :   6.6513     XC(G=0): -10.1477     alpha+bet :-12.9082


 k-point     1 :       0.0000    0.0000    0.0000
  band No.  band energies     occupation 
      1     -11.3415      2.00000
      2     -10.7395      2.00000
      3     -10.7395      2.00000
      4      -9.9820      2.00000
      5      -9.9820      2.00000
      6      -9.3441      2.00000
      7      -9.0288      2.00000
      8      -8.9984      2.00000
      9      -8.9984      2.00000
     10      -8.9598      2.00000
     11      -8.8943      2.00000
     12      -8.8943      2.00000
     13      -4.4649      2.00000
     14      -3.5723      2.00000
     15      -3.5723      2.00000
     16      -3.2907      2.00000
     17      -2.7580      2.00000
     18      -2.4283      2.00000
     19      -2.4283      2.00000
     20      -2.0500      2.00000
     21      -1.5111      2.00000
     22      -1.5111      2.00000
     23      -1.1336      2.00000
     24      -0.9184      2.00000
     25      -0.9184      2.00000
     26      -0.5605      2.00000
     27      -0.4952      2.00000
     28       0.2144      2.00000
     29       0.3314      2.00000
     30       0.3314      2.00000
     31       0.5031      2.00000
     32       0.8565      2.00000
     33       1.0553      2.00000
     34       1.0553      2.00000
     35       1.2362      2.00000
     36       1.2362      2.00000
     37       1.5677      2.00000
     38       1.6563      2.00000
     39       1.6563      2.00000
     40       1.8986      2.00000
     41       1.8986      2.00000
     42       2.6468      2.00000
     43       2.6651      2.00000
     44       2.6651      2.00000
     45       2.8040      2.00000
     46       2.8040      2.00000
     47       3.3077      2.00000
     48       3.3913      2.00000
     49       3.5486      2.00000
     50       3.5486      2.00000
     51       3.5587      2.00000
     52       4.0731      2.00000
     53       4.2600      2.00000
     54       4.3210      2.00000
     55       4.3210      2.00000
     56       4.6768      2.00000
     57       4.6768      2.00000
     58       5.2678      2.00000
     59       5.2678      2.00000
     60       5.7281      2.00000
     61       5.7281      2.00000
     62       6.3279      1.99981
     63       6.8885      0.00592
     64       8.4173      0.00000
     65       8.4173      0.00000
     66       8.8468      0.00000
     67       9.1833      0.00000
     68       9.1833      0.00000
     69       9.4620      0.00000
     70       9.4621      0.00000
     71      10.2619      0.00000
     72      10.2877      0.00000
     73      10.5164      0.00000
     74      10.5186      0.00000
     75      10.8772      0.00000
     76      11.0412      0.00000
     77      11.3173      0.00000
     78      11.3767      0.00000
     79      11.4978      0.00000
     80      11.5317      0.00000

 k-point     2 :       0.1667    0.0000    0.0000
  band No.  band energies     occupation 
      1     -11.3132      2.00000
      2     -10.7968      2.00000
      3     -10.7610      2.00000
      4      -9.9523      2.00000
      5      -9.9203      2.00000
      6      -9.3190      2.00000
      7      -9.1396      2.00000
      8      -9.0126      2.00000
      9      -8.9886      2.00000
     10      -8.9536      2.00000
     11      -8.8940      2.00000
     12      -8.8597      2.00000
     13      -4.3909      2.00000
     14      -3.5857      2.00000
     15      -3.4999      2.00000
     16      -3.2466      2.00000
     17      -2.8089      2.00000
     18      -2.5182      2.00000
     19      -2.4313      2.00000
     20      -2.2025      2.00000
     21      -1.7394      2.00000
     22      -1.4934      2.00000
     23      -1.1648      2.00000
     24      -0.9166      2.00000
     25      -0.7277      2.00000
     26      -0.4573      2.00000
     27      -0.3354      2.00000
     28       0.2388      2.00000
     29       0.2540      2.00000
     30       0.2765      2.00000
     31       0.5656      2.00000
     32       0.7709      2.00000
     33       1.0405      2.00000
     34       1.0655      2.00000
     35       1.2404      2.00000
     36       1.2648      2.00000
     37       1.5609      2.00000
     38       1.6544      2.00000
     39       1.8151      2.00000
     40       1.9321      2.00000
     41       1.9564      2.00000
     42       2.5240      2.00000
     43       2.5688      2.00000
     44       2.6488      2.00000
     45       2.8391      2.00000
     46       2.8821      2.00000
     47       3.1923      2.00000
     48       3.3024      2.00000
     49       3.4042      2.00000
     50       3.6498      2.00000
     51       3.8635      2.00000
     52       4.0792      2.00000
     53       4.2241      2.00000
     54       4.3522      2.00000
     55       4.3770      2.00000
     56       4.6025      2.00000
     57       4.6725      2.00000
     58       5.1626      2.00000
     59       5.2026      2.00000
     60       5.6052      2.00000
     61       5.7198      2.00000
     62       6.3606      1.99909
     63       6.8322      0.00611
     64       8.5225      0.00000
     65       8.5886      0.00000
     66       9.0320      0.00000
     67       9.1396      0.00000
     68       9.1691      0.00000
     69       9.5450      0.00000
     70       9.6172      0.00000
     71       9.9462      0.00000
     72      10.2522      0.00000
     73      10.4184      0.00000
     74      10.7586      0.00000
     75      10.9371      0.00000
     76      11.0069      0.00000
     77      11.0957      0.00000
     78      11.2111      0.00000
     79      11.3056      0.00000
     80      11.5872      0.00000

 k-point     3 :       0.3333    0.0000    0.0000
  band No.  band energies     occupation 
      1     -11.2340      2.00000
      2     -10.9272      2.00000
      3     -10.7983      2.00000
      4      -9.9054      2.00000
      5      -9.7599      2.00000
      6      -9.3312      2.00000
      7      -9.2514      2.00000
      8      -9.0570      2.00000
      9      -8.9928      2.00000
     10      -8.9429      2.00000
     11      -8.8926      2.00000
     12      -8.8339      2.00000
     13      -4.1812      2.00000
     14      -3.6268      2.00000
     15      -3.3576      2.00000
     16      -3.2003      2.00000
     17      -2.9309      2.00000
     18      -2.6392      2.00000
     19      -2.4795      2.00000
     20      -2.3934      2.00000
     21      -2.0961      2.00000
     22      -1.3845      2.00000
     23      -1.1924      2.00000
     24      -1.0297      2.00000
     25      -0.5494      2.00000
     26      -0.2341      2.00000
     27      -0.1219      2.00000
     28       0.0942      2.00000
     29       0.3218      2.00000
     30       0.3678      2.00000
     31       0.6572      2.00000
     32       0.7342      2.00000
     33       0.9840      2.00000
     34       1.0199      2.00000
     35       1.1657      2.00000
     36       1.3102      2.00000
     37       1.5103      2.00000
     38       1.6893      2.00000
     39       1.9407      2.00000
     40       2.0262      2.00000
     41       2.0910      2.00000
     42       2.3959      2.00000
     43       2.4158      2.00000
     44       2.6275      2.00000
     45       2.8288      2.00000
     46       2.9999      2.00000
     47       3.2123      2.00000
     48       3.3461      2.00000
     49       3.4048      2.00000
     50       3.7260      2.00000
     51       3.8688      2.00000
     52       4.1107      2.00000
     53       4.1172      2.00000
     54       4.2871      2.00000
     55       4.4508      2.00000
     56       4.6079      2.00000
     57       4.6501      2.00000
     58       4.9653      2.00000
     59       5.0943      2.00000
     60       5.3878      2.00000
     61       5.7573      2.00000
     62       6.4421      1.99041
     63       6.7178     -0.02171
     64       8.7396      0.00000
     65       8.9191      0.00000
     66       9.0190      0.00000
     67       9.2512      0.00000
     68       9.4016      0.00000
     69       9.6499      0.00000
     70       9.8230      0.00000
     71       9.8368      0.00000
     72      10.0974      0.00000
     73      10.3511      0.00000
     74      10.5926      0.00000
     75      10.7895      0.00000
     76      10.8812      0.00000
     77      10.9586      0.00000
     78      11.1828      0.00000
     79      11.2758      0.00000
     80      11.3259      0.00000

 k-point     4 :       0.5000    0.0000    0.0000
  band No.  band energies     occupation 
      1     -11.1536      2.00000
      2     -11.0306      2.00000
      3     -10.8148      2.00000
      4      -9.8864      2.00000
      5      -9.5511      2.00000
      6      -9.5481      2.00000
      7      -9.1911      2.00000
      8      -9.1053      2.00000
      9      -8.9949      2.00000
     10      -8.9378      2.00000
     11      -8.8914      2.00000
     12      -8.8296      2.00000
     13      -3.9699      2.00000
     14      -3.7291      2.00000
     15      -3.3889      2.00000
     16      -3.1668      2.00000
     17      -2.8631      2.00000
     18      -2.6814      2.00000
     19      -2.6116      2.00000
     20      -2.4074      2.00000
     21      -2.2720      2.00000
     22      -1.3221      2.00000
     23      -1.1767      2.00000
     24      -1.1284      2.00000
     25      -0.4028      2.00000
     26      -0.3059      2.00000
     27      -0.0097      2.00000
     28       0.0354      2.00000
     29       0.4174      2.00000
     30       0.4855      2.00000
     31       0.5870      2.00000
     32       0.8641      2.00000
     33       0.9732      2.00000
     34       1.0376      2.00000
     35       1.0401      2.00000
     36       1.3516      2.00000
     37       1.3814      2.00000
     38       1.7162      2.00000
     39       1.9215      2.00000
     40       2.0570      2.00000
     41       2.1854      2.00000
     42       2.3320      2.00000
     43       2.4411      2.00000
     44       2.5578      2.00000
     45       2.8213      2.00000
     46       3.1086      2.00000
     47       3.2509      2.00000
     48       3.4321      2.00000
     49       3.5368      2.00000
     50       3.7167      2.00000
     51       3.7408      2.00000
     52       3.9969      2.00000
     53       4.1594      2.00000
     54       4.2095      2.00000
     55       4.4404      2.00000
     56       4.5687      2.00000
     57       4.6213      2.00000
     58       4.8955      2.00000
     59       5.1885      2.00000
     60       5.2291      2.00000
     61       5.7953      2.00000
     62       6.5110      2.03739
     63       6.6385      1.26898
     64       8.8560      0.00000
     65       8.9256      0.00000
     66       9.2154      0.00000
     67       9.2367      0.00000
     68       9.4903      0.00000
     69       9.7097      0.00000
     70       9.7879      0.00000
     71       9.8410      0.00000
     72      10.2762      0.00000
     73      10.3727      0.00000
     74      10.5067      0.00000
     75      10.6618      0.00000
     76      10.6791      0.00000
     77      10.8785      0.00000
     78      10.8964      0.00000
     79      11.1252      0.00000
     80      11.2456      0.00000

 k-point     5 :       0.1667    0.1667    0.0000
  band No.  band energies     occupation 
      1     -11.2591      2.00000
      2     -10.8799      2.00000
      3     -10.8016      2.00000
      4      -9.8864      2.00000
      5      -9.8378      2.00000
      6      -9.2777      2.00000
      7      -9.2717      2.00000
      8      -9.0313      2.00000
      9      -8.9998      2.00000
     10      -8.9454      2.00000
     11      -8.8915      2.00000
     12      -8.8405      2.00000
     13      -4.2471      2.00000
     14      -3.5868      2.00000
     15      -3.4156      2.00000
     16      -3.2090      2.00000
     17      -2.8787      2.00000
     18      -2.6691      2.00000
     19      -2.4286      2.00000
     20      -2.3766      2.00000
     21      -1.9469      2.00000
     22      -1.4838      2.00000
     23      -1.1840      2.00000
     24      -0.9787      2.00000
     25      -0.6000      2.00000
     26      -0.2587      2.00000
     27      -0.1425      2.00000
     28       0.1158      2.00000
     29       0.2646      2.00000
     30       0.3429      2.00000
     31       0.6735      2.00000
     32       0.7074      2.00000
     33       0.9632      2.00000
     34       1.1287      2.00000
     35       1.1355      2.00000
     36       1.2891      2.00000
     37       1.5367      2.00000
     38       1.6883      2.00000
     39       1.9632      2.00000
     40       1.9893      2.00000
     41       1.9915      2.00000
     42       2.4245      2.00000
     43       2.4506      2.00000
     44       2.6507      2.00000
     45       2.8554      2.00000
     46       2.9338      2.00000
     47       3.1883      2.00000
     48       3.3403      2.00000
     49       3.3928      2.00000
     50       3.7718      2.00000
     51       3.8662      2.00000
     52       4.0808      2.00000
     53       4.1573      2.00000
     54       4.3561      2.00000
     55       4.4534      2.00000
     56       4.4883      2.00000
     57       4.6812      2.00000
     58       4.9911      2.00000
     59       5.1315      2.00000
     60       5.4693      2.00000
     61       5.7331      2.00000
     62       6.4170      1.99366
     63       6.7490     -0.10303
     64       8.7055      0.00000
     65       8.8185      0.00000
     66       9.0849      0.00000
     67       9.1109      0.00000
     68       9.3675      0.00000
     69       9.6960      0.00000
     70       9.7864      0.00000
     71       9.8077      0.00000
     72      10.1260      0.00000
     73      10.4026      0.00000
     74      10.5749      0.00000
     75      10.7884      0.00000
     76      10.9310      0.00000
     77      10.9903      0.00000
     78      11.0586      0.00000
     79      11.4481      0.00000
     80      11.5489      0.00000

 k-point     6 :       0.3333    0.1667    0.0000
  band No.  band energies     occupation 
      1     -11.1651      2.00000
      2     -10.9987      2.00000
      3     -10.8409      2.00000
      4      -9.8298      2.00000
      5      -9.6807      2.00000
      6      -9.4750      2.00000
      7      -9.1979      2.00000
      8      -9.0732      2.00000
      9      -9.0114      2.00000
     10      -8.9378      2.00000
     11      -8.8850      2.00000
     12      -8.8394      2.00000
     13      -3.9968      2.00000
     14      -3.6230      2.00000
     15      -3.4168      2.00000
     16      -3.2777      2.00000
     17      -2.8666      2.00000
     18      -2.6897      2.00000
     19      -2.5428      2.00000
     20      -2.4163      2.00000
     21      -2.2122      2.00000
     22      -1.4043      2.00000
     23      -1.1942      2.00000
     24      -1.1111      2.00000
     25      -0.4403      2.00000
     26      -0.1860      2.00000
     27      -0.0362      2.00000
     28       0.0119      2.00000
     29       0.4349      2.00000
     30       0.4692      2.00000
     31       0.6565      2.00000
     32       0.8355      2.00000
     33       0.8921      2.00000
     34       1.0352      2.00000
     35       1.1406      2.00000
     36       1.2823      2.00000
     37       1.4003      2.00000
     38       1.7679      2.00000
     39       1.9347      2.00000
     40       1.9865      2.00000
     41       2.1058      2.00000
     42       2.3117      2.00000
     43       2.3603      2.00000
     44       2.6936      2.00000
     45       2.8266      2.00000
     46       3.1390      2.00000
     47       3.2833      2.00000
     48       3.4531      2.00000
     49       3.4777      2.00000
     50       3.7679      2.00000
     51       3.8433      2.00000
[...]
     33       0.6013      2.00000
     34       0.6322      2.00000
     35       0.9655      2.00000
     36       1.0323      2.00000
     37       1.0833      2.00000
     38       1.2623      2.00000
     39       1.3629      2.00000
     40       1.5006      2.00000
     41       2.0952      2.00000
     42       2.1870      2.00000
     43       2.2261      2.00000
     44       2.3216      2.00000
     45       2.6413      2.00000
     46       2.9094      2.00000
     47       2.9133      2.00000
     48       3.2880      2.00000
     49       3.3041      2.00000
     50       3.4410      2.00000
     51       3.8605      2.00000
     52       3.8809      2.00000
     53       4.3659      2.00000
     54       4.3711      2.00000
     55       4.5565      2.00000
     56       4.5575      2.00000
     57       5.1358      2.00000
     58       5.1477      2.00000
     59       5.2573      2.00000
     60       5.2898      2.00000
     61       6.6528      2.09752
     62       6.6737      2.02023
     63       6.8860     -0.02787
     64       6.8929     -0.01783
     65       9.1938      0.00000
     66       9.2506      0.00000
     67       9.4649      0.00000
     68       9.5130      0.00000
     69      10.1020      0.00000
     70      10.1173      0.00000
     71      10.2050      0.00000
     72      10.3267      0.00000
     73      10.5035      0.00000
     74      10.6213      0.00000
     75      10.6821      0.00000
     76      10.7597      0.00000
     77      10.9351      0.00000
     78      11.0032      0.00000
     79      11.1527      0.00000
     80      11.3031      0.00000

 k-point    43 :       0.3333    0.1667    0.5000
  band No.  band energies     occupation 
      1     -10.6932      2.00000
      2     -10.6929      2.00000
      3     -10.3682      2.00000
      4     -10.3636      2.00000
      5     -10.3213      2.00000
      6     -10.3128      2.00000
      7      -9.4473      2.00000
      8      -9.4335      2.00000
      9      -9.3969      2.00000
     10      -9.3877      2.00000
     11      -8.9648      2.00000
     12      -8.9643      2.00000
     13      -3.4350      2.00000
     14      -3.4119      2.00000
     15      -3.0517      2.00000
     16      -3.0060      2.00000
     17      -2.7135      2.00000
     18      -2.6779      2.00000
     19      -2.0829      2.00000
     20      -2.0781      2.00000
     21      -1.6095      2.00000
     22      -1.5882      2.00000
     23      -0.9575      2.00000
     24      -0.8032      2.00000
     25      -0.6970      2.00000
     26      -0.5571      2.00000
     27      -0.4071      2.00000
     28      -0.3449      2.00000
     29      -0.1650      2.00000
     30       0.0381      2.00000
     31       0.3045      2.00000
     32       0.3484      2.00000
     33       0.4839      2.00000
     34       0.6156      2.00000
     35       0.8994      2.00000
     36       0.9207      2.00000
     37       1.0188      2.00000
     38       1.3441      2.00000
     39       1.5104      2.00000
     40       1.6721      2.00000
     41       2.1362      2.00000
     42       2.1479      2.00000
     43       2.2966      2.00000
     44       2.3424      2.00000
     45       2.7516      2.00000
     46       2.9572      2.00000
     47       3.2106      2.00000
     48       3.4126      2.00000
     49       3.5768      2.00000
     50       3.6704      2.00000
     51       3.8254      2.00000
     52       3.8607      2.00000
     53       4.1322      2.00000
     54       4.1712      2.00000
     55       4.4973      2.00000
     56       4.5086      2.00000
     57       4.9189      2.00000
     58       4.9376      2.00000
     59       5.1755      2.00000
     60       5.2323      2.00000
     61       6.7132      1.53610
     62       6.7347      1.11209
     63       6.8556     -0.08328
     64       6.8656     -0.06491
     65       9.1038      0.00000
     66       9.1511      0.00000
     67       9.4780      0.00000
     68       9.5368      0.00000
     69       9.8774      0.00000
     70       9.9900      0.00000
     71      10.2227      0.00000
     72      10.3091      0.00000
     73      10.5589      0.00000
     74      10.6728      0.00000
     75      10.7763      0.00000
     76      10.8564      0.00000
     77      10.9737      0.00000
     78      11.0627      0.00000
     79      11.2757      0.00000
     80      11.3791      0.00000

 k-point    44 :       0.3333    0.3333    0.5000
  band No.  band energies     occupation 
      1     -10.6822      2.00000
      2     -10.6822      2.00000
      3     -10.3598      2.00000
      4     -10.3598      2.00000
      5     -10.3509      2.00000
      6     -10.3337      2.00000
      7      -9.4302      2.00000
      8      -9.4027      2.00000
      9      -9.4027      2.00000
     10      -9.3990      2.00000
     11      -8.9726      2.00000
     12      -8.9726      2.00000
     13      -3.2719      2.00000
     14      -3.1700      2.00000
     15      -3.1700      2.00000
     16      -3.1456      2.00000
     17      -2.8445      2.00000
     18      -2.8445      2.00000
     19      -1.9426      2.00000
     20      -1.9421      2.00000
     21      -1.7211      2.00000
     22      -1.7211      2.00000
     23      -0.7671      2.00000
     24      -0.7671      2.00000
     25      -0.5940      2.00000
     26      -0.5197      2.00000
     27      -0.5197      2.00000
     28      -0.5043      2.00000
     29      -0.0761      2.00000
     30      -0.0761      2.00000
     31       0.3343      2.00000
     32       0.3343      2.00000
     33       0.4460      2.00000
     34       0.7241      2.00000
     35       0.8042      2.00000
     36       0.8042      2.00000
     37       0.9348      2.00000
     38       1.4850      2.00000
     39       1.4850      2.00000
     40       1.7383      2.00000
     41       2.1415      2.00000
     42       2.1415      2.00000
     43       2.3824      2.00000
     44       2.6300      2.00000
     45       2.6918      2.00000
     46       2.6918      2.00000
     47       3.4592      2.00000
     48       3.4592      2.00000
     49       3.5870      2.00000
     50       3.7527      2.00000
     51       3.7527      2.00000
     52       3.8333      2.00000
     53       4.1111      2.00000
     54       4.1111      2.00000
     55       4.5047      2.00000
     56       4.5047      2.00000
     57       4.9118      2.00000
     58       4.9118      2.00000
     59       5.0615      2.00000
     60       5.1514      2.00000
     61       6.7297      1.21508
     62       6.7448      0.89729
     63       6.8562     -0.08226
     64       6.8562     -0.08226
     65       9.1514      0.00000
     66       9.1514      0.00000
     67       9.4652      0.00000
     68       9.4652      0.00000
     69       9.7172      0.00000
     70       9.8940      0.00000
     71      10.2792      0.00000
     72      10.2792      0.00000
     73      10.6969      0.00000
     74      10.7847      0.00000
     75      10.8475      0.00000
     76      10.8475      0.00000
     77      11.1013      0.00000
     78      11.1182      0.00000
     79      11.1183      0.00000
     80      11.3349      0.00000


--------------------------------------------------------------------------------------------------------


 soft charge-density along one line, spin component           1
         0         1         2         3         4         5         6         7         8         9
 total charge-density along one line
 
 pseudopotential strength for first ion, spin component:           1
 12.572  15.072  -0.001  -0.001   0.001  -0.002  -0.002   0.002
 15.072  18.069  -0.001  -0.001   0.001  -0.003  -0.003   0.003
 -0.001  -0.001  -5.969   0.012  -0.015  -7.986   0.019  -0.024
 -0.001  -0.001   0.012  -5.978  -0.013   0.019  -8.000  -0.021
  0.001   0.001  -0.015  -0.013  -5.966  -0.024  -0.021  -7.981
 -0.002  -0.003  -7.986   0.019  -0.024  -9.975   0.029  -0.037
 -0.002  -0.003   0.019  -8.000  -0.021   0.029  -9.997  -0.032
  0.002   0.003  -0.024  -0.021  -7.981  -0.037  -0.032  -9.967
 total augmentation occupancy for first ion, spin component:           1
  7.110  -3.209   0.129   0.124  -0.142  -0.038  -0.038   0.045
 -3.209   1.569  -0.114  -0.104   0.122   0.026   0.026  -0.030
  0.129  -0.114   2.144  -0.080   0.118  -0.339   0.053  -0.068
  0.124  -0.104  -0.080   2.263   0.088   0.052  -0.388  -0.057
 -0.142   0.122   0.118   0.088   2.139  -0.068  -0.057  -0.327
 -0.038   0.026  -0.339   0.052  -0.068   0.063  -0.014   0.019
 -0.038   0.026   0.053  -0.388  -0.057  -0.014   0.076   0.015
  0.045  -0.030  -0.068  -0.057  -0.327   0.019   0.015   0.060


------------------------ aborting loop because EDIFF is reached ----------------------------------------


    CHARGE:  cpu time    0.3861: real time    0.3862
    FORLOC:  cpu time    0.0120: real time    0.0121
    FORNL :  cpu time    2.1025: real time    2.1034
    STRESS:  cpu time    6.3347: real time    6.3384
    FORCOR:  cpu time    0.0561: real time    0.0562
    FORHAR:  cpu time    0.0205: real time    0.0205
    MIXING:  cpu time    0.0011: real time    0.0011
    OFIELD:  cpu time    0.0000: real time    0.0000

  FORCE on cell =-STRESS in cart. coord.  units (eV):
  Direction    XX          YY          ZZ          XY          YZ          ZX
  --------------------------------------------------------------------------------------
  Alpha Z   128.97792   128.97792   128.97792
  Ewald   -1618.32045 -1618.32045  -850.21939     0.00000     0.00000     0.00000
  Hartree   323.85528   323.85528   688.60719    -0.00000    -0.00000    -0.00000
  E(xc)    -469.65609  -469.65608  -467.60269     0.00000     0.00000     0.00000
  Local    -417.69332  -417.69281 -1489.74201     0.00000     0.00000    -0.00000
  n-local   429.50785   429.49788   424.82279     0.02848     0.04075     0.21819
  augment   -75.07720   -75.07768   -74.41266     0.00000     0.00000    -0.00000
  Kinetic  1680.19284  1681.61965  1612.63648     0.31893     0.28950    -0.47053
  Fock        0.00000     0.00000     0.00000     0.00000     0.00000     0.00000
  -------------------------------------------------------------------------------------
  Total     -17.50474   -17.50474   -26.93237     0.00000    -0.00000     0.00000
  in kB     -74.18208   -74.18208  -114.13476     0.00000    -0.00000     0.00000
  external pressure =      -87.50 kB  Pullay stress =        0.00 kB


 VOLUME and BASIS-vectors are now :
 -----------------------------------------------------------------------------
  energy-cutoff  :      400.00
  volume of cell :      378.07
      direct lattice vectors                 reciprocal lattice vectors
     4.399662054 -7.620438214  0.000000000     0.113645092 -0.065613025  0.000000000
     4.399662054  7.620438214  0.000000000     0.113645092  0.065613025  0.000000000
     0.000000000  0.000000000  5.638166774     0.000000000  0.000000000  0.177362615

  length of vectors
     8.799324108  8.799324108  5.638166774     0.131226049  0.131226049  0.177362615


 FORCES acting on ions
    electron-ion (+dipol)            ewald-force                    non-local-force                 convergence-correction
 -----------------------------------------------------------------------------------------------
   -.352E+02 -.108E+02 0.698E+01   0.384E+02 0.765E+01 -.951E+01   -.317E+01 0.316E+01 0.253E+01   -.245E-01 -.158E-01 0.820E-02
   0.825E+01 0.359E+02 0.698E+01   -.126E+02 -.370E+02 -.951E+01   0.432E+01 0.116E+01 0.253E+01   -.142E-02 0.291E-01 0.820E-02
   0.161E+02 0.187E+02 0.145E+02   -.176E+02 -.176E+02 -.167E+02   0.156E+01 -.110E+01 0.221E+01   0.679E-02 0.288E-01 -.290E-02
   -.352E+02 0.108E+02 0.698E+01   0.384E+02 -.765E+01 -.951E+01   -.317E+01 -.316E+01 0.253E+01   -.245E-01 0.158E-01 0.820E-02
   0.816E+01 0.233E+02 0.145E+02   -.645E+01 -.241E+02 -.167E+02   -.173E+01 0.801E+00 0.221E+01   0.216E-01 0.203E-01 -.290E-02
   0.161E+02 -.187E+02 0.145E+02   -.176E+02 0.176E+02 -.167E+02   0.156E+01 0.110E+01 0.221E+01   0.679E-02 -.288E-01 -.290E-02
   0.269E+02 -.251E+02 0.698E+01   -.258E+02 0.294E+02 -.951E+01   -.115E+01 -.432E+01 0.253E+01   0.259E-01 -.133E-01 0.820E-02
   -.242E+02 -.456E+01 0.145E+02   0.241E+02 0.646E+01 -.167E+02   0.172E+00 -.190E+01 0.221E+01   -.283E-01 0.852E-02 -.290E-02
   0.825E+01 -.359E+02 0.698E+01   -.126E+02 0.370E+02 -.951E+01   0.432E+01 -.116E+01 0.253E+01   -.142E-02 -.291E-01 0.820E-02
   0.269E+02 0.251E+02 0.698E+01   -.258E+02 -.294E+02 -.951E+01   -.115E+01 0.432E+01 0.253E+01   0.259E-01 0.133E-01 0.820E-02
   -.242E+02 0.456E+01 0.145E+02   0.241E+02 -.646E+01 -.167E+02   0.172E+00 0.190E+01 0.221E+01   -.283E-01 -.852E-02 -.290E-02
   0.816E+01 -.233E+02 0.145E+02   -.645E+01 0.241E+02 -.167E+02   -.173E+01 -.801E+00 0.221E+01   0.216E-01 -.203E-01 -.290E-02
   0.673E+02 0.821E+01 0.532E+01   -.692E+02 -.104E+02 -.555E+01   0.193E+01 0.212E+01 0.208E+00   0.400E-01 0.113E-01 -.240E-04
   -.265E+02 -.624E+02 0.532E+01   0.257E+02 0.651E+02 -.555E+01   0.874E+00 -.273E+01 0.208E+00   -.102E-01 -.402E-01 -.239E-04
   0.673E+02 -.821E+01 0.532E+01   -.692E+02 0.104E+02 -.555E+01   0.193E+01 -.212E+01 0.208E+00   0.400E-01 -.113E-01 -.240E-04
   -.407E+02 0.542E+02 0.532E+01   0.436E+02 -.548E+02 -.555E+01   -.280E+01 0.610E+00 0.208E+00   -.297E-01 0.290E-01 -.240E-04
   0.218E-07 0.335E-07 0.796E+00   -.115E-13 0.229E-11 -.559E+00   -.337E-17 -.331E-17 -.216E+00   -.826E-07 0.162E-07 -.162E-02
   -.141E+02 0.344E+02 -.185E+02   0.196E+02 -.358E+02 0.197E+02   -.557E+01 0.141E+01 -.117E+01   0.115E-01 0.371E-02 0.316E-02
   0.218E-07 -.335E-07 0.796E+00   0.888E-14 -.227E-11 -.559E+00   -.851E-18 0.154E-17 -.216E+00   -.826E-07 -.162E-07 -.162E-02
   -.225E-06 0.195E-08 -.408E+02   -.483E-12 -.106E-10 0.369E+02   -.428E-18 -.756E-18 0.388E+01   -.192E-07 0.152E-07 0.620E-02
   -.227E+02 0.294E+02 -.185E+02   0.212E+02 -.349E+02 0.197E+02   0.157E+01 0.553E+01 -.117E+01   -.895E-02 -.809E-02 0.316E-02
   -.265E+02 0.624E+02 0.532E+01   0.257E+02 -.651E+02 -.555E+01   0.874E+00 0.273E+01 0.208E+00   -.102E-01 0.402E-01 -.239E-04
   -.407E+02 -.542E+02 0.532E+01   0.436E+02 0.548E+02 -.555E+01   -.280E+01 -.610E+00 0.208E+00   -.297E-01 -.290E-01 -.240E-04
   -.225E-06 -.194E-08 -.408E+02   0.345E-12 0.105E-10 0.369E+02   -.666E-18 0.179E-17 0.388E+01   -.192E-07 -.152E-07 0.620E-02
   0.368E+02 0.497E+01 -.185E+02   -.408E+02 -.875E+00 0.197E+02   0.400E+01 -.412E+01 -.117E+01   -.253E-02 0.118E-01 0.316E-02
   0.368E+02 -.497E+01 -.185E+02   -.408E+02 0.875E+00 0.197E+02   0.400E+01 0.412E+01 -.117E+01   -.253E-02 -.118E-01 0.316E-02
   -.227E+02 -.294E+02 -.185E+02   0.212E+02 0.349E+02 0.197E+02   0.157E+01 -.553E+01 -.117E+01   -.895E-02 0.809E-02 0.316E-02
   -.141E+02 -.344E+02 -.185E+02   0.196E+02 0.358E+02 0.197E+02   -.557E+01 -.141E+01 -.117E+01   0.115E-01 -.371E-02 0.316E-02
 -----------------------------------------------------------------------------------------------
   0.146E-05 0.216E-09 -.300E+02   0.142E-13 0.711E-13 0.355E-14   0.000E+00 -.200E-14 0.299E+02   -.344E-05 0.353E-11 0.597E-01
 
 
 POSITION                                       TOTAL-FORCE (eV/Angst)
 -----------------------------------------------------------------------------------
      2.87404      4.90324      1.24256        -0.006044      0.009602     -0.003512
      7.20897      2.67983      1.24256         0.011338      0.000433     -0.003512
      5.45870     -4.52597      5.59206        -0.003415      0.005138     -0.000790
      2.87404     -4.90324      4.06164        -0.006044     -0.009602     -0.003512
      2.15037      2.46438      2.77298         0.006157     -0.000389     -0.000790
      5.45870      4.52597      2.77298        -0.003415     -0.005138     -0.000790
      3.11598      0.03737      1.24256        -0.005294     -0.010036     -0.003512
      5.58992      0.63008      2.77298        -0.002742      0.005526     -0.000790
      7.20897     -2.67983      4.06164         0.011338     -0.000433     -0.003512
      3.11598     -0.03737      4.06164        -0.005294      0.010036     -0.003512
      5.58992     -0.63008      5.59206        -0.002742     -0.005526     -0.000790
      2.15037     -2.46438      5.59206         0.006157      0.000389     -0.000790
      2.25742      0.67185      2.66024        -0.004762     -0.008275     -0.016981
      3.85280      5.32953      2.66024        -0.004786      0.008262     -0.016981
      2.25742     -0.67185      5.47932        -0.004762      0.008275     -0.016981
      7.08877      1.61905      2.66024         0.009548      0.000013     -0.016981
     -0.00000     -0.00000      5.44692         0.000000      0.000000      0.019952
      2.39987      3.21307      4.38355        -0.016702      0.000404      0.013227
     -0.00000     -0.00000      2.62784         0.000000      0.000000      0.019952
      4.39966     -2.54015      2.51191         0.000000      0.000000      0.004217
      4.81679     -0.47181      1.56446         0.008001      0.014666      0.013227
      3.85280     -5.32953      5.47932        -0.004786     -0.008262     -0.016981
      7.08877     -1.61905      5.47932         0.009548     -0.000013     -0.016981
      4.39966      2.54015      5.33099         0.000000      0.000000      0.004217
      5.98233     -3.93556      1.56446         0.008701     -0.014262      0.013227
      5.98233      3.93556      4.38355         0.008701      0.014262      0.013227
      4.81679      0.47181      4.38355         0.008001     -0.014666      0.013227
      2.39987     -3.21307      1.56446        -0.016702     -0.000404      0.013227
 -----------------------------------------------------------------------------------
    total drift:                               -0.000002      0.000000      0.008356


--------------------------------------------------------------------------------------------------------



  FREE ENERGIE OF THE ION-ELECTRON SYSTEM (eV)
  ---------------------------------------------------
  free  energy   TOTEN  =      -201.56033256 eV

  energy  without entropy=     -201.55174952  energy(sigma->0) =     -201.55818680
 
 d Force = 0.3674849E-04[-0.272E-04, 0.101E-03]  d Energy = 0.3396155E-04 0.279E-05
 d Force =-0.6332018E-01[-0.633E-01,-0.633E-01]  d Ewald  =-0.6332025E-01 0.659E-07


--------------------------------------------------------------------------------------------------------


    POTLOK:  cpu time    0.0488: real time    0.0489


--------------------------------------------------------------------------------------------------------




--------------------------------------------------------------------------------------------------------


  
 reached required accuracy - stopping structural energy minimisation
     LOOP+:  cpu time   20.7785: real time   20.7988
    4ORBIT:  cpu time    0.0000: real time    0.0000

 total amount of memory used by VASP MPI-rank0    71436. kBytes
=======================================================================

   base      :      30000. kBytes
   nonlr-proj:       6744. kBytes
   fftplans  :       3664. kBytes
   grid      :       5832. kBytes
   one-center:         21. kBytes
   wavefun   :      25175. kBytes
 
  
  
 General timing and accounting informations for this job:
 ========================================================
  
                  Total CPU time used (sec):      601.351
                            User time (sec):      600.184
                          System time (sec):        1.168
                         Elapsed time (sec):      602.554
  
                   Maximum memory used (kb):       97472.
                   Average memory used (kb):           0.
  
                          Minor page faults:       287762
                          Major page faults:            0
                 Voluntary context switches:         9906
