<?xml version="1.0" encoding="ISO-8859-1"?>
<modeling>
 <generator>
  <i name="program" type="string">vasp </i>
  <i name="version" type="string">5.4.4.18Apr17-6-g9f103f2a35  </i>
  <i name="subversion" type="string">(build Nov 01 2019 12:17:22) complex            parallel </i>
  <i name="platform" type="string">LinuxIFC </i>
  <i name="date" type="string">2023 05 19 </i>
  <i name="time" type="string">18:21:55 </i>
 </generator>
 <incar>
  <i type="string" name="PREC">accurate</i>
  <i type="string" name="ALGO"> Fast</i>
  <i type="int" name="IBRION">     2</i>
  <i type="int" name="NSW">   100</i>
  <i type="int" name="ISIF">     2</i>
  <i type="string" name="LREAL"> Auto</i>
  <i type="int" name="ISMEAR">     2</i>
  <i name="SIGMA">      0.10000000</i>
  <i type="logical" name="LWAVE"> F  </i>
  <i type="logical" name="LCHARG"> F  </i>
  <v type="int" name="KPOINT_BSE">    -1     0     0     0</v>
 </incar>
 <structure name="primitive_cell" >
  <crystal>
   <varray name="basis" >
    <v>       4.39966205      -7.62043821       0.00000000 </v>
    <v>       4.39966205       7.62043821       0.00000000 </v>
    <v>       0.00000000       0.00000000       5.63816677 </v>
   </varray>
   <i name="volume">    378.06561363 </i>
   <varray name="rec_basis" >
    <v>       0.11364509      -0.06561302       0.00000000 </v>
    <v>       0.11364509       0.06561302       0.00000000 </v>
    <v>       0.00000000       0.00000000       0.17736261 </v>
   </varray>
  </crystal>
  <varray name="positions" >
   <v>       0.00847736      -0.35287377       0.21326215 </v>
   <v>       0.08729345      -0.21311138       0.46674092 </v>
   <v>      -0.08729345      -0.30040483      -0.03325908 </v>
   <v>      -0.06686359       0.41763405       0.28259872 </v>
   <v>      -0.00847736      -0.36135113      -0.28673785 </v>
   <v>      -0.08582195       0.32157747      -0.00812732 </v>
   <v>       0.08582195       0.40739942       0.49187268 </v>
   <v>      -0.32157747      -0.40739942      -0.00812732 </v>
   <v>       0.06686359       0.48449764      -0.21740128 </v>
   <v>       0.32157747      -0.08582195       0.49187268 </v>
   <v>       0.33333333      -0.33333333      -0.02422298 </v>
   <v>      -0.33333333       0.33333333       0.47577702 </v>
   <v>      -0.41763405      -0.48449764       0.28259872 </v>
   <v>       0.00000000       0.00000000       0.45692726 </v>
   <v>       0.00000000       0.00000000      -0.04307274 </v>
   <v>       0.40739942       0.08582195      -0.00812732 </v>
   <v>       0.48449764       0.06686359       0.28259872 </v>
   <v>       0.41763405      -0.06686359      -0.21740128 </v>
   <v>      -0.40739942      -0.32157747       0.49187268 </v>
   <v>       0.21311138       0.30040483       0.46674092 </v>
   <v>      -0.21311138       0.08729345      -0.03325908 </v>
   <v>       0.30040483       0.21311138      -0.03325908 </v>
   <v>      -0.30040483      -0.08729345       0.46674092 </v>
   <v>      -0.48449764      -0.41763405      -0.21740128 </v>
   <v>       0.35287377       0.36135113       0.21326215 </v>
   <v>      -0.36135113      -0.00847736       0.21326215 </v>
   <v>      -0.35287377       0.00847736      -0.28673785 </v>
   <v>       0.36135113       0.35287377      -0.28673785 </v>
  </varray>
 </structure>
 <varray name="primitive_index" >
  <v type="int" >        1 </v>
  <v type="int" >       14 </v>
  <v type="int" >       23 </v>
  <v type="int" >       25 </v>
  <v type="int" >        9 </v>
  <v type="int" >        3 </v>
  <v type="int" >        5 </v>
  <v type="int" >       11 </v>
  <v type="int" >       18 </v>
  <v type="int" >        6 </v>
  <v type="int" >       24 </v>
  <v type="int" >       20 </v>
  <v type="int" >       21 </v>
  <v type="int" >       19 </v>
  <v type="int" >       17 </v>
  <v type="int" >       12 </v>
  <v type="int" >       28 </v>
  <v type="int" >       26 </v>
  <v type="int" >        8 </v>
  <v type="int" >       13 </v>
  <v type="int" >       22 </v>
  <v type="int" >       15 </v>
  <v type="int" >       16 </v>
  <v type="int" >       27 </v>
  <v type="int" >        7 </v>
  <v type="int" >        2 </v>
  <v type="int" >        4 </v>
  <v type="int" >       10 </v>
 </varray>
 <kpoints>
  <generation param="Auto">
   <i name="subdivisionlength">     45.00000000 </i>
   <v type="int" name="divisions">       6        6        8 </v>
   <v name="usershift">      0.00000000       0.00000000       0.00000000 </v>
   <v name="genvec1">      0.16666667       0.00000000       0.00000000 </v>
   <v name="genvec2">      0.00000000       0.16666667       0.00000000 </v>
   <v name="genvec3">      0.00000000       0.00000000       0.12500000 </v>
   <v name="shift">      0.00000000       0.00000000       0.00000000 </v>
  </generation>
  <varray name="kpointlist" >
   <v>       0.00000000       0.00000000       0.00000000 </v>
   <v>       0.16666667       0.00000000       0.00000000 </v>
   <v>       0.33333333       0.00000000       0.00000000 </v>
   <v>       0.50000000       0.00000000       0.00000000 </v>
   <v>       0.16666667       0.16666667       0.00000000 </v>
   <v>       0.33333333       0.16666667       0.00000000 </v>
   <v>       0.33333333       0.33333333       0.00000000 </v>
   <v>       0.00000000       0.00000000       0.12500000 </v>
   <v>       0.16666667       0.00000000       0.12500000 </v>
   <v>       0.33333333       0.00000000       0.12500000 </v>
   <v>       0.50000000       0.00000000       0.12500000 </v>
   <v>       0.16666667       0.16666667       0.12500000 </v>
   <v>       0.33333333       0.16666667       0.12500000 </v>
   <v>       0.33333333       0.33333333       0.12500000 </v>
   <v>      -0.16666667       0.33333333       0.12500000 </v>
   <v>      -0.33333333       0.50000000       0.12500000 </v>
   <v>      -0.33333333      -0.33333333       0.12500000 </v>
   <v>       0.00000000       0.00000000       0.25000000 </v>
   <v>       0.16666667       0.00000000       0.25000000 </v>
   <v>       0.33333333       0.00000000       0.25000000 </v>
   <v>       0.50000000       0.00000000       0.25000000 </v>
   <v>       0.16666667       0.16666667       0.25000000 </v>
   <v>       0.33333333       0.16666667       0.25000000 </v>
   <v>       0.33333333       0.33333333       0.25000000 </v>
   <v>      -0.16666667       0.33333333       0.25000000 </v>
   <v>      -0.33333333       0.50000000       0.25000000 </v>
   <v>      -0.33333333      -0.33333333       0.25000000 </v>
   <v>       0.00000000       0.00000000       0.37500000 </v>
   <v>       0.16666667       0.00000000       0.37500000 </v>
   <v>       0.33333333       0.00000000       0.37500000 </v>
   <v>       0.50000000       0.00000000       0.37500000 </v>
   <v>       0.16666667       0.16666667       0.37500000 </v>
   <v>       0.33333333       0.16666667       0.37500000 </v>
   <v>       0.33333333       0.33333333       0.37500000 </v>
   <v>      -0.16666667       0.33333333       0.37500000 </v>
   <v>      -0.33333333       0.50000000       0.37500000 </v>
   <v>      -0.33333333      -0.33333333       0.37500000 </v>
   <v>       0.00000000       0.00000000       0.50000000 </v>
   <v>       0.16666667       0.00000000       0.50000000 </v>
   <v>       0.33333333       0.00000000       0.50000000 </v>
   <v>       0.50000000       0.00000000       0.50000000 </v>
   <v>       0.16666667       0.16666667       0.50000000 </v>
   <v>       0.33333333       0.16666667       0.50000000 </v>
   <v>       0.33333333       0.33333333       0.50000000 </v>
  </varray>
  <varray name="weights" >
   <v>       0.00347222 </v>
   <v>       0.02083333 </v>
   <v>       0.02083333 </v>
   <v>       0.01041667 </v>
   <v>       0.02083333 </v>
   <v>       0.04166667 </v>
   <v>       0.00694444 </v>
   <v>       0.00694444 </v>
   <v>       0.04166667 </v>
   <v>       0.04166667 </v>
   <v>       0.02083333 </v>
   <v>       0.02083333 </v>
   <v>       0.04166667 </v>
   <v>       0.00694444 </v>
   <v>       0.02083333 </v>
   <v>       0.04166667 </v>
   <v>       0.00694444 </v>
   <v>       0.00694444 </v>
   <v>       0.04166667 </v>
   <v>       0.04166667 </v>
   <v>       0.02083333 </v>
   <v>       0.02083333 </v>
   <v>       0.04166667 </v>
   <v>       0.00694444 </v>
   <v>       0.02083333 </v>
   <v>       0.04166667 </v>
   <v>       0.00694444 </v>
   <v>       0.00694444 </v>
   <v>       0.04166667 </v>
   <v>       0.04166667 </v>
   <v>       0.02083333 </v>
   <v>       0.02083333 </v>
   <v>       0.04166667 </v>
   <v>       0.00694444 </v>
   <v>       0.02083333 </v>
   <v>       0.04166667 </v>
   <v>       0.00694444 </v>
   <v>       0.00347222 </v>
   <v>       0.02083333 </v>
   <v>       0.02083333 </v>
   <v>       0.01041667 </v>
   <v>       0.02083333 </v>
   <v>       0.04166667 </v>
   <v>       0.00694444 </v>
  </varray>
 </kpoints>
 <parameters>
  <separator name="general" >
   <i type="string" name="SYSTEM">unknown system</i>
   <i type="logical" name="LCOMPAT"> F  </i>
  </separator>
  <separator name="electronic" >
   <i type="string" name="PREC">accura</i>
   <i name="ENMAX">    400.00000000</i>
   <i name="ENAUG">    627.11200000</i>
   <i name="EDIFF">      0.00010000</i>
   <i type="int" name="IALGO">    68</i>
   <i type="int" name="IWAVPR">    11</i>
   <i type="int" name="NBANDS">    80</i>
   <i name="NELECT">    124.00000000</i>
   <i type="int" name="TURBO">     0</i>
   <i type="int" name="IRESTART">     0</i>
   <i type="int" name="NREBOOT">     0</i>
   <i type="int" name="NMIN">     0</i>
   <i name="EREF">      0.00000000</i>
   <separator name="electronic smearing" >
    <i type="int" name="ISMEAR">     2</i>
    <i name="SIGMA">      0.10000000</i>
    <i name="KSPACING">      0.50000000</i>
    <i type="logical" name="KGAMMA"> T  </i>
   </separator>
   <separator name="electronic projectors" >
    <i type="logical" name="LREAL"> T  </i>
    <v name="ROPT">     -0.00025000     -0.00025000</v>
    <i type="int" name="LMAXPAW">  -100</i>
    <i type="int" name="LMAXMIX">     2</i>
    <i type="logical" name="NLSPLINE"> F  </i>
   </separator>
   <separator name="electronic startup" >
    <i type="int" name="ISTART">     0</i>
    <i type="int" name="ICHARG">     2</i>
    <i type="int" name="INIWAV">     1</i>
   </separator>
   <separator name="electronic spin" >
    <i type="int" name="ISPIN">     1</i>
    <i type="logical" name="LNONCOLLINEAR"> F  </i>
    <v name="MAGMOM">      1.00000000      1.00000000      1.00000000      1.00000000      1.00000000      1.00000000      1.00000000      1.00000000      1.00000000      1.00000000      1.00000000      1.00000000      1.00000000      1.00000000      1.00000000      1.00000000      1.00000000      1.00000000      1.00000000      1.00000000
      1.00000000      1.00000000      1.00000000      1.00000000      1.00000000      1.00000000      1.00000000      1.00000000</v>
    <i name="NUPDOWN">     -1.00000000</i>
    <i type="logical" name="LSORBIT"> F  </i>
    <v name="SAXIS">      0.00000000      0.00000000      1.00000000</v>
    <i type="logical" name="LSPIRAL"> F  </i>
    <v name="QSPIRAL">      0.00000000      0.00000000      0.00000000</v>
    <i type="logical" name="LZEROZ"> F  </i>
   </separator>
   <separator name="electronic exchange-correlation" >
    <i type="logical" name="LASPH"> F  </i>
    <i type="logical" name="LMETAGGA"> F  </i>
   </separator>
   <separator name="electronic convergence" >
    <i type="int" name="NELM">    60</i>
    <i type="int" name="NELMDL">    -5</i>
    <i type="int" name="NELMIN">     2</i>
    <i name="ENINI">    400.00000000</i>
    <separator name="electronic convergence detail" >
     <i type="logical" name="LDIAG"> T  </i>
     <i type="logical" name="LSUBROT"> F  </i>
     <i name="WEIMIN">      0.00100000</i>
     <i name="EBREAK">      0.00000031</i>
     <i name="DEPER">      0.30000000</i>
     <i type="int" name="NRMM">     4</i>
     <i name="TIME">      0.40000000</i>
    </separator>
   </separator>
   <separator name="electronic mixer" >
    <i name="AMIX">      0.40000000</i>
    <i name="BMIX">      1.00000000</i>
    <i name="AMIN">      0.10000000</i>
    <i name="AMIX_MAG">      1.60000000</i>
    <i name="BMIX_MAG">      1.00000000</i>
    <separator name="electronic mixer details" >
     <i type="int" name="IMIX">     4</i>
     <i type="logical" name="MIXFIRST"> F  </i>
     <i type="int" name="MAXMIX">   -45</i>
     <i name="WC">    100.00000000</i>
     <i type="int" name="INIMIX">     1</i>
     <i type="int" name="MIXPRE">     1</i>
     <i type="int" name="MREMOVE">     5</i>
    </separator>
   </separator>
   <separator name="electronic dipolcorrection" >
    <i type="logical" name="LDIPOL"> F  </i>
    <i type="logical" name="LMONO"> F  </i>
    <i type="int" name="IDIPOL">     0</i>
    <i name="EPSILON">      1.00000000</i>
    <v name="DIPOL">   -100.00000000   -100.00000000   -100.00000000</v>
    <i name="EFIELD">      0.00000000</i>
   </separator>
  </separator>
  <separator name="grids" >
   <i type="int" name="NGX">    60</i>
   <i type="int" name="NGY">    60</i>
   <i type="int" name="NGZ">    40</i>
   <i type="int" name="NGXF">   120</i>
   <i type="int" name="NGYF">   120</i>
   <i type="int" name="NGZF">    80</i>
   <i type="logical" name="ADDGRID"> F  </i>
  </separator>
  <separator name="ionic" >
   <i type="int" name="NSW">   100</i>
   <i type="int" name="IBRION">     2</i>
   <i type="int" name="MDALGO">     0</i>
   <i type="int" name="ISIF">     2</i>
   <i name="PSTRESS">      0.00000000</i>
   <i name="EDIFFG">      0.00100000</i>
   <i type="int" name="NFREE">     1</i>
   <i name="POTIM">      0.50000000</i>
   <i name="SMASS">     -3.00000000</i>
   <i name="SCALEE">      1.00000000</i>
  </separator>
  <separator name="ionic md" >
   <i name="TEBEG">      0.00010000</i>
   <i name="TEEND">      0.00010000</i>
   <i type="int" name="NBLOCK">     1</i>
   <i type="int" name="KBLOCK">   100</i>
   <i type="int" name="NPACO">   256</i>
   <i name="APACO">     16.00000000</i>
  </separator>
  <separator name="symmetry" >
   <i type="int" name="ISYM">     2</i>
   <i name="SYMPREC">      0.00001000</i>
  </separator>
  <separator name="dos" >
   <i type="int" name="LORBIT">     0</i>
   <v name="RWIGS">     -1.00000000     -1.00000000</v>
   <i type="int" name="NEDOS">   301</i>
   <i name="EMIN">     10.00000000</i>
   <i name="EMAX">    -10.00000000</i>
   <i name="EFERMI">      0.00000000</i>
  </separator>
  <separator name="writing" >
   <i type="int" name="NWRITE">     2</i>
   <i type="logical" name="LWAVE"> F  </i>
   <i type="logical" name="LDOWNSAMPLE"> F  </i>
   <i type="logical" name="LCHARG"> F  </i>
   <i type="logical" name="LPARD"> F  </i>
   <i type="logical" name="LVTOT"> F  </i>
   <i type="logical" name="LVHAR"> F  </i>
   <i type="logical" name="LELF"> F  </i>
   <i type="logical" name="LOPTICS"> F  </i>
   <v name="STM">      0.00000000      0.00000000      0.00000000      0.00000000      0.00000000      0.00000000      0.00000000</v>
  </separator>
  <separator name="performance" >
   <i type="int" name="NPAR">     4</i>
   <i type="int" name="NSIM">     4</i>
   <i type="int" name="NBLK">    -1</i>
   <i type="logical" name="LPLANE"> T  </i>
   <i type="logical" name="LSCALAPACK"> F  </i>
   <i type="logical" name="LSCAAWARE"> F  </i>
   <i type="logical" name="LSCALU"> F  </i>
   <i type="logical" name="LASYNC"> F  </i>
   <i type="logical" name="LORBITALREAL"> F  </i>
  </separator>
  <separator name="miscellaneous" >
   <i type="int" name="IDIOT">     3</i>
   <i type="int" name="ISPECIAL">     0</i>
   <i type="logical" name="LMUSIC"> F  </i>
   <v name="POMASS">     14.00100000     28.08500000</v>
   <v name="DARWINR">      0.00000000      0.00000000</v>
   <v name="DARWINV">      1.00000000      1.00000000</v>
   <i type="logical" name="LCORR"> T  </i>
  </separator>
  <i type="logical" name="GGA_COMPAT"> T  </i>
  <i type="logical" name="LBERRY"> F  </i>
  <i type="int" name="ICORELEVEL">     0</i>
  <i type="logical" name="LDAU"> F  </i>
  <i type="int" name="I_CONSTRAINED_M">     0</i>
  <separator name="electronic exchange-correlation" >
   <i type="string" name="GGA">--</i>
   <i type="int" name="VOSKOWN">     0</i>
   <i type="logical" name="LHFCALC"> F  </i>
   <i type="string" name="PRECFOCK"></i>
   <i type="logical" name="LSYMGRAD"> F  </i>
   <i type="logical" name="LHFONE"> F  </i>
   <i type="logical" name="LRHFCALC"> F  </i>
   <i type="logical" name="LTHOMAS"> F  </i>
   <i type="logical" name="LMODELHF"> F  </i>
   <i name="ENCUT4O">     -1.00000000</i>
   <i type="int" name="EXXOEP">     0</i>
   <i type="int" name="FOURORBIT">     0</i>
   <i name="AEXX">      0.00000000</i>
   <i name="HFALPHA">      0.00000000</i>
   <i name="MCALPHA">      0.00000000</i>
   <i name="ALDAX">      1.00000000</i>
   <i name="AGGAX">      1.00000000</i>
   <i name="ALDAC">      1.00000000</i>
   <i name="AGGAC">      1.00000000</i>
   <i type="int" name="NKREDX">     1</i>
   <i type="int" name="NKREDY">     1</i>
   <i type="int" name="NKREDZ">     1</i>
   <i type="logical" name="SHIFTRED"> F  </i>
   <i type="logical" name="ODDONLY"> F  </i>
   <i type="logical" name="EVENONLY"> F  </i>
   <i type="int" name="LMAXFOCK">     0</i>
   <i type="int" name="NMAXFOCKAE">     0</i>
   <i type="logical" name="LFOCKAEDFT"> F  </i>
   <i name="HFSCREEN">      0.00000000</i>
   <i name="HFSCREENC">      0.00000000</i>
   <i type="int" name="NBANDSGWLOW">     0</i>
  </separator>
  <separator name="vdW DFT" >
   <i type="logical" name="LUSE_VDW"> F  </i>
   <i name="Zab_VDW">     -0.84910000</i>
   <i name="PARAM1">      0.12340000</i>
   <i name="PARAM2">      1.00000000</i>
   <i name="PARAM3">      0.00000000</i>
  </separator>
  <separator name="model GW" >
   <i type="int" name="MODEL_GW">     0</i>
   <i name="MODEL_EPS0">      8.10140601</i>
   <i name="MODEL_ALPHA">      1.00000000</i>
  </separator>
  <separator name="linear response parameters" >
   <i type="logical" name="LEPSILON"> F  </i>
   <i type="logical" name="LRPA"> F  </i>
   <i type="logical" name="LNABLA"> F  </i>
   <i type="logical" name="LVEL"> F  </i>
   <i type="int" name="KINTER">     0</i>
   <i name="CSHIFT">      0.10000000</i>
   <i name="OMEGAMAX">     -1.00000000</i>
   <i name="DEG_THRESHOLD">      0.00200000</i>
   <i name="RTIME">     -0.10000000</i>
   <i name="WPLASMAI">      0.00000000</i>
   <v name="DFIELD">      0.00000000      0.00000000      0.00000000</v>
   <v name="WPLASMA">      0.00000000      0.00000000      0.00000000      0.00000000      0.00000000      0.00000000      0.00000000      0.00000000      0.00000000</v>
  </separator>
  <separator name="orbital magnetization" >
   <i type="logical" name="NUCIND"> F  </i>
   <v name="MAGPOS">      0.00000000      0.00000000      0.00000000</v>
   <i type="logical" name="LNICSALL"> T  </i>
   <i type="logical" name="ORBITALMAG"> F  </i>
   <i type="logical" name="LMAGBLOCH"> F  </i>
   <i type="logical" name="LCHIMAG"> F  </i>
   <i type="logical" name="LGAUGE"> T  </i>
   <i type="int" name="MAGATOM">     0</i>
   <v name="MAGDIPOL">      0.00000000      0.00000000      0.00000000</v>
   <v name="AVECCONST">      0.00000000      0.00000000      0.00000000</v>
  </separator>
  <separator name="response functions" >
   <i type="logical" name="LADDER"> F  </i>
   <i type="logical" name="LRPAFORCE"> F  </i>
   <i type="logical" name="LFXC"> F  </i>
   <i type="logical" name="LHARTREE"> T  </i>
   <i type="int" name="IBSE">     0</i>
   <v type="int" name="KPOINT">    -1     0     0     0</v>
   <i type="logical" name="LTCTE"> F  </i>
   <i type="logical" name="LTETE"> F  </i>
   <i type="logical" name="LTRIPLET"> F  </i>
   <i type="logical" name="LFXCEPS"> F  </i>
   <i type="logical" name="LFXHEG"> F  </i>
   <i type="int" name="NATURALO">     2</i>
   <i type="logical" name="L2ORDER"> F  </i>
   <i type="logical" name="LMP2LT"> F  </i>
   <i type="logical" name="LUSEW"> F  </i>
   <i name="ENCUTGW">     -2.00000000</i>
   <i name="ENCUTGWSOFT">     -2.00000000</i>
   <i name="ENCUTLF">     -1.00000000</i>
   <i type="int" name="LMAXMP2">    -1</i>
   <i name="SCISSOR">      0.00000000</i>
   <i type="int" name="NOMEGA">     0</i>
   <i type="int" name="NOMEGAR">     0</i>
   <i type="int" name="NBANDSGW">    -1</i>
   <i type="int" name="NBANDSO">    -1</i>
   <i type="int" name="NBANDSV">    -1</i>
   <i type="int" name="NELM">     1</i>
   <i type="int" name="NELMHF">     1</i>
   <i type="int" name="DIM">     3</i>
   <i type="int" name="ANTIRES">     0</i>
   <i name="OMEGAMAX">    -30.00000000</i>
   <i name="OMEGAMIN">    -30.00000000</i>
   <i name="OMEGATL">   -200.00000000</i>
   <i type="int" name="OMEGAGRID">   140</i>
   <i name="CSHIFT">     -0.10000000</i>
   <i type="logical" name="SELFENERGY"> F  </i>
   <i type="logical" name="LSPECTRAL"> F  </i>
   <i type="logical" name="LSPECTRALGW"> F  </i>
   <i type="logical" name="LSINGLES"> F  </i>
   <i type="logical" name="LFERMIGW"> F  </i>
   <i type="logical" name="ODDONLYGW"> F  </i>
   <i type="logical" name="EVENONLYGW"> F  </i>
   <i type="int" name="NKREDLFX">     1</i>
   <i type="int" name="NKREDLFY">     1</i>
   <i type="int" name="NKREDLFZ">     1</i>
   <i type="int" name="MAXMEM">  2800</i>
   <i type="int" name="TELESCOPE">     0</i>
   <i type="int" name="TAUPAR">     1</i>
   <i type="int" name="OMEGAPAR">    -1</i>
   <i name="LAMBDA">      1.00000000</i>
  </separator>
  <separator name="External order field" >
   <i name="OFIELD_KAPPA">      0.00000000</i>
   <v name="OFIELD_K">      0.00000000      0.00000000      0.00000000</v>
   <i name="OFIELD_Q6_NEAR">      0.00000000</i>
   <i name="OFIELD_Q6_FAR">      0.00000000</i>
   <i name="OFIELD_A">      0.00000000</i>
  </separator>
 </parameters>
 <atominfo>
  <atoms>      28 </atoms>
  <types>       2 </types>
  <array name="atoms" >
   <dimension dim="1">ion</dimension>
   <field type="string">element</field>
   <field type="int">atomtype</field>
   <set>
    <rc><c>N </c><c>   1</c></rc>
    <rc><c>N </c><c>   1</c></rc>
    <rc><c>N </c><c>   1</c></rc>
    <rc><c>N </c><c>   1</c></rc>
    <rc><c>N </c><c>   1</c></rc>
    <rc><c>N </c><c>   1</c></rc>
    <rc><c>N </c><c>   1</c></rc>
    <rc><c>N </c><c>   1</c></rc>
    <rc><c>N </c><c>   1</c></rc>
    <rc><c>N </c><c>   1</c></rc>
    <rc><c>N </c><c>   1</c></rc>
    <rc><c>N </c><c>   1</c></rc>
    <rc><c>Si</c><c>   2</c></rc>
    <rc><c>Si</c><c>   2</c></rc>
    <rc><c>Si</c><c>   2</c></rc>
    <rc><c>Si</c><c>   2</c></rc>
    <rc><c>Si</c><c>   2</c></rc>
    <rc><c>Si</c><c>   2</c></rc>
    <rc><c>Si</c><c>   2</c></rc>
    <rc><c>Si</c><c>   2</c></rc>
    <rc><c>Si</c><c>   2</c></rc>
    <rc><c>Si</c><c>   2</c></rc>
    <rc><c>Si</c><c>   2</c></rc>
    <rc><c>Si</c><c>   2</c></rc>
    <rc><c>Si</c><c>   2</c></rc>
    <rc><c>Si</c><c>   2</c></rc>
    <rc><c>Si</c><c>   2</c></rc>
    <rc><c>Si</c><c>   2</c></rc>
   </set>
  </array>
  <array name="atomtypes" >
   <dimension dim="1">type</dimension>
   <field type="int">atomspertype</field>
   <field type="string">element</field>
   <field>mass</field>
   <field>valence</field>
   <field type="string">pseudopotential</field>
   <set>
    <rc><c>  12</c><c>N </c><c>     14.00100000</c><c>      5.00000000</c><c>  PAW_PBE N 08Apr2002                   </c></rc>
    <rc><c>  16</c><c>Si</c><c>     28.08500000</c><c>      4.00000000</c><c>  PAW_PBE Si 05Jan2001                  </c></rc>
   </set>
  </array>
 </atominfo>
 <structure name="initialpos" >
  <crystal>
   <varray name="basis" >
    <v>       4.39966205      -7.62043821       0.00000000 </v>
    <v>       4.39966205       7.62043821       0.00000000 </v>
    <v>       0.00000000       0.00000000       5.63816677 </v>
   </varray>
   <i name="volume">    378.06561363 </i>
   <varray name="rec_basis" >
    <v>       0.11364509      -0.06561302       0.00000000 </v>
    <v>       0.11364509       0.06561302       0.00000000 </v>
    <v>       0.00000000       0.00000000       0.17736261 </v>
   </varray>
  </crystal>
  <varray name="positions" >
   <v>       0.00847736       0.64712623       0.21326215 </v>
   <v>       0.63864887       0.99152264       0.21326215 </v>
   <v>       0.91417805       0.32157747       0.99187268 </v>
   <v>       0.64712623       0.00847736       0.71326215 </v>
   <v>       0.08582195       0.40739942       0.49187268 </v>
   <v>       0.32157747       0.91417805       0.49187268 </v>
   <v>       0.35287377       0.36135113       0.21326215 </v>
   <v>       0.59260058       0.67842253       0.49187268 </v>
   <v>       0.99152264       0.63864887       0.71326215 </v>
   <v>       0.36135113       0.35287377       0.71326215 </v>
   <v>       0.67842253       0.59260058       0.99187268 </v>
   <v>       0.40739942       0.08582195       0.99187268 </v>
   <v>       0.21311138       0.30040483       0.46674092 </v>
   <v>       0.08729345       0.78688862       0.46674092 </v>
   <v>       0.30040483       0.21311138       0.96674092 </v>
   <v>       0.69959517       0.91270655       0.46674092 </v>
   <v>       0.00000000       0.00000000       0.95692726 </v>
   <v>       0.06686359       0.48449764       0.78259872 </v>
   <v>       0.00000000       0.00000000       0.45692726 </v>
   <v>       0.66666667       0.33333333       0.47577702 </v>
   <v>       0.58236595       0.51550236       0.28259872 </v>
   <v>       0.78688862       0.08729345       0.96674092 </v>
   <v>       0.91270655       0.69959517       0.96674092 </v>
   <v>       0.33333333       0.66666667       0.97577702 </v>
   <v>       0.93313641       0.41763405       0.28259872 </v>
   <v>       0.41763405       0.93313641       0.78259872 </v>
   <v>       0.51550236       0.58236595       0.78259872 </v>
   <v>       0.48449764       0.06686359       0.28259872 </v>
  </varray>
 </structure>
 <calculation>
  <scstep>
   <time name="dav">    7.25    7.25</time>
   <time name="total">    7.31    7.31</time>
   <energy>
    <i name="alphaZ">    128.97792015 </i>
    <i name="ewald">  -4117.50531433 </i>
    <i name="hartreedc">  -1110.47800039 </i>
    <i name="XCdc">     93.39668945 </i>
    <i name="pawpsdc">   3869.17357318 </i>
    <i name="pawaedc">  -3601.97287308 </i>
    <i name="eentropy">      0.00153401 </i>
    <i name="bandstr">    383.84565849 </i>
    <i name="atom">   4822.75196862 </i>
    <i name="e_fr_energy">    468.19115610 </i>
    <i name="e_wo_entrp">    468.18962209 </i>
    <i name="e_0_energy">    468.19077260 </i>
   </energy>
  </scstep>
  <scstep>
   <time name="dav">    7.78    7.79</time>
   <time name="total">    7.79    7.79</time>
   <energy>
    <i name="e_fr_energy">   -168.46565614 </i>
    <i name="e_wo_entrp">   -168.46912796 </i>
    <i name="e_0_energy">   -168.46652410 </i>
   </energy>
  </scstep>
  <scstep>
   <time name="dav">    7.42    7.43</time>
   <time name="total">    7.43    7.43</time>
   <energy>
    <i name="e_fr_energy">   -222.67533456 </i>
    <i name="e_wo_entrp">   -222.65135466 </i>
    <i name="e_0_energy">   -222.66933959 </i>
   </energy>
  </scstep>
  <scstep>
   <time name="dav">    7.70    7.70</time>
   <time name="total">    7.70    7.71</time>
   <energy>
    <i name="e_fr_energy">   -224.09571990 </i>
    <i name="e_wo_entrp">   -224.06922767 </i>
    <i name="e_0_energy">   -224.08909684 </i>
   </energy>
  </scstep>
  <scstep>
   <time name="dav">    7.56    7.56</time>
   <time name="total">    7.94    7.94</time>
   <energy>
    <i name="e_fr_energy">   -224.13309869 </i>
    <i name="e_wo_entrp">   -224.10661387 </i>
    <i name="e_0_energy">   -224.12647748 </i>
   </energy>
  </scstep>
  <scstep>
   <time name="diag">    0.98    0.98</time>
   <time name="diis">    4.35    4.35</time>
   <time name="orth">    0.09    0.09</time>
   <time name="total">    5.84    5.85</time>
   <energy>
    <i name="e_fr_energy">   -201.88906629 </i>
    <i name="e_wo_entrp">   -201.88667883 </i>
    <i name="e_0_energy">   -201.88846942 </i>
   </energy>
  </scstep>
  <scstep>
   <time name="diag">    0.99    0.99</time>
   <time name="diis">    4.62    4.62</time>
   <time name="orth">    0.10    0.10</time>
   <time name="total">    6.13    6.13</time>
   <energy>
    <i name="e_fr_energy">   -201.52814707 </i>
    <i name="e_wo_entrp">   -201.51845267 </i>
    <i name="e_0_energy">   -201.52572347 </i>
   </energy>
  </scstep>
  <scstep>
   <time name="diag">    0.99    0.99</time>
   <time name="diis">    4.36    4.36</time>
   <time name="orth">    0.09    0.09</time>
   <time name="total">    5.86    5.86</time>
   <energy>
    <i name="e_fr_energy">   -201.40145450 </i>
    <i name="e_wo_entrp">   -201.39579191 </i>
    <i name="e_0_energy">   -201.40003885 </i>
   </energy>
  </scstep>
  <scstep>
   <time name="diag">    0.98    0.98</time>
   <time name="diis">    4.44    4.57</time>
   <time name="orth">    0.09    0.09</time>
   <time name="total">    5.95    6.08</time>
   <energy>
    <i name="e_fr_energy">   -201.33482211 </i>
    <i name="e_wo_entrp">   -201.32483016 </i>
    <i name="e_0_energy">   -201.33232412 </i>
   </energy>
  </scstep>
  <scstep>
   <time name="diag">    1.16    1.16</time>
   <time name="diis">    8.37    8.37</time>
   <time name="orth">    5.04    5.03</time>
   <time name="total">   16.87   16.86</time>
   <energy>
    <i name="e_fr_energy">   -201.32432590 </i>
    <i name="e_wo_entrp">   -201.31684929 </i>
    <i name="e_0_energy">   -201.32245675 </i>
   </energy>
  </scstep>
  <scstep>
   <time name="diag">   27.98   28.02</time>
   <time name="diis">    8.23    8.23</time>
   <time name="orth">    5.05    5.05</time>
   <time name="total">   44.61   44.68</time>
   <energy>
    <i name="e_fr_energy">   -201.32207140 </i>
    <i name="e_wo_entrp">   -201.31247930 </i>
    <i name="e_0_energy">   -201.31967338 </i>
   </energy>
  </scstep>
  <scstep>
   <time name="diag">    0.97    0.97</time>
   <time name="diis">    4.38    4.38</time>
   <time name="orth">    0.09    0.09</time>
   <time name="total">    6.29    6.29</time>
   <energy>
    <i name="e_fr_energy">   -201.32127435 </i>
    <i name="e_wo_entrp">   -201.31290699 </i>
    <i name="e_0_energy">   -201.31918251 </i>
   </energy>
  </scstep>
  <scstep>
   <time name="diag">    0.97    0.98</time>
   <time name="diis">    3.96    3.96</time>
   <time name="orth">    0.09    0.09</time>
   <time name="total">    5.46    5.47</time>
   <energy>
    <i name="e_fr_energy">   -201.32100618 </i>
    <i name="e_wo_entrp">   -201.31184107 </i>
    <i name="e_0_energy">   -201.31871490 </i>
   </energy>
  </scstep>
  <scstep>
   <time name="diag">    0.97    0.97</time>
   <time name="diis">    2.97    2.98</time>
   <time name="orth">    0.09    0.09</time>
   <time name="total">    4.09    4.10</time>
   <energy>
    <i name="alphaZ">    128.97792015 </i>
    <i name="ewald">  -4117.50531433 </i>
    <i name="hartreedc">  -1314.42093268 </i>
    <i name="XCdc">    109.45690104 </i>
    <i name="pawpsdc">  14555.40455766 </i>
    <i name="pawaedc"> -14291.88808717 </i>
    <i name="eentropy">     -0.00908343 </i>
    <i name="bandstr">    -94.08891566 </i>
    <i name="atom">   4822.75196862 </i>
    <i name="e_fr_energy">   -201.32098581 </i>
    <i name="e_wo_entrp">   -201.31190238 </i>
    <i name="e_0_energy">   -201.31871495 </i>
   </energy>
  </scstep>
  <structure>
   <crystal>
    <varray name="basis" >
     <v>       4.39966205      -7.62043821       0.00000000 </v>
     <v>       4.39966205       7.62043821       0.00000000 </v>
     <v>       0.00000000       0.00000000       5.63816677 </v>
    </varray>
    <i name="volume">    378.06561363 </i>
    <varray name="rec_basis" >
     <v>       0.11364509      -0.06561302       0.00000000 </v>
     <v>       0.11364509       0.06561302       0.00000000 </v>
     <v>       0.00000000       0.00000000       0.17736261 </v>
    </varray>
   </crystal>
   <varray name="positions" >
    <v>       0.00847736       0.64712623       0.21326215 </v>
    <v>       0.63864887       0.99152264       0.21326215 </v>
    <v>       0.91417805       0.32157747       0.99187268 </v>
    <v>       0.64712623       0.00847736       0.71326215 </v>
    <v>       0.08582195       0.40739942       0.49187268 </v>
    <v>       0.32157747       0.91417805       0.49187268 </v>
    <v>       0.35287377       0.36135113       0.21326215 </v>
    <v>       0.59260058       0.67842253       0.49187268 </v>
    <v>       0.99152264       0.63864887       0.71326215 </v>
    <v>       0.36135113       0.35287377       0.71326215 </v>
    <v>       0.67842253       0.59260058       0.99187268 </v>
    <v>       0.40739942       0.08582195       0.99187268 </v>
    <v>       0.21311138       0.30040483       0.46674092 </v>
    <v>       0.08729345       0.78688862       0.46674092 </v>
    <v>       0.30040483       0.21311138       0.96674092 </v>
    <v>       0.69959517       0.91270655       0.46674092 </v>
    <v>       0.00000000       0.00000000       0.95692726 </v>
    <v>       0.06686359       0.48449764       0.78259872 </v>
    <v>       0.00000000       0.00000000       0.45692726 </v>
    <v>       0.66666667       0.33333333       0.47577702 </v>
    <v>       0.58236595       0.51550236       0.28259872 </v>
    <v>       0.78688862       0.08729345       0.96674092 </v>
    <v>       0.91270655       0.69959517       0.96674092 </v>
    <v>       0.33333333       0.66666667       0.97577702 </v>
    <v>       0.93313641       0.41763405       0.28259872 </v>
    <v>       0.41763405       0.93313641       0.78259872 </v>
    <v>       0.51550236       0.58236595       0.78259872 </v>
    <v>       0.48449764       0.06686359       0.28259872 </v>
   </varray>
  </structure>
  <varray name="forces" >
   <v>      -0.17548820       0.27060110       0.19851294 </v>
   <v>       0.32209153       0.01667669       0.19851294 </v>
   <v>       0.13570665      -0.04631703       0.21521767 </v>
   <v>      -0.17548820      -0.27060110       0.19851294 </v>
   <v>      -0.10796505       0.09436689       0.21521767 </v>
   <v>       0.13570665       0.04631703       0.21521767 </v>
   <v>      -0.14660333      -0.28727779       0.19851294 </v>
   <v>      -0.02774160      -0.14068392       0.21521767 </v>
   <v>       0.32209153      -0.01667669       0.19851294 </v>
   <v>      -0.14660333       0.28727779       0.19851294 </v>
   <v>      -0.02774160       0.14068392       0.21521767 </v>
   <v>      -0.10796505      -0.09436689       0.21521767 </v>
   <v>       0.42645990       0.06004780       0.01881242 </v>
   <v>      -0.16122703      -0.39934901       0.01881242 </v>
   <v>       0.42645990      -0.06004780       0.01881242 </v>
   <v>      -0.26523287       0.33930121       0.01881242 </v>
   <v>       0.00000000      -0.00000000       0.06063140 </v>
   <v>      -0.15078210       0.22228103      -0.22176732 </v>
   <v>       0.00000000      -0.00000000       0.06063140 </v>
   <v>       0.00000000      -0.00000000      -0.69295855 </v>
   <v>      -0.11710997       0.24172165      -0.22176732 </v>
   <v>      -0.16122703       0.39934901       0.01881242 </v>
   <v>      -0.26523287      -0.33930121       0.01881242 </v>
   <v>       0.00000000       0.00000000      -0.69295855 </v>
   <v>       0.26789207      -0.01944061      -0.22176732 </v>
   <v>       0.26789207       0.01944061      -0.22176732 </v>
   <v>      -0.11710997      -0.24172165      -0.22176732 </v>
   <v>      -0.15078210      -0.22228103      -0.22176732 </v>
  </varray>
  <varray name="stress" >
   <v>     -88.98479013       0.00000000       0.00000000 </v>
   <v>       0.00000000     -88.98479013       0.00000000 </v>
   <v>      -0.00000000       0.00000000    -143.18161721 </v>
  </varray>
  <energy>
   <i name="e_fr_energy">   -201.32098581 </i>
   <i name="e_wo_entrp">   -201.31871495 </i>
   <i name="e_0_energy">     -0.00908343 </i>
  </energy>
  <time name="totalsc">  149.12  149.39</time>
 </calculation>
 <calculation>
  <scstep>
   <time name="dav">    6.94    6.94</time>
   <time name="total">    7.36    7.37</time>
   <energy>
    <i name="alphaZ">    128.97792015 </i>
    <i name="ewald">  -4098.02237735 </i>
    <i name="hartreedc">  -1327.74698443 </i>
    <i name="XCdc">    109.79938550 </i>
    <i name="pawpsdc">  14558.62117094 </i>
    <i name="pawaedc"> -14295.10480415 </i>
    <i name="eentropy">     -0.01016249 </i>
    <i name="bandstr">   -100.68834024 </i>
    <i name="atom">   4822.75196862 </i>
    <i name="e_fr_energy">   -201.42222346 </i>
    <i name="e_wo_entrp">   -201.41206097 </i>
    <i name="e_0_energy">   -201.41968284 </i>
   </energy>
  </scstep>
  <scstep>
   <time name="diag">    0.98    0.98</time>
   <time name="diis">    4.42    4.42</time>
   <time name="orth">    0.09    0.09</time>
   <time name="total">    5.92    5.92</time>
   <energy>
    <i name="e_fr_energy">   -201.44343825 </i>
    <i name="e_wo_entrp">   -201.43359192 </i>
    <i name="e_0_energy">   -201.44097667 </i>
   </energy>
  </scstep>
  <scstep>
   <time name="diag">    0.98    0.98</time>
   <time name="diis">    4.49    4.49</time>
   <time name="orth">    0.09    0.09</time>
   <time name="total">    5.99    5.99</time>
   <energy>
    <i name="e_fr_energy">   -201.43970410 </i>
    <i name="e_wo_entrp">   -201.42965894 </i>
    <i name="e_0_energy">   -201.43719281 </i>
   </energy>
  </scstep>
  <scstep>
   <time name="diag">    0.98    0.98</time>
   <time name="diis">    4.41    4.41</time>
   <time name="orth">    0.09    0.09</time>
   <time name="total">    5.91    5.91</time>
   <energy>
    <i name="e_fr_energy">   -201.43853899 </i>
    <i name="e_wo_entrp">   -201.42863883 </i>
    <i name="e_0_energy">   -201.43606395 </i>
   </energy>
  </scstep>
  <scstep>
   <time name="diag">    0.98    0.98</time>
   <time name="diis">    3.73    3.73</time>
   <time name="orth">    0.09    0.09</time>
   <time name="total">    5.23    5.23</time>
   <energy>
    <i name="e_fr_energy">   -201.43841735 </i>
    <i name="e_wo_entrp">   -201.42837636 </i>
    <i name="e_0_energy">   -201.43590710 </i>
   </energy>
  </scstep>
  <scstep>
   <time name="diag">    0.98    0.98</time>
   <time name="diis">    2.97    2.97</time>
   <time name="orth">    0.09    0.09</time>
   <time name="total">    4.09    4.09</time>
   <energy>
    <i name="alphaZ">    128.97792015 </i>
    <i name="ewald">  -4098.02237735 </i>
    <i name="hartreedc">  -1329.68759012 </i>
    <i name="XCdc">    109.95406787 </i>
    <i name="pawpsdc">  14786.96528312 </i>
    <i name="pawaedc"> -14523.53088067 </i>
    <i name="eentropy">     -0.01001881 </i>
    <i name="bandstr">    -98.83680643 </i>
    <i name="atom">   4822.75196862 </i>
    <i name="e_fr_energy">   -201.43843361 </i>
    <i name="e_wo_entrp">   -201.42841480 </i>
    <i name="e_0_energy">   -201.43592891 </i>
   </energy>
  </scstep>
  <structure>
   <crystal>
    <varray name="basis" >
     <v>       4.39966205      -7.62043821       0.00000000 </v>
     <v>       4.39966205       7.62043821       0.00000000 </v>
     <v>       0.00000000       0.00000000       5.63816677 </v>
    </varray>
    <i name="volume">    378.06561363 </i>
    <varray name="rec_basis" >
     <v>       0.11364509      -0.06561302       0.00000000 </v>
     <v>       0.11364509       0.06561302       0.00000000 </v>
     <v>       0.00000000       0.00000000       0.17736261 </v>
    </varray>
   </crystal>
   <varray name="positions" >
    <v>       0.00665869       0.64702066       0.21496072 </v>
    <v>       0.64036196       0.99334131       0.21496072 </v>
    <v>       0.91506868       0.32217488       0.99371418 </v>
    <v>       0.64702066       0.00665869       0.71496072 </v>
    <v>       0.08493132       0.40710620       0.49371418 </v>
    <v>       0.32217488       0.91506868       0.49371418 </v>
    <v>       0.35297934       0.35963804       0.21496072 </v>
    <v>       0.59289380       0.67782512       0.49371418 </v>
    <v>       0.99334131       0.64036196       0.71496072 </v>
    <v>       0.35963804       0.35297934       0.71496072 </v>
    <v>       0.67782512       0.59289380       0.99371418 </v>
    <v>       0.40710620       0.08493132       0.99371418 </v>
    <v>       0.21525939       0.30293298       0.46690188 </v>
    <v>       0.08767359       0.78474061       0.46690188 </v>
    <v>       0.30293298       0.21525939       0.96690188 </v>
    <v>       0.69706702       0.91232641       0.46690188 </v>
    <v>       0.00000000       0.00000000       0.95744605 </v>
    <v>       0.06533332       0.48437456       0.78070118 </v>
    <v>       0.00000000       0.00000000       0.45744605 </v>
    <v>       0.66666667       0.33333333       0.46984776 </v>
    <v>       0.58095876       0.51562544       0.28070118 </v>
    <v>       0.78474061       0.08767359       0.96690188 </v>
    <v>       0.91232641       0.69706702       0.96690188 </v>
    <v>       0.33333333       0.66666667       0.96984776 </v>
    <v>       0.93466668       0.41904124       0.28070118 </v>
    <v>       0.41904124       0.93466668       0.78070118 </v>
    <v>       0.51562544       0.58095876       0.78070118 </v>
    <v>       0.48437456       0.06533332       0.28070118 </v>
   </varray>
  </structure>
  <varray name="forces" >
   <v>      -0.14936544       0.03008958       0.10552669 </v>
   <v>       0.10074106       0.11430948       0.10552669 </v>
   <v>       0.05688760      -0.02206211      -0.08416151 </v>
   <v>      -0.14936544      -0.03008958       0.10552669 </v>
   <v>      -0.04755015       0.03823505      -0.08416151 </v>
   <v>       0.05688760       0.02206211      -0.08416151 </v>
   <v>       0.04862438      -0.14439905       0.10552669 </v>
   <v>      -0.00933745      -0.06029716      -0.08416151 </v>
   <v>       0.10074106      -0.11430948       0.10552669 </v>
   <v>       0.04862438       0.14439905       0.10552669 </v>
   <v>      -0.00933745       0.06029716      -0.08416151 </v>
   <v>      -0.04755015      -0.03823505      -0.08416151 </v>
   <v>      -0.15318059       0.10752927       0.10412613 </v>
   <v>       0.16971338       0.07889365       0.10412613 </v>
   <v>      -0.15318059      -0.10752927       0.10412613 </v>
   <v>      -0.01653278      -0.18642292       0.10412613 </v>
   <v>       0.00000000       0.00000000       0.06580434 </v>
   <v>      -0.06449199       0.02337950       0.04741449 </v>
   <v>       0.00000000       0.00000000       0.06580434 </v>
   <v>       0.00000000       0.00000000      -0.58452174 </v>
   <v>       0.01199875       0.06754145       0.04741449 </v>
   <v>       0.16971338      -0.07889365       0.10412613 </v>
   <v>      -0.01653278       0.18642292       0.10412613 </v>
   <v>       0.00000000       0.00000000      -0.58452174 </v>
   <v>       0.05249323      -0.04416195       0.04741449 </v>
   <v>       0.05249323       0.04416195       0.04741449 </v>
   <v>       0.01199875      -0.06754145       0.04741449 </v>
   <v>      -0.06449199      -0.02337950       0.04741449 </v>
  </varray>
  <varray name="stress" >
   <v>     -84.02509305       0.00000000       0.00000000 </v>
   <v>       0.00000000     -84.02509305      -0.00000000 </v>
   <v>       0.00000000       0.00000000    -129.10197011 </v>
  </varray>
  <energy>
   <i name="e_fr_energy">   -201.43843361 </i>
   <i name="e_wo_entrp">   -201.43592891 </i>
   <i name="e_0_energy">     -0.01001881 </i>
  </energy>
  <time name="totalsc">   44.38   44.39</time>
 </calculation>
 <calculation>
  <scstep>
   <time name="dav">    7.26    7.26</time>
   <time name="total">    7.75    7.75</time>
   <energy>
    <i name="alphaZ">    128.97792015 </i>
    <i name="ewald">  -4093.50499715 </i>
    <i name="hartreedc">  -1332.83176805 </i>
    <i name="XCdc">    110.03609503 </i>
    <i name="pawpsdc">  14797.61597177 </i>
    <i name="pawaedc"> -14534.18348837 </i>
    <i name="eentropy">     -0.01010616 </i>
    <i name="bandstr">   -100.29354128 </i>
    <i name="atom">   4822.75196862 </i>
    <i name="e_fr_energy">   -201.44194544 </i>
    <i name="e_wo_entrp">   -201.43183928 </i>
    <i name="e_0_energy">   -201.43941890 </i>
   </energy>
  </scstep>
  <scstep>
   <time name="diag">    1.04    1.04</time>
   <time name="diis">    4.34    4.34</time>
   <time name="orth">    0.09    0.09</time>
   <time name="total">    5.90    5.90</time>
   <energy>
    <i name="e_fr_energy">   -201.44309969 </i>
    <i name="e_wo_entrp">   -201.43302794 </i>
    <i name="e_0_energy">   -201.44058176 </i>
   </energy>
  </scstep>
  <scstep>
   <time name="diag">    0.97    0.97</time>
   <time name="diis">    4.03    4.03</time>
   <time name="orth">    0.09    0.09</time>
   <time name="total">    5.51    5.52</time>
   <energy>
    <i name="e_fr_energy">   -201.44292355 </i>
    <i name="e_wo_entrp">   -201.43282878 </i>
    <i name="e_0_energy">   -201.44039986 </i>
   </energy>
  </scstep>
  <scstep>
   <time name="diag">    0.97    0.97</time>
   <time name="diis">    3.26    3.26</time>
   <time name="orth">    0.09    0.09</time>
   <time name="total">    4.37    4.38</time>
   <energy>
    <i name="alphaZ">    128.97792015 </i>
    <i name="ewald">  -4093.50499715 </i>
    <i name="hartreedc">  -1333.29995703 </i>
    <i name="XCdc">    110.07242341 </i>
    <i name="pawpsdc">  14843.31524226 </i>
    <i name="pawaedc"> -14579.89984443 </i>
    <i name="eentropy">     -0.01008932 </i>
    <i name="bandstr">    -99.84553526 </i>
    <i name="atom">   4822.75196862 </i>
    <i name="e_fr_energy">   -201.44286876 </i>
    <i name="e_wo_entrp">   -201.43277944 </i>
    <i name="e_0_energy">   -201.44034643 </i>
   </energy>
  </scstep>
  <structure>
   <crystal>
    <varray name="basis" >
     <v>       4.39966205      -7.62043821       0.00000000 </v>
     <v>       4.39966205       7.62043821       0.00000000 </v>
     <v>       0.00000000       0.00000000       5.63816677 </v>
    </varray>
    <i name="volume">    378.06561363 </i>
    <varray name="rec_basis" >
     <v>       0.11364509      -0.06561302       0.00000000 </v>
     <v>       0.11364509       0.06561302       0.00000000 </v>
     <v>       0.00000000       0.00000000       0.17736261 </v>
    </varray>
   </crystal>
   <varray name="positions" >
    <v>       0.00623723       0.64699619       0.21535434 </v>
    <v>       0.64075896       0.99376277       0.21535434 </v>
    <v>       0.91527507       0.32231332       0.99414093 </v>
    <v>       0.64699619       0.00623723       0.71535434 </v>
    <v>       0.08472493       0.40703825       0.49414093 </v>
    <v>       0.32231332       0.91527507       0.49414093 </v>
    <v>       0.35300381       0.35924104       0.21535434 </v>
    <v>       0.59296175       0.67768668       0.49414093 </v>
    <v>       0.99376277       0.64075896       0.71535434 </v>
    <v>       0.35924104       0.35300381       0.71535434 </v>
    <v>       0.67768668       0.59296175       0.99414093 </v>
    <v>       0.40703825       0.08472493       0.99414093 </v>
    <v>       0.21575717       0.30351886       0.46693919 </v>
    <v>       0.08776169       0.78424283       0.46693919 </v>
    <v>       0.30351886       0.21575717       0.96693919 </v>
    <v>       0.69648114       0.91223831       0.46693919 </v>
    <v>       0.00000000       0.00000000       0.95756627 </v>
    <v>       0.06497870       0.48434604       0.78026145 </v>
    <v>       0.00000000       0.00000000       0.45756627 </v>
    <v>       0.66666667       0.33333333       0.46847371 </v>
    <v>       0.58063266       0.51565396       0.28026145 </v>
    <v>       0.78424283       0.08776169       0.96693919 </v>
    <v>       0.91223831       0.69648114       0.96693919 </v>
    <v>       0.33333333       0.66666667       0.96847371 </v>
    <v>       0.93502130       0.41936734       0.28026145 </v>
    <v>       0.41936734       0.93502130       0.78026145 </v>
    <v>       0.51565396       0.58063266       0.78026145 </v>
    <v>       0.48434604       0.06497870       0.28026145 </v>
   </varray>
  </structure>
  <varray name="forces" >
   <v>      -0.14590936      -0.02531333       0.08235145 </v>
   <v>       0.05103269       0.13901788       0.08235145 </v>
   <v>       0.04018380      -0.01639811      -0.15370909 </v>
   <v>      -0.14590936       0.02531333       0.08235145 </v>
   <v>      -0.03429308       0.02660114      -0.15370909 </v>
   <v>       0.04018380       0.01639811      -0.15370909 </v>
   <v>       0.09487667      -0.11370455       0.08235145 </v>
   <v>      -0.00589072      -0.04299925      -0.15370909 </v>
   <v>       0.05103269      -0.13901788       0.08235145 </v>
   <v>       0.09487667       0.11370455       0.08235145 </v>
   <v>      -0.00589072       0.04299925      -0.15370909 </v>
   <v>      -0.03429308      -0.02660114      -0.15370909 </v>
   <v>      -0.28891948       0.11976271       0.12473402 </v>
   <v>       0.24817729       0.19033026       0.12473402 </v>
   <v>      -0.28891948      -0.11976271       0.12473402 </v>
   <v>       0.04074219      -0.31009296       0.12473402 </v>
   <v>      -0.00000000      -0.00000000       0.06693549 </v>
   <v>      -0.04517878      -0.02259544       0.11160910 </v>
   <v>      -0.00000000      -0.00000000       0.06693549 </v>
   <v>      -0.00000000      -0.00000000      -0.56189195 </v>
   <v>       0.04215762       0.02782825       0.11160910 </v>
   <v>       0.24817729      -0.19033026       0.12473402 </v>
   <v>       0.04074219       0.31009296       0.12473402 </v>
   <v>      -0.00000000      -0.00000000      -0.56189195 </v>
   <v>       0.00302117      -0.05042370       0.11160910 </v>
   <v>       0.00302117       0.05042370       0.11160910 </v>
   <v>       0.04215762      -0.02782825       0.11160910 </v>
   <v>      -0.04517878       0.02259544       0.11160910 </v>
  </varray>
  <varray name="stress" >
   <v>     -82.98511297       0.00000000       0.00000000 </v>
   <v>       0.00000000     -82.98511297      -0.00000000 </v>
   <v>       0.00000000      -0.00000000    -125.65919512 </v>
  </varray>
  <energy>
   <i name="e_fr_energy">   -201.44286876 </i>
   <i name="e_wo_entrp">   -201.44034643 </i>
   <i name="e_0_energy">     -0.01008932 </i>
  </energy>
  <time name="totalsc">   33.31   33.38</time>
 </calculation>
 <calculation>
  <scstep>
   <time name="dav">    6.47    6.48</time>
   <time name="total">    6.91    6.92</time>
   <energy>
    <i name="alphaZ">    128.97792015 </i>
    <i name="ewald">  -4087.94984848 </i>
    <i name="hartreedc">  -1336.92000755 </i>
    <i name="XCdc">    110.20577858 </i>
    <i name="pawpsdc">  14849.57670784 </i>
    <i name="pawaedc"> -14586.16213531 </i>
    <i name="eentropy">     -0.00943976 </i>
    <i name="bandstr">   -101.96460733 </i>
    <i name="atom">   4822.75196862 </i>
    <i name="e_fr_energy">   -201.49366325 </i>
    <i name="e_wo_entrp">   -201.48422349 </i>
    <i name="e_0_energy">   -201.49130331 </i>
   </energy>
  </scstep>
  <scstep>
   <time name="diag">    0.99    0.99</time>
   <time name="diis">    4.32    4.33</time>
   <time name="orth">    0.09    0.09</time>
   <time name="total">    5.88    5.94</time>
   <energy>
    <i name="e_fr_energy">   -201.50718278 </i>
    <i name="e_wo_entrp">   -201.49707239 </i>
    <i name="e_0_energy">   -201.50465518 </i>
   </energy>
  </scstep>
  <scstep>
   <time name="diag">    0.98    0.98</time>
   <time name="diis">    4.51    4.51</time>
   <time name="orth">    0.09    0.09</time>
   <time name="total">    6.02    6.02</time>
   <energy>
    <i name="e_fr_energy">   -201.50567912 </i>
    <i name="e_wo_entrp">   -201.49590165 </i>
    <i name="e_0_energy">   -201.50323475 </i>
   </energy>
  </scstep>
  <scstep>
   <time name="diag">    0.98    0.98</time>
   <time name="diis">    4.39    4.39</time>
   <time name="orth">    0.09    0.09</time>
   <time name="total">    5.90    5.90</time>
   <energy>
    <i name="e_fr_energy">   -201.50479767 </i>
    <i name="e_wo_entrp">   -201.49487236 </i>
    <i name="e_0_energy">   -201.50231635 </i>
   </energy>
  </scstep>
  <scstep>
   <time name="diag">    0.97    0.97</time>
   <time name="diis">    4.16    4.16</time>
   <time name="orth">    0.09    0.09</time>
   <time name="total">    5.28    5.28</time>
   <energy>
    <i name="alphaZ">    128.97792015 </i>
    <i name="ewald">  -4087.94984848 </i>
    <i name="hartreedc">  -1337.62849522 </i>
    <i name="XCdc">    110.26299702 </i>
    <i name="pawpsdc">  14947.77231942 </i>
    <i name="pawaedc"> -14684.39760372 </i>
    <i name="eentropy">     -0.00983599 </i>
    <i name="bandstr">   -101.28413926 </i>
    <i name="atom">   4822.75196862 </i>
    <i name="e_fr_energy">   -201.50471747 </i>
    <i name="e_wo_entrp">   -201.49488147 </i>
    <i name="e_0_energy">   -201.50225847 </i>
   </energy>
  </scstep>
  <structure>
   <crystal>
    <varray name="basis" >
     <v>       4.39966205      -7.62043821       0.00000000 </v>
     <v>       4.39966205       7.62043821       0.00000000 </v>
     <v>       0.00000000       0.00000000       5.63816677 </v>
    </varray>
    <i name="volume">    378.06561363 </i>
    <varray name="rec_basis" >
     <v>       0.11364509      -0.06561302       0.00000000 </v>
     <v>       0.11364509       0.06561302       0.00000000 </v>
     <v>       0.00000000       0.00000000       0.17736261 </v>
    </varray>
   </crystal>
   <varray name="positions" >
    <v>       0.00468052       0.64602868       0.21684209 </v>
    <v>       0.64134815       0.99531948       0.21684209 </v>
    <v>       0.91595340       0.32275348       0.99357837 </v>
    <v>       0.64602868       0.00468052       0.71684209 </v>
    <v>       0.08404660       0.40680007       0.49357837 </v>
    <v>       0.32275348       0.91595340       0.49357837 </v>
    <v>       0.35397132       0.35865185       0.21684209 </v>
    <v>       0.59319993       0.67724652       0.49357837 </v>
    <v>       0.99531948       0.64134815       0.71684209 </v>
    <v>       0.35865185       0.35397132       0.71684209 </v>
    <v>       0.67724652       0.59319993       0.99357837 </v>
    <v>       0.40680007       0.08404660       0.99357837 </v>
    <v>       0.21465211       0.30337507       0.46812705 </v>
    <v>       0.08872296       0.78534789       0.46812705 </v>
    <v>       0.30337507       0.21465211       0.96812705 </v>
    <v>       0.69662493       0.91127704       0.46812705 </v>
    <v>      -0.00000000      -0.00000000       0.95839476 </v>
    <v>       0.06411827       0.48395765       0.78042232 </v>
    <v>      -0.00000000      -0.00000000       0.45839476 </v>
    <v>       0.66666667       0.33333333       0.46082343 </v>
    <v>       0.58016061       0.51604235       0.28042232 </v>
    <v>       0.78534789       0.08872296       0.96812705 </v>
    <v>       0.91127704       0.69662493       0.96812705 </v>
    <v>       0.33333333       0.66666667       0.96082343 </v>
    <v>       0.93588173       0.41983939       0.28042232 </v>
    <v>       0.41983939       0.93588173       0.78042232 </v>
    <v>       0.51604235       0.58016061       0.78042232 </v>
    <v>       0.48395765       0.06411827       0.28042232 </v>
   </varray>
  </structure>
  <varray name="forces" >
   <v>       0.06636596       0.07235833       0.10574430 </v>
   <v>       0.02948117      -0.09365377       0.10574430 </v>
   <v>       0.03068840       0.00158899      -0.08056778 </v>
   <v>       0.06636596      -0.07235833       0.10574430 </v>
   <v>      -0.01396809       0.02737143      -0.08056778 </v>
   <v>       0.03068840      -0.00158899      -0.08056778 </v>
   <v>      -0.09584713       0.02129544       0.10574430 </v>
   <v>      -0.01672031      -0.02578243      -0.08056778 </v>
   <v>       0.02948117       0.09365377       0.10574430 </v>
   <v>      -0.09584713      -0.02129544       0.10574430 </v>
   <v>      -0.01672031       0.02578243      -0.08056778 </v>
   <v>      -0.01396809      -0.02737143      -0.08056778 </v>
   <v>      -0.16017821      -0.06168074       0.04207406 </v>
   <v>       0.02667201       0.16955877       0.04207406 </v>
   <v>      -0.16017821       0.06168074       0.04207406 </v>
   <v>       0.13350620      -0.10787803       0.04207406 </v>
   <v>      -0.00000000       0.00000000       0.07458416 </v>
   <v>      -0.01824796      -0.05683435       0.01112278 </v>
   <v>      -0.00000000       0.00000000       0.07458416 </v>
   <v>      -0.00000000       0.00000000      -0.30970421 </v>
   <v>       0.05834398      -0.01261398       0.01112278 </v>
   <v>       0.02667201      -0.16955877       0.04207406 </v>
   <v>       0.13350620       0.10787803       0.04207406 </v>
   <v>      -0.00000000       0.00000000      -0.30970421 </v>
   <v>      -0.04009601      -0.04422038       0.01112278 </v>
   <v>      -0.04009601       0.04422038       0.01112278 </v>
   <v>       0.05834398       0.01261398       0.01112278 </v>
   <v>      -0.01824796       0.05683435       0.01112278 </v>
  </varray>
  <varray name="stress" >
   <v>     -78.03938196       0.00000000       0.00000000 </v>
   <v>       0.00000000     -78.03938196       0.00000000 </v>
   <v>       0.00000000       0.00000000    -125.05345223 </v>
  </varray>
  <energy>
   <i name="e_fr_energy">   -201.50471747 </i>
   <i name="e_wo_entrp">   -201.50225847 </i>
   <i name="e_0_energy">     -0.00983599 </i>
  </energy>
  <time name="totalsc">   39.67   39.74</time>
 </calculation>
 <calculation>
  <scstep>
   <time name="dav">    6.41    6.41</time>
   <time name="total">    6.85    6.85</time>
   <energy>
    <i name="alphaZ">    128.97792015 </i>
    <i name="ewald">  -4083.91719767 </i>
    <i name="hartreedc">  -1340.26287119 </i>
    <i name="XCdc">    110.35690924 </i>
    <i name="pawpsdc">  14950.75659535 </i>
    <i name="pawaedc"> -14687.38227797 </i>
    <i name="eentropy">     -0.00902540 </i>
    <i name="bandstr">   -102.78370937 </i>
    <i name="atom">   4822.75196862 </i>
    <i name="e_fr_energy">   -201.51168824 </i>
    <i name="e_wo_entrp">   -201.50266284 </i>
    <i name="e_0_energy">   -201.50943189 </i>
   </energy>
  </scstep>
  <scstep>
   <time name="diag">    0.98    0.98</time>
   <time name="diis">    4.37    4.37</time>
   <time name="orth">    0.09    0.09</time>
   <time name="total">    5.88    5.88</time>
   <energy>
    <i name="e_fr_energy">   -201.51880348 </i>
    <i name="e_wo_entrp">   -201.50882969 </i>
    <i name="e_0_energy">   -201.51631003 </i>
   </energy>
  </scstep>
  <scstep>
   <time name="diag">    0.98    0.98</time>
   <time name="diis">    4.51    4.52</time>
   <time name="orth">    0.09    0.09</time>
   <time name="total">    6.02    6.02</time>
   <energy>
    <i name="e_fr_energy">   -201.51780865 </i>
    <i name="e_wo_entrp">   -201.50834251 </i>
    <i name="e_0_energy">   -201.51544212 </i>
   </energy>
  </scstep>
  <scstep>
   <time name="diag">    0.97    0.97</time>
   <time name="diis">    4.33    4.33</time>
   <time name="orth">    0.09    0.09</time>
   <time name="total">    5.83    5.83</time>
   <energy>
    <i name="e_fr_energy">   -201.51728278 </i>
    <i name="e_wo_entrp">   -201.50762655 </i>
    <i name="e_0_energy">   -201.51486872 </i>
   </energy>
  </scstep>
  <scstep>
   <time name="diag">    0.98    0.98</time>
   <time name="diis">    4.04    4.04</time>
   <time name="orth">    0.09    0.09</time>
   <time name="total">    5.16    5.17</time>
   <energy>
    <i name="alphaZ">    128.97792015 </i>
    <i name="ewald">  -4083.91719767 </i>
    <i name="hartreedc">  -1340.78009339 </i>
    <i name="XCdc">    110.39833845 </i>
    <i name="pawpsdc">  15020.88726912 </i>
    <i name="pawaedc"> -14757.54120505 </i>
    <i name="eentropy">     -0.00956635 </i>
    <i name="bandstr">   -102.28464888 </i>
    <i name="atom">   4822.75196862 </i>
    <i name="e_fr_energy">   -201.51721500 </i>
    <i name="e_wo_entrp">   -201.50764865 </i>
    <i name="e_0_energy">   -201.51482341 </i>
   </energy>
  </scstep>
  <structure>
   <crystal>
    <varray name="basis" >
     <v>       4.39966205      -7.62043821       0.00000000 </v>
     <v>       4.39966205       7.62043821       0.00000000 </v>
     <v>       0.00000000       0.00000000       5.63816677 </v>
    </varray>
    <i name="volume">    378.06561363 </i>
    <varray name="rec_basis" >
     <v>       0.11364509      -0.06561302       0.00000000 </v>
     <v>       0.11364509       0.06561302       0.00000000 </v>
     <v>       0.00000000       0.00000000       0.17736261 </v>
    </varray>
   </crystal>
   <varray name="positions" >
    <v>       0.00358302       0.64534656       0.21789098 </v>
    <v>       0.64176354       0.99641698       0.21789098 </v>
    <v>       0.91643163       0.32306379       0.99318176 </v>
    <v>       0.64534656       0.00358302       0.71789098 </v>
    <v>       0.08356837       0.40663216       0.49318176 </v>
    <v>       0.32306379       0.91643163       0.49318176 </v>
    <v>       0.35465344       0.35823646       0.21789098 </v>
    <v>       0.59336784       0.67693621       0.49318176 </v>
    <v>       0.99641698       0.64176354       0.71789098 </v>
    <v>       0.35823646       0.35465344       0.71789098 </v>
    <v>       0.67693621       0.59336784       0.99318176 </v>
    <v>       0.40663216       0.08356837       0.99318176 </v>
    <v>       0.21387302       0.30327370       0.46896452 </v>
    <v>       0.08940068       0.78612698       0.46896452 </v>
    <v>       0.30327370       0.21387302       0.96896452 </v>
    <v>       0.69672630       0.91059932       0.46896452 </v>
    <v>      -0.00000000      -0.00000000       0.95897886 </v>
    <v>       0.06351164       0.48368383       0.78053574 </v>
    <v>      -0.00000000      -0.00000000       0.45897886 </v>
    <v>       0.66666667       0.33333333       0.45542985 </v>
    <v>       0.57982781       0.51631617       0.28053574 </v>
    <v>       0.78612698       0.08940068       0.96896452 </v>
    <v>       0.91059932       0.69672630       0.96896452 </v>
    <v>       0.33333333       0.66666667       0.95542985 </v>
    <v>       0.93648836       0.42017219       0.28053574 </v>
    <v>       0.42017219       0.93648836       0.78053574 </v>
    <v>       0.51631617       0.57982781       0.78053574 </v>
    <v>       0.48368383       0.06351164       0.28053574 </v>
   </varray>
  </structure>
  <varray name="forces" >
   <v>       0.21683549       0.14256311       0.11800214 </v>
   <v>       0.01504553      -0.25906659       0.11800214 </v>
   <v>       0.02243335       0.01569172      -0.02378525 </v>
   <v>       0.21683549      -0.14256311       0.11800214 </v>
   <v>       0.00237276       0.02727372      -0.02378525 </v>
   <v>       0.02243335      -0.01569172      -0.02378525 </v>
   <v>      -0.23188102       0.11650348       0.11800214 </v>
   <v>      -0.02480611      -0.01158199      -0.02378525 </v>
   <v>       0.01504553       0.25906659       0.11800214 </v>
   <v>      -0.23188102      -0.11650348       0.11800214 </v>
   <v>      -0.02480611       0.01158199      -0.02378525 </v>
   <v>       0.00237276      -0.02727372      -0.02378525 </v>
   <v>      -0.07538719      -0.19190813      -0.01350048 </v>
   <v>      -0.12850372       0.16124129      -0.01350048 </v>
   <v>      -0.07538719       0.19190813      -0.01350048 </v>
   <v>       0.20389092       0.03066684      -0.01350048 </v>
   <v>       0.00000000      -0.00000000       0.07872412 </v>
   <v>       0.00044445      -0.08314843      -0.06121859 </v>
   <v>       0.00000000      -0.00000000       0.07872412 </v>
   <v>       0.00000000      -0.00000000      -0.13721760 </v>
   <v>       0.07178643      -0.04195912      -0.06121859 </v>
   <v>      -0.12850372      -0.16124129      -0.01350048 </v>
   <v>       0.20389092      -0.03066684      -0.01350048 </v>
   <v>       0.00000000      -0.00000000      -0.13721760 </v>
   <v>      -0.07223088      -0.04118931      -0.06121859 </v>
   <v>      -0.07223088       0.04118931      -0.06121859 </v>
   <v>       0.07178643       0.04195912      -0.06121859 </v>
   <v>       0.00044445       0.08314843      -0.06121859 </v>
  </varray>
  <varray name="stress" >
   <v>     -74.31393218       0.00000000      -0.00000000 </v>
   <v>      -0.00000000     -74.31393218       0.00000000 </v>
   <v>       0.00000000       0.00000000    -124.39270014 </v>
  </varray>
  <energy>
   <i name="e_fr_energy">   -201.51721500 </i>
   <i name="e_wo_entrp">   -201.51482341 </i>
   <i name="e_0_energy">     -0.00956635 </i>
  </energy>
  <time name="totalsc">   39.44   39.45</time>
 </calculation>
 <calculation>
  <scstep>
   <time name="dav">    6.63    6.63</time>
   <time name="total">    7.07    7.08</time>
   <energy>
    <i name="alphaZ">    128.97792015 </i>
    <i name="ewald">  -4086.16076504 </i>
    <i name="hartreedc">  -1338.01877855 </i>
    <i name="XCdc">    110.43650919 </i>
    <i name="pawpsdc">  15023.52179225 </i>
    <i name="pawaedc"> -14760.17624080 </i>
    <i name="eentropy">     -0.00769076 </i>
    <i name="bandstr">   -102.85481900 </i>
    <i name="atom">   4822.75196862 </i>
    <i name="e_fr_energy">   -201.53010394 </i>
    <i name="e_wo_entrp">   -201.52241319 </i>
    <i name="e_0_energy">   -201.52818125 </i>
   </energy>
  </scstep>
  <scstep>
   <time name="diag">    0.99    0.99</time>
   <time name="diis">    4.34    4.34</time>
   <time name="orth">    0.09    0.09</time>
   <time name="total">    5.86    5.86</time>
   <energy>
    <i name="e_fr_energy">   -201.54758504 </i>
    <i name="e_wo_entrp">   -201.53757681 </i>
    <i name="e_0_energy">   -201.54508298 </i>
   </energy>
  </scstep>
  <scstep>
   <time name="diag">    0.98    0.98</time>
   <time name="diis">    4.50    4.51</time>
   <time name="orth">    0.09    0.09</time>
   <time name="total">    6.01    6.02</time>
   <energy>
    <i name="e_fr_energy">   -201.54391634 </i>
    <i name="e_wo_entrp">   -201.53479797 </i>
    <i name="e_0_energy">   -201.54163675 </i>
   </energy>
  </scstep>
  <scstep>
   <time name="diag">    0.98    0.98</time>
   <time name="diis">    4.32    4.33</time>
   <time name="orth">    0.09    0.09</time>
   <time name="total">    5.82    5.83</time>
   <energy>
    <i name="e_fr_energy">   -201.54239836 </i>
    <i name="e_wo_entrp">   -201.53288372 </i>
    <i name="e_0_energy">   -201.54001970 </i>
   </energy>
  </scstep>
  <scstep>
   <time name="diag">    0.98    0.98</time>
   <time name="diis">    4.31    4.31</time>
   <time name="orth">    0.09    0.09</time>
   <time name="total">    5.81    5.82</time>
   <energy>
    <i name="e_fr_energy">   -201.54211747 </i>
    <i name="e_wo_entrp">   -201.53275796 </i>
    <i name="e_0_energy">   -201.53977760 </i>
   </energy>
  </scstep>
  <scstep>
   <time name="diag">    0.97    0.97</time>
   <time name="diis">    2.88    2.88</time>
   <time name="orth">    0.09    0.09</time>
   <time name="total">    3.99    4.00</time>
   <energy>
    <i name="alphaZ">    128.97792015 </i>
    <i name="ewald">  -4086.16076504 </i>
    <i name="hartreedc">  -1338.06671871 </i>
    <i name="XCdc">    110.46164328 </i>
    <i name="pawpsdc">  15079.09367629 </i>
    <i name="pawaedc"> -14815.77357695 </i>
    <i name="eentropy">     -0.00943614 </i>
    <i name="bandstr">   -102.81681976 </i>
    <i name="atom">   4822.75196862 </i>
    <i name="e_fr_energy">   -201.54210827 </i>
    <i name="e_wo_entrp">   -201.53267212 </i>
    <i name="e_0_energy">   -201.53974923 </i>
   </energy>
  </scstep>
  <structure>
   <crystal>
    <varray name="basis" >
     <v>       4.39966205      -7.62043821       0.00000000 </v>
     <v>       4.39966205       7.62043821       0.00000000 </v>
     <v>       0.00000000       0.00000000       5.63816677 </v>
    </varray>
    <i name="volume">    378.06561363 </i>
    <varray name="rec_basis" >
     <v>       0.11364509      -0.06561302       0.00000000 </v>
     <v>       0.11364509       0.06561302       0.00000000 </v>
     <v>       0.00000000       0.00000000       0.17736261 </v>
    </varray>
   </crystal>
   <varray name="positions" >
    <v>       0.00356784       0.64674791       0.21995247 </v>
    <v>       0.64318008       0.99643216       0.21995247 </v>
    <v>       0.91690948       0.32352319       0.99261509 </v>
    <v>       0.64674791       0.00356784       0.71995247 </v>
    <v>       0.08309052       0.40661372       0.49261509 </v>
    <v>       0.32352319       0.91690948       0.49261509 </v>
    <v>       0.35325209       0.35681992       0.21995247 </v>
    <v>       0.59338628       0.67647681       0.49261509 </v>
    <v>       0.99643216       0.64318008       0.71995247 </v>
    <v>       0.35681992       0.35325209       0.71995247 </v>
    <v>       0.67647681       0.59338628       0.99261509 </v>
    <v>       0.40661372       0.08309052       0.99261509 </v>
    <v>       0.21346895       0.30197228       0.46951010 </v>
    <v>       0.08850333       0.78653105       0.46951010 </v>
    <v>       0.30197228       0.21346895       0.96951010 </v>
    <v>       0.69802772       0.91149667       0.46951010 </v>
    <v>      -0.00000000      -0.00000000       0.96025976 </v>
    <v>       0.06333368       0.48314904       0.78000293 </v>
    <v>      -0.00000000      -0.00000000       0.46025976 </v>
    <v>       0.66666667       0.33333333       0.44962615 </v>
    <v>       0.58018464       0.51685096       0.28000293 </v>
    <v>       0.78653105       0.08850333       0.96951010 </v>
    <v>       0.91149667       0.69802772       0.96951010 </v>
    <v>       0.33333333       0.66666667       0.94962615 </v>
    <v>       0.93666632       0.41981536       0.28000293 </v>
    <v>       0.41981536       0.93666632       0.78000293 </v>
    <v>       0.51685096       0.58018464       0.78000293 </v>
    <v>       0.48314904       0.06333368       0.28000293 </v>
   </varray>
  </structure>
  <varray name="forces" >
   <v>       0.00043610       0.00267385      -0.04641537 </v>
   <v>       0.00209757      -0.00171460      -0.04641537 </v>
   <v>      -0.07866207      -0.05401132       0.01190661 </v>
   <v>       0.00043610      -0.00267385      -0.04641537 </v>
   <v>      -0.00744414      -0.09512901       0.01190661 </v>
   <v>      -0.07866207       0.05401132       0.01190661 </v>
   <v>      -0.00253368      -0.00095925      -0.04641537 </v>
   <v>       0.08610620       0.04111769       0.01190661 </v>
   <v>       0.00209757       0.00171460      -0.04641537 </v>
   <v>      -0.00253368       0.00095925      -0.04641537 </v>
   <v>       0.08610620      -0.04111769       0.01190661 </v>
   <v>      -0.00744414       0.09512901       0.01190661 </v>
   <v>      -0.06610583      -0.03241546       0.11440269 </v>
   <v>       0.00498030       0.07345706       0.11440269 </v>
   <v>      -0.06610583       0.03241546       0.11440269 </v>
   <v>       0.06112553      -0.04104160       0.11440269 </v>
   <v>       0.00000000       0.00000000       0.07764480 </v>
   <v>      -0.00620568       0.12167837      -0.11941658 </v>
   <v>       0.00000000       0.00000000       0.07764480 </v>
   <v>       0.00000000       0.00000000       0.04092316 </v>
   <v>      -0.10227372       0.06621346      -0.11941658 </v>
   <v>       0.00498030      -0.07345706       0.11440269 </v>
   <v>       0.06112553       0.04104160       0.11440269 </v>
   <v>       0.00000000       0.00000000       0.04092316 </v>
   <v>       0.10847940       0.05546491      -0.11941658 </v>
   <v>       0.10847940      -0.05546491      -0.11941658 </v>
   <v>      -0.10227372      -0.06621346      -0.11941658 </v>
   <v>      -0.00620568      -0.12167837      -0.11941658 </v>
  </varray>
  <varray name="stress" >
   <v>     -74.53301585       0.00000000       0.00000000 </v>
   <v>       0.00000000     -74.53301585      -0.00000000 </v>
   <v>       0.00000000      -0.00000000    -117.94847112 </v>
  </varray>
  <energy>
   <i name="e_fr_energy">   -201.54210827 </i>
   <i name="e_wo_entrp">   -201.53974923 </i>
   <i name="e_0_energy">     -0.00943614 </i>
  </energy>
  <time name="totalsc">   44.27   44.30</time>
 </calculation>
 <calculation>
  <scstep>
   <time name="dav">    5.19    5.19</time>
   <time name="total">    5.62    5.63</time>
   <energy>
    <i name="alphaZ">    128.97792015 </i>
    <i name="ewald">  -4086.15946496 </i>
    <i name="hartreedc">  -1338.07305792 </i>
    <i name="XCdc">    110.46209021 </i>
    <i name="pawpsdc">  15079.05164488 </i>
    <i name="pawaedc"> -14815.73201945 </i>
    <i name="eentropy">     -0.00939449 </i>
    <i name="bandstr">   -102.81179617 </i>
    <i name="atom">   4822.75196862 </i>
    <i name="e_fr_energy">   -201.54210912 </i>
    <i name="e_wo_entrp">   -201.53271464 </i>
    <i name="e_0_energy">   -201.53976050 </i>
   </energy>
  </scstep>
  <scstep>
   <time name="diag">    0.98    0.98</time>
   <time name="diis">    2.09    2.09</time>
   <time name="orth">    0.09    0.09</time>
   <time name="total">    3.21    3.22</time>
   <energy>
    <i name="alphaZ">    128.97792015 </i>
    <i name="ewald">  -4086.15946496 </i>
    <i name="hartreedc">  -1338.06460988 </i>
    <i name="XCdc">    110.46151975 </i>
    <i name="pawpsdc">  15079.01923554 </i>
    <i name="pawaedc"> -14815.69952053 </i>
    <i name="eentropy">     -0.00940119 </i>
    <i name="bandstr">   -102.81975661 </i>
    <i name="atom">   4822.75196862 </i>
    <i name="e_fr_energy">   -201.54210912 </i>
    <i name="e_wo_entrp">   -201.53270793 </i>
    <i name="e_0_energy">   -201.53975883 </i>
   </energy>
  </scstep>
  <structure>
   <crystal>
    <varray name="basis" >
     <v>       4.39966205      -7.62043821       0.00000000 </v>
     <v>       4.39966205       7.62043821       0.00000000 </v>
     <v>       0.00000000       0.00000000       5.63816677 </v>
    </varray>
    <i name="volume">    378.06561363 </i>
    <varray name="rec_basis" >
     <v>       0.11364509      -0.06561302       0.00000000 </v>
     <v>       0.11364509       0.06561302       0.00000000 </v>
     <v>       0.00000000       0.00000000       0.17736261 </v>
    </varray>
   </crystal>
   <varray name="positions" >
    <v>       0.00356785       0.64674702       0.21995116 </v>
    <v>       0.64317918       0.99643215       0.21995116 </v>
    <v>       0.91690917       0.32352290       0.99261545 </v>
    <v>       0.64674702       0.00356785       0.71995116 </v>
    <v>       0.08309083       0.40661373       0.49261545 </v>
    <v>       0.32352290       0.91690917       0.49261545 </v>
    <v>       0.35325298       0.35682082       0.21995116 </v>
    <v>       0.59338627       0.67647710       0.49261545 </v>
    <v>       0.99643215       0.64317918       0.71995116 </v>
    <v>       0.35682082       0.35325298       0.71995116 </v>
    <v>       0.67647710       0.59338627       0.99261545 </v>
    <v>       0.40661373       0.08309083       0.99261545 </v>
    <v>       0.21346921       0.30197311       0.46950975 </v>
    <v>       0.08850390       0.78653079       0.46950975 </v>
    <v>       0.30197311       0.21346921       0.96950975 </v>
    <v>       0.69802689       0.91149610       0.46950975 </v>
    <v>      -0.00000000      -0.00000000       0.96025895 </v>
    <v>       0.06333380       0.48314938       0.78000327 </v>
    <v>      -0.00000000      -0.00000000       0.46025895 </v>
    <v>       0.66666667       0.33333333       0.44962985 </v>
    <v>       0.58018442       0.51685062       0.28000327 </v>
    <v>       0.78653079       0.08850390       0.96950975 </v>
    <v>       0.91149610       0.69802689       0.96950975 </v>
    <v>       0.33333333       0.66666667       0.94962985 </v>
    <v>       0.93666620       0.41981558       0.28000327 </v>
    <v>       0.41981558       0.93666620       0.78000327 </v>
    <v>       0.51685062       0.58018442       0.78000327 </v>
    <v>       0.48314938       0.06333380       0.28000327 </v>
   </varray>
  </structure>
  <varray name="forces" >
   <v>       0.00079543       0.00372946      -0.04602295 </v>
   <v>       0.00283209      -0.00255360      -0.04602295 </v>
   <v>      -0.07907570      -0.05403369       0.01195178 </v>
   <v>       0.00079543      -0.00372946      -0.04602295 </v>
   <v>      -0.00725669      -0.09549841       0.01195178 </v>
   <v>      -0.07907570       0.05403369       0.01195178 </v>
   <v>      -0.00362752      -0.00117586      -0.04602295 </v>
   <v>       0.08633240       0.04146473       0.01195178 </v>
   <v>       0.00283209       0.00255360      -0.04602295 </v>
   <v>      -0.00362752       0.00117586      -0.04602295 </v>
   <v>       0.08633240      -0.04146473       0.01195178 </v>
   <v>      -0.00725669       0.09549841       0.01195178 </v>
   <v>      -0.06750963      -0.03255969       0.11438660 </v>
   <v>       0.00555730       0.07474490       0.11438660 </v>
   <v>      -0.06750963       0.03255969       0.11438660 </v>
   <v>       0.06195233      -0.04218521       0.11438660 </v>
   <v>      -0.00000000       0.00000000       0.07727631 </v>
   <v>      -0.00680061       0.12188883      -0.11947698 </v>
   <v>      -0.00000000      -0.00000000       0.07727631 </v>
   <v>      -0.00000000      -0.00000000       0.04020833 </v>
   <v>      -0.10215852       0.06683392      -0.11947698 </v>
   <v>       0.00555730      -0.07474490       0.11438660 </v>
   <v>       0.06195233       0.04218521       0.11438660 </v>
   <v>      -0.00000000       0.00000000       0.04020833 </v>
   <v>       0.10895913       0.05505491      -0.11947698 </v>
   <v>       0.10895913      -0.05505491      -0.11947698 </v>
   <v>      -0.10215852      -0.06683392      -0.11947698 </v>
   <v>      -0.00680061      -0.12188883      -0.11947698 </v>
  </varray>
  <varray name="stress" >
   <v>     -74.57467291       0.00000000       0.00000000 </v>
   <v>       0.00000000     -74.57467291      -0.00000000 </v>
   <v>       0.00000000       0.00000000    -117.96678686 </v>
  </varray>
  <energy>
   <i name="e_fr_energy">   -201.54210912 </i>
   <i name="e_wo_entrp">   -201.53975883 </i>
   <i name="e_0_energy">     -0.00940119 </i>
  </energy>
  <time name="totalsc">   18.53   18.56</time>
 </calculation>
 <calculation>
  <scstep>
   <time name="dav">    6.48    6.48</time>
   <time name="total">    6.92    6.92</time>
   <energy>
    <i name="alphaZ">    128.97792015 </i>
    <i name="ewald">  -4087.22806582 </i>
    <i name="hartreedc">  -1336.57278990 </i>
    <i name="XCdc">    110.49505424 </i>
    <i name="pawpsdc">  15079.00243199 </i>
    <i name="pawaedc"> -14815.68267645 </i>
    <i name="eentropy">     -0.00707222 </i>
    <i name="bandstr">   -103.29010581 </i>
    <i name="atom">   4822.75196862 </i>
    <i name="e_fr_energy">   -201.55333520 </i>
    <i name="e_wo_entrp">   -201.54626298 </i>
    <i name="e_0_energy">   -201.55156715 </i>
   </energy>
  </scstep>
  <scstep>
   <time name="diag">    0.98    0.98</time>
   <time name="diis">    4.34    4.34</time>
   <time name="orth">    0.09    0.09</time>
   <time name="total">    5.84    5.84</time>
   <energy>
    <i name="e_fr_energy">   -201.55731108 </i>
    <i name="e_wo_entrp">   -201.54740933 </i>
    <i name="e_0_energy">   -201.55483564 </i>
   </energy>
  </scstep>
  <scstep>
[...]
       <r>   -2.8445    1.0000 </r>
       <r>   -1.9426    1.0000 </r>
       <r>   -1.9421    1.0000 </r>
       <r>   -1.7211    1.0000 </r>
       <r>   -1.7211    1.0000 </r>
       <r>   -0.7671    1.0000 </r>
       <r>   -0.7671    1.0000 </r>
       <r>   -0.5940    1.0000 </r>
       <r>   -0.5197    1.0000 </r>
       <r>   -0.5197    1.0000 </r>
       <r>   -0.5043    1.0000 </r>
       <r>   -0.0761    1.0000 </r>
       <r>   -0.0761    1.0000 </r>
       <r>    0.3343    1.0000 </r>
       <r>    0.3343    1.0000 </r>
       <r>    0.4460    1.0000 </r>
       <r>    0.7241    1.0000 </r>
       <r>    0.8042    1.0000 </r>
       <r>    0.8042    1.0000 </r>
       <r>    0.9348    1.0000 </r>
       <r>    1.4850    1.0000 </r>
       <r>    1.4850    1.0000 </r>
       <r>    1.7383    1.0000 </r>
       <r>    2.1415    1.0000 </r>
       <r>    2.1415    1.0000 </r>
       <r>    2.3824    1.0000 </r>
       <r>    2.6300    1.0000 </r>
       <r>    2.6918    1.0000 </r>
       <r>    2.6918    1.0000 </r>
       <r>    3.4592    1.0000 </r>
       <r>    3.4592    1.0000 </r>
       <r>    3.5870    1.0000 </r>
       <r>    3.7527    1.0000 </r>
       <r>    3.7527    1.0000 </r>
       <r>    3.8333    1.0000 </r>
       <r>    4.1111    1.0000 </r>
       <r>    4.1111    1.0000 </r>
       <r>    4.5047    1.0000 </r>
       <r>    4.5047    1.0000 </r>
       <r>    4.9118    1.0000 </r>
       <r>    4.9118    1.0000 </r>
       <r>    5.0615    1.0000 </r>
       <r>    5.1514    1.0000 </r>
       <r>    6.7297    0.6075 </r>
       <r>    6.7448    0.4486 </r>
       <r>    6.8562   -0.0411 </r>
       <r>    6.8562   -0.0411 </r>
       <r>    9.1514    0.0000 </r>
       <r>    9.1514    0.0000 </r>
       <r>    9.4652    0.0000 </r>
       <r>    9.4652    0.0000 </r>
       <r>    9.7172    0.0000 </r>
       <r>    9.8940    0.0000 </r>
       <r>   10.2792    0.0000 </r>
       <r>   10.2792    0.0000 </r>
       <r>   10.6969    0.0000 </r>
       <r>   10.7847    0.0000 </r>
       <r>   10.8475    0.0000 </r>
       <r>   10.8475    0.0000 </r>
       <r>   11.1013    0.0000 </r>
       <r>   11.1182    0.0000 </r>
       <r>   11.1183    0.0000 </r>
       <r>   11.3349    0.0000 </r>
      </set>
     </set>
    </set>
   </array>
  </eigenvalues>
  <separator name="orbital magnetization" >
   <v name="MAGDIPOLOUT">      0.00000000      0.00000000      0.00000000</v>
  </separator>
  <dos>
   <i name="efermi">      6.73997814 </i>
   <total>
    <array>
     <dimension dim="1">gridpoints</dimension>
     <dimension dim="2">spin</dimension>
     <field>energy</field>
     <field>total</field>
     <field>integrated</field>
     <set>
      <set comment="spin 1">
       <r>   -12.6122     0.0000     0.0000 </r>
       <r>   -12.5277     0.0000     0.0000 </r>
       <r>   -12.4432     0.0000     0.0000 </r>
       <r>   -12.3586     0.0000     0.0000 </r>
       <r>   -12.2741     0.0000     0.0000 </r>
       <r>   -12.1896     0.0000     0.0000 </r>
       <r>   -12.1051     0.0000     0.0000 </r>
       <r>   -12.0205     0.0000     0.0000 </r>
       <r>   -11.9360     0.0000     0.0000 </r>
       <r>   -11.8515     0.0000     0.0000 </r>
       <r>   -11.7670     0.0000     0.0000 </r>
       <r>   -11.6824     0.0020     0.0002 </r>
       <r>   -11.5979     0.0060     0.0007 </r>
       <r>   -11.5134    -0.0623    -0.0046 </r>
       <r>   -11.4289     0.4666     0.0349 </r>
       <r>   -11.3443     2.3024     0.2295 </r>
       <r>   -11.2598     4.0374     0.5707 </r>
       <r>   -11.1753     4.5480     0.9552 </r>
       <r>   -11.0908     4.9723     1.3754 </r>
       <r>   -11.0062     5.6386     1.8520 </r>
       <r>   -10.9217     9.9418     2.6924 </r>
       <r>   -10.8372    10.0303     3.5402 </r>
       <r>   -10.7527     8.6464     4.2710 </r>
       <r>   -10.6681     8.9145     5.0245 </r>
       <r>   -10.5836     4.2318     5.3822 </r>
       <r>   -10.4991     3.9470     5.7158 </r>
       <r>   -10.4146     0.4209     5.7514 </r>
       <r>   -10.3300     6.3847     6.2911 </r>
       <r>   -10.2455     9.3938     7.0851 </r>
       <r>   -10.1610     1.9715     7.2517 </r>
       <r>   -10.0765     7.2515     7.8647 </r>
       <r>    -9.9919    16.9212     9.2950 </r>
       <r>    -9.9074     9.8451    10.1271 </r>
       <r>    -9.8229     6.6766    10.6915 </r>
       <r>    -9.7384     5.2988    11.1393 </r>
       <r>    -9.6538     4.1335    11.4887 </r>
       <r>    -9.5693     9.8518    12.3214 </r>
       <r>    -9.4848    15.2752    13.6126 </r>
       <r>    -9.4003    18.9843    15.2172 </r>
       <r>    -9.3157    15.8718    16.5588 </r>
       <r>    -9.2312    14.8244    17.8119 </r>
       <r>    -9.1467    10.0895    18.6647 </r>
       <r>    -9.0621    11.6669    19.6508 </r>
       <r>    -8.9776    18.5306    21.2171 </r>
       <r>    -8.8931    25.3834    23.3627 </r>
       <r>    -8.8086     8.1931    24.0552 </r>
       <r>    -8.7240    -0.6780    23.9979 </r>
       <r>    -8.6395    -0.0100    23.9970 </r>
       <r>    -8.5550     0.0339    23.9999 </r>
       <r>    -8.4705     0.0011    24.0000 </r>
       <r>    -8.3859     0.0000    24.0000 </r>
       <r>    -8.3014     0.0000    24.0000 </r>
       <r>    -8.2169     0.0000    24.0000 </r>
       <r>    -8.1324     0.0000    24.0000 </r>
       <r>    -8.0478     0.0000    24.0000 </r>
       <r>    -7.9633     0.0000    24.0000 </r>
       <r>    -7.8788     0.0000    24.0000 </r>
       <r>    -7.7943     0.0000    24.0000 </r>
       <r>    -7.7097     0.0000    24.0000 </r>
       <r>    -7.6252     0.0000    24.0000 </r>
       <r>    -7.5407     0.0000    24.0000 </r>
       <r>    -7.4562     0.0000    24.0000 </r>
       <r>    -7.3716     0.0000    24.0000 </r>
       <r>    -7.2871     0.0000    24.0000 </r>
       <r>    -7.2026     0.0000    24.0000 </r>
       <r>    -7.1181     0.0000    24.0000 </r>
       <r>    -7.0335     0.0000    24.0000 </r>
       <r>    -6.9490     0.0000    24.0000 </r>
       <r>    -6.8645     0.0000    24.0000 </r>
       <r>    -6.7800     0.0000    24.0000 </r>
       <r>    -6.6954     0.0000    24.0000 </r>
       <r>    -6.6109     0.0000    24.0000 </r>
       <r>    -6.5264     0.0000    24.0000 </r>
       <r>    -6.4419     0.0000    24.0000 </r>
       <r>    -6.3573     0.0000    24.0000 </r>
       <r>    -6.2728     0.0000    24.0000 </r>
       <r>    -6.1883     0.0000    24.0000 </r>
       <r>    -6.1038     0.0000    24.0000 </r>
       <r>    -6.0192     0.0000    24.0000 </r>
       <r>    -5.9347     0.0000    24.0000 </r>
       <r>    -5.8502     0.0000    24.0000 </r>
       <r>    -5.7657     0.0000    24.0000 </r>
       <r>    -5.6811     0.0000    24.0000 </r>
       <r>    -5.5966     0.0000    24.0000 </r>
       <r>    -5.5121     0.0000    24.0000 </r>
       <r>    -5.4276     0.0000    24.0000 </r>
       <r>    -5.3430     0.0000    24.0000 </r>
       <r>    -5.2585     0.0000    24.0000 </r>
       <r>    -5.1740     0.0000    24.0000 </r>
       <r>    -5.0895     0.0000    24.0000 </r>
       <r>    -5.0049     0.0000    24.0000 </r>
       <r>    -4.9204     0.0000    24.0000 </r>
       <r>    -4.8359     0.0000    24.0000 </r>
       <r>    -4.7514     0.0001    24.0000 </r>
       <r>    -4.6668     0.0015    24.0001 </r>
       <r>    -4.5823    -0.0018    24.0000 </r>
       <r>    -4.4978    -0.0181    23.9985 </r>
       <r>    -4.4133     0.4147    24.0335 </r>
       <r>    -4.3287     1.0439    24.1217 </r>
       <r>    -4.2442     1.1868    24.2221 </r>
       <r>    -4.1597     2.3073    24.4171 </r>
       <r>    -4.0752     1.3864    24.5343 </r>
       <r>    -3.9906     2.9396    24.7827 </r>
       <r>    -3.9061     3.1225    25.0467 </r>
       <r>    -3.8216     2.8183    25.2849 </r>
       <r>    -3.7371     4.2119    25.6409 </r>
       <r>    -3.6525     4.9622    26.0603 </r>
       <r>    -3.5680     8.8424    26.8077 </r>
       <r>    -3.4835     8.2394    27.5042 </r>
       <r>    -3.3990     9.7213    28.3259 </r>
       <r>    -3.3144     9.3987    29.1203 </r>
       <r>    -3.2299     8.5107    29.8397 </r>
       <r>    -3.1454     7.1887    30.4473 </r>
       <r>    -3.0608     6.9078    31.0312 </r>
       <r>    -2.9763     6.6260    31.5912 </r>
       <r>    -2.8918     5.6565    32.0694 </r>
       <r>    -2.8073     9.3574    32.8603 </r>
       <r>    -2.7227    11.7622    33.8545 </r>
       <r>    -2.6382    10.8777    34.7739 </r>
       <r>    -2.5537    11.0333    35.7065 </r>
       <r>    -2.4692    12.6040    36.7719 </r>
       <r>    -2.3846    11.0673    37.7074 </r>
       <r>    -2.3001     9.5014    38.5105 </r>
       <r>    -2.2156    11.2457    39.4610 </r>
       <r>    -2.1311     8.3132    40.1637 </r>
       <r>    -2.0465     5.5176    40.6301 </r>
       <r>    -1.9620     2.7418    40.8618 </r>
       <r>    -1.8775     1.2132    40.9644 </r>
       <r>    -1.7930     4.0936    41.3104 </r>
       <r>    -1.7084     3.1912    41.5801 </r>
       <r>    -1.6239     2.5278    41.7938 </r>
       <r>    -1.5394     6.1330    42.3122 </r>
       <r>    -1.4549    10.2522    43.1788 </r>
       <r>    -1.3703     6.5475    43.7322 </r>
       <r>    -1.2858     4.4140    44.1053 </r>
       <r>    -1.2013     8.2443    44.8021 </r>
       <r>    -1.1168    10.2813    45.6712 </r>
       <r>    -1.0322    12.2329    46.7051 </r>
       <r>    -0.9477    11.8113    47.7035 </r>
       <r>    -0.8632     5.7788    48.1920 </r>
       <r>    -0.7787     8.1009    48.8767 </r>
       <r>    -0.6941     7.2433    49.4889 </r>
       <r>    -0.6096     6.2307    50.0156 </r>
       <r>    -0.5251     9.2709    50.7992 </r>
       <r>    -0.4406    11.1163    51.7388 </r>
       <r>    -0.3560    10.0425    52.5877 </r>
       <r>    -0.2715     8.2025    53.2810 </r>
       <r>    -0.1870     8.4848    53.9982 </r>
       <r>    -0.1025     9.3028    54.7845 </r>
       <r>    -0.0179    11.4153    55.7494 </r>
       <r>     0.0666    11.9814    56.7621 </r>
       <r>     0.1511    10.5719    57.6557 </r>
       <r>     0.2356    12.7953    58.7372 </r>
       <r>     0.3202    14.9317    59.9993 </r>
       <r>     0.4047    17.2352    61.4561 </r>
       <r>     0.4892     9.3723    62.2483 </r>
       <r>     0.5737    13.2772    63.3706 </r>
       <r>     0.6583    13.9196    64.5471 </r>
       <r>     0.7428    13.0630    65.6513 </r>
       <r>     0.8273    11.2576    66.6028 </r>
       <r>     0.9118    13.1771    67.7167 </r>
       <r>     0.9964    18.8690    69.3116 </r>
       <r>     1.0809    17.3133    70.7750 </r>
       <r>     1.1654    13.3269    71.9014 </r>
       <r>     1.2499    11.3692    72.8624 </r>
       <r>     1.3345    12.9381    73.9560 </r>
       <r>     1.4190    10.5933    74.8514 </r>
       <r>     1.5035     9.7673    75.6770 </r>
       <r>     1.5880    12.9254    76.7695 </r>
       <r>     1.6726    11.3247    77.7267 </r>
       <r>     1.7571    12.8326    78.8114 </r>
       <r>     1.8416    11.9310    79.8199 </r>
       <r>     1.9261    10.0929    80.6730 </r>
       <r>     2.0107     9.7637    81.4983 </r>
       <r>     2.0952     9.6721    82.3158 </r>
       <r>     2.1797    10.5231    83.2053 </r>
       <r>     2.2642    11.0740    84.1413 </r>
       <r>     2.3488    11.1925    85.0874 </r>
       <r>     2.4333     7.4170    85.7143 </r>
       <r>     2.5178     7.5682    86.3540 </r>
       <r>     2.6023    10.7068    87.2590 </r>
       <r>     2.6869    10.6118    88.1560 </r>
       <r>     2.7714     9.0842    88.9238 </r>
       <r>     2.8559    13.7368    90.0849 </r>
       <r>     2.9405    12.8710    91.1728 </r>
       <r>     3.0250     8.5173    91.8928 </r>
       <r>     3.1095     8.1947    92.5854 </r>
       <r>     3.1940    12.1545    93.6128 </r>
       <r>     3.2786    14.3003    94.8215 </r>
       <r>     3.3631    10.4117    95.7016 </r>
       <r>     3.4476    14.3675    96.9160 </r>
       <r>     3.5321    12.5851    97.9798 </r>
       <r>     3.6167     8.7895    98.7227 </r>
       <r>     3.7012     9.0720    99.4895 </r>
       <r>     3.7857    13.1705   100.6028 </r>
       <r>     3.8702    21.7283   102.4394 </r>
       <r>     3.9548    13.7655   103.6029 </r>
       <r>     4.0393     8.2819   104.3029 </r>
       <r>     4.1238    10.6380   105.2021 </r>
       <r>     4.2083     9.6075   106.0142 </r>
       <r>     4.2929     5.7185   106.4975 </r>
       <r>     4.3774    12.0435   107.5155 </r>
       <r>     4.4619    19.1446   109.1337 </r>
       <r>     4.5464    16.5021   110.5286 </r>
       <r>     4.6310    13.5684   111.6754 </r>
       <r>     4.7155    12.2171   112.7081 </r>
       <r>     4.8000     6.9207   113.2931 </r>
       <r>     4.8845     7.2675   113.9074 </r>
       <r>     4.9691     9.9368   114.7473 </r>
       <r>     5.0536     8.5325   115.4685 </r>
       <r>     5.1381    12.5601   116.5301 </r>
       <r>     5.2226    13.9649   117.7105 </r>
       <r>     5.3072    11.4398   118.6775 </r>
       <r>     5.3917     8.7785   119.4195 </r>
       <r>     5.4762     4.4994   119.7998 </r>
       <r>     5.5607     2.4492   120.0068 </r>
       <r>     5.6453     6.6308   120.5673 </r>
       <r>     5.7298    10.4303   121.4489 </r>
       <r>     5.8143     3.9942   121.7865 </r>
       <r>     5.8988    -0.4607   121.7476 </r>
       <r>     5.9834     0.0143   121.7488 </r>
       <r>     6.0679     0.0141   121.7500 </r>
       <r>     6.1524     0.0003   121.7500 </r>
       <r>     6.2369     0.0010   121.7501 </r>
       <r>     6.3215     0.0123   121.7511 </r>
       <r>     6.4060    -0.0364   121.7480 </r>
       <r>     6.4905     0.0807   121.7549 </r>
       <r>     6.5750     2.8649   121.9970 </r>
       <r>     6.6596     7.3754   122.6204 </r>
       <r>     6.7441    17.3589   124.0877 </r>
       <r>     6.8286    17.5517   125.5713 </r>
       <r>     6.9131     6.9651   126.1600 </r>
       <r>     6.9977     1.1646   126.2584 </r>
       <r>     7.0822    -0.1207   126.2482 </r>
       <r>     7.1667     0.0146   126.2495 </r>
       <r>     7.2512     0.0060   126.2500 </r>
       <r>     7.3358     0.0002   126.2500 </r>
       <r>     7.4203     0.0000   126.2500 </r>
       <r>     7.5048     0.0000   126.2500 </r>
       <r>     7.5893     0.0000   126.2500 </r>
       <r>     7.6739     0.0006   126.2501 </r>
       <r>     7.7584     0.0160   126.2514 </r>
       <r>     7.8429    -0.0682   126.2456 </r>
       <r>     7.9274    -0.0234   126.2437 </r>
       <r>     8.0120     3.8697   126.5707 </r>
       <r>     8.0965     2.4001   126.7736 </r>
       <r>     8.1810    -0.2949   126.7487 </r>
       <r>     8.2655     0.0087   126.7494 </r>
       <r>     8.3501     0.0079   126.7501 </r>
       <r>     8.4346    -0.0061   126.7496 </r>
       <r>     8.5191     0.0730   126.7557 </r>
       <r>     8.6036     0.4102   126.7904 </r>
       <r>     8.6882     1.3357   126.9033 </r>
       <r>     8.7727     1.5614   127.0353 </r>
       <r>     8.8572     2.4951   127.2462 </r>
       <r>     8.9418     4.3689   127.6155 </r>
       <r>     9.0263     8.9289   128.3702 </r>
       <r>     9.1108    17.6599   129.8629 </r>
       <r>     9.1953    16.9900   131.2990 </r>
       <r>     9.2799    10.0436   132.1479 </r>
       <r>     9.3644    10.0619   132.9984 </r>
       <r>     9.4489    12.1908   134.0288 </r>
       <r>     9.5334    14.6267   135.2652 </r>
       <r>     9.6180     7.7294   135.9185 </r>
       <r>     9.7025     8.0833   136.6017 </r>
       <r>     9.7870     8.9688   137.3598 </r>
       <r>     9.8715     8.4981   138.0781 </r>
       <r>     9.9561    12.9148   139.1698 </r>
       <r>    10.0406    13.8244   140.3383 </r>
       <r>    10.1251     9.9779   141.1816 </r>
       <r>    10.2096    12.2543   142.2174 </r>
       <r>    10.2942    13.7483   143.3795 </r>
       <r>    10.3787    11.5755   144.3580 </r>
       <r>    10.4632    13.6156   145.5088 </r>
       <r>    10.5477    16.3339   146.8894 </r>
       <r>    10.6323    14.2023   148.0899 </r>
       <r>    10.7168    14.7300   149.3350 </r>
       <r>    10.8013    16.8056   150.7555 </r>
       <r>    10.8858    15.8210   152.0927 </r>
       <r>    10.9704    15.7607   153.4249 </r>
       <r>    11.0549    15.3304   154.7207 </r>
       <r>    11.1394    14.5769   155.9528 </r>
       <r>    11.2239    15.4866   157.2619 </r>
       <r>    11.3085    16.7528   158.6779 </r>
       <r>    11.3930     9.8281   159.5086 </r>
       <r>    11.4775     4.7695   159.9118 </r>
       <r>    11.5620     0.9389   159.9911 </r>
       <r>    11.6466     0.0875   159.9985 </r>
       <r>    11.7311     0.0170   160.0000 </r>
       <r>    11.8156    -0.0004   159.9999 </r>
       <r>    11.9001     0.0009   160.0000 </r>
       <r>    11.9847     0.0000   160.0000 </r>
       <r>    12.0692     0.0000   160.0000 </r>
       <r>    12.1537     0.0000   160.0000 </r>
       <r>    12.2382     0.0000   160.0000 </r>
       <r>    12.3228     0.0000   160.0000 </r>
       <r>    12.4073     0.0000   160.0000 </r>
       <r>    12.4918     0.0000   160.0000 </r>
       <r>    12.5763     0.0000   160.0000 </r>
       <r>    12.6609     0.0000   160.0000 </r>
       <r>    12.7454     0.0000   160.0000 </r>
      </set>
     </set>
    </array>
   </total>
  </dos>
 </calculation>
 <structure name="finalpos" >
  <crystal>
   <varray name="basis" >
    <v>       4.39966205      -7.62043821       0.00000000 </v>
    <v>       4.39966205       7.62043821       0.00000000 </v>
    <v>       0.00000000       0.00000000       5.63816677 </v>
   </varray>
   <i name="volume">    378.06561363 </i>
   <varray name="rec_basis" >
    <v>       0.11364509      -0.06561302       0.00000000 </v>
    <v>       0.11364509       0.06561302       0.00000000 </v>
    <v>       0.00000000       0.00000000       0.17736261 </v>
   </varray>
  </crystal>
  <varray name="positions" >
   <v>       0.00490382       0.64833654       0.22038382 </v>
   <v>       0.64343273       0.99509618       0.22038382 </v>
   <v>       0.91731659       0.32339148       0.99182212 </v>
   <v>       0.64833654       0.00490382       0.72038382 </v>
   <v>       0.08268341       0.40607488       0.49182212 </v>
   <v>       0.32339148       0.91731659       0.49182212 </v>
   <v>       0.35166346       0.35656727       0.22038382 </v>
   <v>       0.59392512       0.67660852       0.49182212 </v>
   <v>       0.99509618       0.64343273       0.72038382 </v>
   <v>       0.35656727       0.35166346       0.72038382 </v>
   <v>       0.67660852       0.59392512       0.99182212 </v>
   <v>       0.40607488       0.08268341       0.99182212 </v>
   <v>       0.21246197       0.30062678       0.47182656 </v>
   <v>       0.08816482       0.78753803       0.47182656 </v>
   <v>       0.30062678       0.21246197       0.97182656 </v>
   <v>       0.69937322       0.91183518       0.47182656 </v>
   <v>      -0.00000000      -0.00000000       0.96608006 </v>
   <v>       0.06191423       0.48355261       0.77747727 </v>
   <v>      -0.00000000      -0.00000000       0.46608006 </v>
   <v>       0.66666667       0.33333333       0.44551834 </v>
   <v>       0.57836161       0.51644739       0.27747727 </v>
   <v>       0.78753803       0.08816482       0.97182656 </v>
   <v>       0.91183518       0.69937322       0.97182656 </v>
   <v>       0.33333333       0.66666667       0.94551834 </v>
   <v>       0.93808577       0.42163839       0.27747727 </v>
   <v>       0.42163839       0.93808577       0.77747727 </v>
   <v>       0.51644739       0.57836161       0.77747727 </v>
   <v>       0.48355261       0.06191423       0.27747727 </v>
  </varray>
 </structure>
</modeling>
