unknown system                          
           1
     4.399662   -7.620438    0.000000
     4.399662    7.620438    0.000000
     0.000000    0.000000    5.638167
   Si   N 
  12  16
Direct configuration=     1
   0.00847736  0.64712623  0.21326215
   0.63864887  0.99152264  0.21326215
   0.91417805  0.32157747  0.99187268
   0.64712623  0.00847736  0.71326215
   0.08582195  0.40739942  0.49187268
   0.32157747  0.91417805  0.49187268
   0.35287377  0.36135113  0.21326215
   0.59260058  0.67842253  0.49187268
   0.99152264  0.63864887  0.71326215
   0.36135113  0.35287377  0.71326215
   0.67842253  0.59260058  0.99187268
   0.40739942  0.08582195  0.99187268
   0.21311138  0.30040483  0.46674092
   0.08729345  0.78688862  0.46674092
   0.30040483  0.21311138  0.96674092
   0.69959517  0.91270655  0.46674092
   0.00000000  0.00000000  0.95692726
   0.06686359  0.48449764  0.78259872
   0.00000000  0.00000000  0.45692726
   0.66666667  0.33333333  0.47577702
   0.58236595  0.51550236  0.28259872
   0.78688862  0.08729345  0.96674092
   0.91270655  0.69959517  0.96674092
   0.33333333  0.66666667  0.97577702
   0.93313641  0.41763405  0.28259872
   0.41763405  0.93313641  0.78259872
   0.51550236  0.58236595  0.78259872
   0.48449764  0.06686359  0.28259872
Direct configuration=     2
   0.00665869  0.64702066  0.21496072
   0.64036196  0.99334131  0.21496072
   0.91506868  0.32217488  0.99371418
   0.64702066  0.00665869  0.71496072
   0.08493132  0.40710620  0.49371418
   0.32217488  0.91506868  0.49371418
   0.35297934  0.35963804  0.21496072
   0.59289380  0.67782512  0.49371418
   0.99334131  0.64036196  0.71496072
   0.35963804  0.35297934  0.71496072
   0.67782512  0.59289380  0.99371418
   0.40710620  0.08493132  0.99371418
   0.21525939  0.30293298  0.46690188
   0.08767359  0.78474061  0.46690188
   0.30293298  0.21525939  0.96690188
   0.69706702  0.91232641  0.46690188
   0.00000000  0.00000000  0.95744605
   0.06533332  0.48437456  0.78070118
   0.00000000  0.00000000  0.45744605
   0.66666667  0.33333333  0.46984776
   0.58095876  0.51562544  0.28070118
   0.78474061  0.08767359  0.96690188
   0.91232641  0.69706702  0.96690188
   0.33333333  0.66666667  0.96984776
   0.93466668  0.41904124  0.28070118
   0.41904124  0.93466668  0.78070118
   0.51562544  0.58095876  0.78070118
   0.48437456  0.06533332  0.28070118
Direct configuration=     3
   0.00623723  0.64699619  0.21535434
   0.64075896  0.99376277  0.21535434
   0.91527507  0.32231332  0.99414093
   0.64699619  0.00623723  0.71535434
   0.08472493  0.40703825  0.49414093
   0.32231332  0.91527507  0.49414093
   0.35300381  0.35924104  0.21535434
   0.59296175  0.67768668  0.49414093
   0.99376277  0.64075896  0.71535434
   0.35924104  0.35300381  0.71535434
   0.67768668  0.59296175  0.99414093
   0.40703825  0.08472493  0.99414093
   0.21575717  0.30351886  0.46693919
   0.08776169  0.78424283  0.46693919
   0.30351886  0.21575717  0.96693919
   0.69648114  0.91223831  0.46693919
   0.00000000  0.00000000  0.95756627
   0.06497870  0.48434604  0.78026145
   0.00000000  0.00000000  0.45756627
   0.66666667  0.33333333  0.46847371
   0.58063266  0.51565396  0.28026145
   0.78424283  0.08776169  0.96693919
   0.91223831  0.69648114  0.96693919
   0.33333333  0.66666667  0.96847371
   0.93502130  0.41936734  0.28026145
   0.41936734  0.93502130  0.78026145
   0.51565396  0.58063266  0.78026145
   0.48434604  0.06497870  0.28026145
Direct configuration=     4
   0.00468052  0.64602868  0.21684209
   0.64134815  0.99531948  0.21684209
   0.91595340  0.32275348  0.99357837
   0.64602868  0.00468052  0.71684209
   0.08404660  0.40680007  0.49357837
   0.32275348  0.91595340  0.49357837
   0.35397132  0.35865185  0.21684209
   0.59319993  0.67724652  0.49357837
   0.99531948  0.64134815  0.71684209
   0.35865185  0.35397132  0.71684209
   0.67724652  0.59319993  0.99357837
   0.40680007  0.08404660  0.99357837
   0.21465211  0.30337507  0.46812705
   0.08872296  0.78534789  0.46812705
   0.30337507  0.21465211  0.96812705
   0.69662493  0.91127704  0.46812705
  -0.00000000 -0.00000000  0.95839476
   0.06411827  0.48395765  0.78042232
  -0.00000000 -0.00000000  0.45839476
   0.66666667  0.33333333  0.46082343
   0.58016061  0.51604235  0.28042232
   0.78534789  0.08872296  0.96812705
   0.91127704  0.69662493  0.96812705
   0.33333333  0.66666667  0.96082343
   0.93588173  0.41983939  0.28042232
   0.41983939  0.93588173  0.78042232
   0.51604235  0.58016061  0.78042232
   0.48395765  0.06411827  0.28042232
Direct configuration=     5
   0.00358302  0.64534656  0.21789098
   0.64176354  0.99641698  0.21789098
   0.91643163  0.32306379  0.99318176
   0.64534656  0.00358302  0.71789098
   0.08356837  0.40663216  0.49318176
   0.32306379  0.91643163  0.49318176
   0.35465344  0.35823646  0.21789098
   0.59336784  0.67693621  0.49318176
   0.99641698  0.64176354  0.71789098
   0.35823646  0.35465344  0.71789098
   0.67693621  0.59336784  0.99318176
   0.40663216  0.08356837  0.99318176
   0.21387302  0.30327370  0.46896452
   0.08940068  0.78612698  0.46896452
   0.30327370  0.21387302  0.96896452
   0.69672630  0.91059932  0.46896452
  -0.00000000 -0.00000000  0.95897886
   0.06351164  0.48368383  0.78053574
  -0.00000000 -0.00000000  0.45897886
   0.66666667  0.33333333  0.45542985
   0.57982781  0.51631617  0.28053574
   0.78612698  0.08940068  0.96896452
   0.91059932  0.69672630  0.96896452
   0.33333333  0.66666667  0.95542985
   0.93648836  0.42017219  0.28053574
   0.42017219  0.93648836  0.78053574
   0.51631617  0.57982781  0.78053574
   0.48368383  0.06351164  0.28053574
Direct configuration=     6
   0.00356784  0.64674791  0.21995247
   0.64318008  0.99643216  0.21995247
   0.91690948  0.32352319  0.99261509
   0.64674791  0.00356784  0.71995247
   0.08309052  0.40661372  0.49261509
   0.32352319  0.91690948  0.49261509
   0.35325209  0.35681992  0.21995247
   0.59338628  0.67647681  0.49261509
   0.99643216  0.64318008  0.71995247
   0.35681992  0.35325209  0.71995247
   0.67647681  0.59338628  0.99261509
   0.40661372  0.08309052  0.99261509
   0.21346895  0.30197228  0.46951010
   0.08850333  0.78653105  0.46951010
   0.30197228  0.21346895  0.96951010
   0.69802772  0.91149667  0.46951010
  -0.00000000 -0.00000000  0.96025976
   0.06333368  0.48314904  0.78000293
  -0.00000000 -0.00000000  0.46025976
   0.66666667  0.33333333  0.44962615
   0.58018464  0.51685096  0.28000293
   0.78653105  0.08850333  0.96951010
   0.91149667  0.69802772  0.96951010
   0.33333333  0.66666667  0.94962615
   0.93666632  0.41981536  0.28000293
   0.41981536  0.93666632  0.78000293
   0.51685096  0.58018464  0.78000293
   0.48314904  0.06333368  0.28000293
Direct configuration=     7
   0.00356785  0.64674702  0.21995116
   0.64317918  0.99643215  0.21995116
   0.91690917  0.32352290  0.99261545
   0.64674702  0.00356785  0.71995116
   0.08309083  0.40661373  0.49261545
   0.32352290  0.91690917  0.49261545
   0.35325298  0.35682082  0.21995116
   0.59338627  0.67647710  0.49261545
   0.99643215  0.64317918  0.71995116
   0.35682082  0.35325298  0.71995116
   0.67647710  0.59338627  0.99261545
   0.40661373  0.08309083  0.99261545
   0.21346921  0.30197311  0.46950975
   0.08850390  0.78653079  0.46950975
   0.30197311  0.21346921  0.96950975
   0.69802689  0.91149610  0.46950975
  -0.00000000 -0.00000000  0.96025895
   0.06333380  0.48314938  0.78000327
  -0.00000000 -0.00000000  0.46025895
   0.66666667  0.33333333  0.44962985
   0.58018442  0.51685062  0.28000327
   0.78653079  0.08850390  0.96950975
   0.91149610  0.69802689  0.96950975
   0.33333333  0.66666667  0.94962985
   0.93666620  0.41981558  0.28000327
   0.41981558  0.93666620  0.78000327
   0.51685062  0.58018442  0.78000327
   0.48314938  0.06333380  0.28000327
Direct configuration=     8
   0.00355240  0.64737166  0.22037157
   0.64381925  0.99644760  0.22037157
   0.91680223  0.32299965  0.99249274
   0.64737166  0.00355240  0.72037157
   0.08319777  0.40619742  0.49249274
   0.32299965  0.91680223  0.49249274
   0.35262834  0.35618075  0.22037157
   0.59380258  0.67700035  0.49249274
   0.99644760  0.64381925  0.72037157
   0.35618075  0.35262834  0.72037157
   0.67700035  0.59380258  0.99249274
   0.40619742  0.08319777  0.99249274
   0.21297587  0.30084608  0.47091378
   0.08787022  0.78702413  0.47091378
   0.30084608  0.21297587  0.97091378
   0.69915392  0.91212978  0.47091378
  -0.00000000 -0.00000000  0.96160157
   0.06275185  0.48333443  0.77855277
  -0.00000000 -0.00000000  0.46160157
   0.66666667  0.33333333  0.44753355
   0.57941742  0.51666557  0.27855277
   0.78702413  0.08787022  0.97091378
   0.91212978  0.69915392  0.97091378
   0.33333333  0.66666667  0.94753355
   0.93724815  0.42058258  0.27855277
   0.42058258  0.93724815  0.77855277
   0.51666557  0.57941742  0.77855277
   0.48333443  0.06275185  0.27855277
Direct configuration=     9
   0.00354938  0.64749415  0.22045401
   0.64394477  0.99645062  0.22045401
   0.91678126  0.32289704  0.99246868
   0.64749415  0.00354938  0.72045401
   0.08321874  0.40611578  0.49246868
   0.32289704  0.91678126  0.49246868
   0.35250585  0.35605523  0.22045401
   0.59388422  0.67710296  0.49246868
   0.99645062  0.64394477  0.72045401
   0.35605523  0.35250585  0.72045401
   0.67710296  0.59388422  0.99246868
   0.40611578  0.08321874  0.99246868
   0.21287912  0.30062508  0.47118911
   0.08774595  0.78712088  0.47118911
   0.30062508  0.21287912  0.97118911
   0.69937492  0.91225405  0.47118911
  -0.00000000 -0.00000000  0.96186485
   0.06263773  0.48337072  0.77826832
  -0.00000000 -0.00000000  0.46186485
   0.66666667  0.33333333  0.44712247
   0.57926701  0.51662928  0.27826832
   0.78712088  0.08774595  0.97118911
   0.91225405  0.69937492  0.97118911
   0.33333333  0.66666667  0.94712247
   0.93736227  0.42073299  0.27826832
   0.42073299  0.93736227  0.77826832
   0.51662928  0.57926701  0.77826832
   0.48337072  0.06263773  0.27826832
Direct configuration=    10
   0.00397109  0.64778434  0.22084555
   0.64381325  0.99602891  0.22084555
   0.91710389  0.32302553  0.99177839
   0.64778434  0.00397109  0.72084555
   0.08289611  0.40592163  0.49177839
   0.32302553  0.91710389  0.49177839
   0.35221566  0.35618675  0.22084555
   0.59407837  0.67697447  0.49177839
   0.99602891  0.64381325  0.72084555
   0.35618675  0.35221566  0.72084555
   0.67697447  0.59407837  0.99177839
   0.40592163  0.08289611  0.99177839
   0.21263431  0.30040234  0.47152959
   0.08776803  0.78736569  0.47152959
   0.30040234  0.21263431  0.97152959
   0.69959766  0.91223197  0.47152959
  -0.00000000 -0.00000000  0.96300775
   0.06190977  0.48323783  0.77793105
  -0.00000000 -0.00000000  0.46300775
   0.66666667  0.33333333  0.44686619
   0.57867195  0.51676217  0.27793105
   0.78736569  0.08776803  0.97152959
   0.91223197  0.69959766  0.97152959
   0.33333333  0.66666667  0.94686619
   0.93809023  0.42132805  0.27793105
   0.42132805  0.93809023  0.77793105
   0.51676217  0.57867195  0.77793105
   0.48323783  0.06190977  0.27793105
Direct configuration=    11
   0.00395797  0.64777531  0.22083337
   0.64381735  0.99604203  0.22083337
   0.91709386  0.32302153  0.99179986
   0.64777531  0.00395797  0.72083337
   0.08290614  0.40592767  0.49179986
   0.32302153  0.91709386  0.49179986
   0.35222469  0.35618265  0.22083337
   0.59407233  0.67697847  0.49179986
   0.99604203  0.64381735  0.72083337
   0.35618265  0.35222469  0.72083337
   0.67697847  0.59407233  0.99179986
   0.40592767  0.08290614  0.99179986
   0.21264193  0.30040927  0.47151900
   0.08776734  0.78735807  0.47151900
   0.30040927  0.21264193  0.97151900
   0.69959073  0.91223266  0.47151900
  -0.00000000 -0.00000000  0.96297220
   0.06193242  0.48324196  0.77794154
  -0.00000000 -0.00000000  0.46297220
   0.66666667  0.33333333  0.44687416
   0.57869046  0.51675804  0.27794154
   0.78735807  0.08776734  0.97151900
   0.91223266  0.69959073  0.97151900
   0.33333333  0.66666667  0.94687416
   0.93806758  0.42130954  0.27794154
   0.42130954  0.93806758  0.77794154
   0.51675804  0.57869046  0.77794154
   0.48324196  0.06193242  0.27794154
Direct configuration=    12
   0.00433558  0.64808883  0.22070493
   0.64375326  0.99566442  0.22070493
   0.91721264  0.32317492  0.99178546
   0.64808883  0.00433558  0.72070493
   0.08278736  0.40596228  0.49178546
   0.32317492  0.91721264  0.49178546
   0.35191117  0.35624674  0.22070493
   0.59403772  0.67682508  0.49178546
   0.99566442  0.64375326  0.72070493
   0.35624674  0.35191117  0.72070493
   0.67682508  0.59403772  0.99178546
   0.40596228  0.08278736  0.99178546
   0.21256755  0.30054646  0.47169546
   0.08797891  0.78743245  0.47169546
   0.30054646  0.21256755  0.97169546
   0.69945354  0.91202109  0.47169546
  -0.00000000 -0.00000000  0.96400831
   0.06186616  0.48320709  0.77770019
  -0.00000000 -0.00000000  0.46400831
   0.66666667  0.33333333  0.44646125
   0.57865907  0.51679291  0.27770019
   0.78743245  0.08797891  0.97169546
   0.91202109  0.69945354  0.97169546
   0.33333333  0.66666667  0.94646125
   0.93813384  0.42134093  0.27770019
   0.42134093  0.93813384  0.77770019
   0.51679291  0.57865907  0.77770019
   0.48320709  0.06186616  0.27770019
Direct configuration=    13
   0.00456415  0.64827861  0.22062719
   0.64371446  0.99543585  0.22062719
   0.91728454  0.32326777  0.99177675
   0.64827861  0.00456415  0.72062719
   0.08271546  0.40598323  0.49177675
   0.32326777  0.91728454  0.49177675
   0.35172139  0.35628554  0.22062719
   0.59401677  0.67673223  0.49177675
   0.99543585  0.64371446  0.72062719
   0.35628554  0.35172139  0.72062719
   0.67673223  0.59401677  0.99177675
   0.40598323  0.08271546  0.99177675
   0.21252253  0.30062950  0.47180227
   0.08810697  0.78747747  0.47180227
   0.30062950  0.21252253  0.97180227
   0.69937050  0.91189303  0.47180227
  -0.00000000 -0.00000000  0.96463548
   0.06182606  0.48318598  0.77755409
  -0.00000000 -0.00000000  0.46463548
   0.66666667  0.33333333  0.44621131
   0.57864008  0.51681402  0.27755409
   0.78747747  0.08810697  0.97180227
   0.91189303  0.69937050  0.97180227
   0.33333333  0.66666667  0.94621131
   0.93817394  0.42135992  0.27755409
   0.42135992  0.93817394  0.77755409
   0.51681402  0.57864008  0.77755409
   0.48318598  0.06182606  0.27755409
Direct configuration=    14
   0.00482535  0.64832316  0.22044004
   0.64349781  0.99517465  0.22044004
   0.91730919  0.32336290  0.99181164
   0.64832316  0.00482535  0.72044004
   0.08269081  0.40605371  0.49181164
   0.32336290  0.91730919  0.49181164
   0.35167684  0.35650219  0.22044004
   0.59394629  0.67663710  0.49181164
   0.99517465  0.64349781  0.72044004
   0.35650219  0.35167684  0.72044004
   0.67663710  0.59394629  0.99181164
   0.40605371  0.08269081  0.99181164
   0.21247596  0.30062741  0.47182095
   0.08815145  0.78752404  0.47182095
   0.30062741  0.21247596  0.97182095
   0.69937259  0.91184855  0.47182095
  -0.00000000 -0.00000000  0.96574635
   0.06189386  0.48346792  0.77749502
  -0.00000000 -0.00000000  0.46574635
   0.66666667  0.33333333  0.44567842
   0.57842594  0.51653208  0.27749502
   0.78752404  0.08815145  0.97182095
   0.91184855  0.69937259  0.97182095
   0.33333333  0.66666667  0.94567842
   0.93810614  0.42157406  0.27749502
   0.42157406  0.93810614  0.77749502
   0.51653208  0.57842594  0.77749502
   0.48346792  0.06189386  0.27749502
Direct configuration=    15
   0.00490382  0.64833654  0.22038382
   0.64343273  0.99509618  0.22038382
   0.91731659  0.32339148  0.99182212
   0.64833654  0.00490382  0.72038382
   0.08268341  0.40607488  0.49182212
   0.32339148  0.91731659  0.49182212
   0.35166346  0.35656727  0.22038382
   0.59392512  0.67660852  0.49182212
   0.99509618  0.64343273  0.72038382
   0.35656727  0.35166346  0.72038382
   0.67660852  0.59392512  0.99182212
   0.40607488  0.08268341  0.99182212
   0.21246197  0.30062678  0.47182656
   0.08816482  0.78753803  0.47182656
   0.30062678  0.21246197  0.97182656
   0.69937322  0.91183518  0.47182656
  -0.00000000 -0.00000000  0.96608006
   0.06191423  0.48355261  0.77747727
  -0.00000000 -0.00000000  0.46608006
   0.66666667  0.33333333  0.44551834
   0.57836161  0.51644739  0.27747727
   0.78753803  0.08816482  0.97182656
   0.91183518  0.69937322  0.97182656
   0.33333333  0.66666667  0.94551834
   0.93808577  0.42163839  0.27747727
   0.42163839  0.93808577  0.77747727
   0.51644739  0.57836161  0.77747727
   0.48355261  0.06191423  0.27747727
